<event>
12    1  0.7781383E-008  0.1277503E+04  0.7818608E-02  0.9047598E-01
          2   -1    0    0  501    0  0.00000000000E+00  0.00000000000E+00  0.19350947650E+04  0.19350947650E+04  0.00000000000E+00 0. -1.
         -2   -1    0    0    0  501 -0.00000000000E+00 -0.00000000000E+00 -0.97537813089E+03  0.97537813089E+03  0.00000000000E+00 0.  1.
         23    2    1    2    0    0 -0.63565695090E+03 -0.10673057552E+04  0.28127318642E+02  0.12457936687E+04  0.89495165359E+02 0.  0.
    5000000    2    1    2    0    0  0.63565695090E+03  0.10673057552E+04  0.93158931550E+03  0.16646792272E+04  0.60008078003E+03 0.  0.
         23    2    4    4    0    0  0.21109356759E+03  0.84945051441E+02 -0.17067649587E+01  0.24173472226E+03  0.81588031342E+02 0.  0.
         23    2    4    4    0    0  0.42456338331E+03  0.98236070374E+03  0.93329608046E+03  0.14229445050E+04  0.91885100703E+02 0.  0.
          4    1    3    3  502    0 -0.29646598375E+03 -0.54647705790E+03 -0.23112904471E+02  0.62214424428E+03  0.00000000000E+00 0. -1.
         -4    1    3    3    0  502 -0.33919096715E+03 -0.52082869728E+03  0.51240223113E+02  0.62364942441E+03  0.00000000000E+00 0.  1.
         15    1    5    5    0    0  0.10261306802E+03 -0.17527713769E+01 -0.56478923863E+01  0.10279868848E+03  0.17770000000E+01 0.  1.
        -15    1    5    5    0    0  0.10848049957E+03  0.86697822818E+02  0.39411274275E+01  0.13893603378E+03  0.17770000000E+01 0. -1.
          4    1    6    6  503    0  0.24092140552E+03  0.54504038051E+03  0.45916634223E+03  0.75229373908E+03  0.00000000000E+00 0. -1.
         -4    1    6    6    0  503  0.18364197779E+03  0.43732032323E+03  0.47412973823E+03  0.67065076589E+03  0.00000000000E+00 0.  1.
<mgrwt>
<rscale>  0 0.12775028E+04</rscale>
<asrwt>0</asrwt>
<pdfrwt beam="1">  1        2 0.29770689E+00 0.12775028E+04</pdfrwt>
<pdfrwt beam="2">  1       -2 0.15005817E+00 0.12775028E+04</pdfrwt>
<totfact> 0.20968217E+00</totfact>
</mgrwt>
</event>
<event>
12    1  0.7781383E-008  0.1110280E+04  0.7818608E-02  0.9195230E-01
          2   -1    0    0  501    0  0.00000000000E+00  0.00000000000E+00  0.15949643510E+04  0.15949643510E+04  0.00000000000E+00 0. -1.
         -2   -1    0    0    0  501 -0.00000000000E+00 -0.00000000000E+00 -0.91873063554E+03  0.91873063554E+03  0.00000000000E+00 0.  1.
         23    2    1    2    0    0 -0.92664108716E+03  0.59466329444E+03  0.60025077021E+03  0.12573327393E+04  0.91085081099E+02 0.  0.
    5000000    2    1    2    0    0  0.92664108716E+03 -0.59466329444E+03  0.75982945218E+02  0.12563622472E+04  0.60032037288E+03 0.  0.
         23    2    4    4    0    0  0.20488185229E+03 -0.57525040447E+02  0.24431599368E+03  0.33643716146E+03  0.90630873135E+02 0.  0.
         23    2    4    4    0    0  0.72175923487E+03 -0.53713825399E+03 -0.16833304846E+03  0.91992508576E+03  0.92044832442E+02 0.  0.
          4    1    3    3  502    0 -0.48335445770E+03  0.26932578196E+03  0.33504363740E+03  0.64685558479E+03  0.00000000000E+00 0. -1.
         -4    1    3    3    0  502 -0.44328662946E+03  0.32533751248E+03  0.26520713281E+03  0.61047715451E+03  0.00000000000E+00 0.  1.
         15    1    5    5    0    0  0.15496343353E+03 -0.48607285552E+02  0.11932226241E+03  0.20153732651E+03  0.17770000000E+01 0. -1.
        -15    1    5    5    0    0  0.49918418764E+02 -0.89177548953E+01  0.12499373127E+03  0.13489983495E+03  0.17770000000E+01 0.  1.
          3    1    6    6  503    0  0.10702236819E+03 -0.12275247505E+03 -0.37303300886E+02  0.16707331828E+03  0.00000000000E+00 0. -1.
         -3    1    6    6    0  503  0.61473686668E+03 -0.41438577894E+03 -0.13102974758E+03  0.75285176748E+03  0.00000000000E+00 0.  1.
<mgrwt>
<rscale>  0 0.11102803E+04</rscale>
<asrwt>0</asrwt>
<pdfrwt beam="1">  1        2 0.24537913E+00 0.11102803E+04</pdfrwt>
<pdfrwt beam="2">  1       -2 0.14134317E+00 0.11102803E+04</pdfrwt>
<totfact> 0.38599809E+00</totfact>
</mgrwt>
</event>
<event>
12    1  0.7781383E-008  0.1748512E+04  0.7818608E-02  0.8734170E-01
         -2   -1    0    0    0  501 -0.00000000000E+00  0.00000000000E+00  0.15139627423E+04  0.15139627423E+04  0.00000000000E+00 0.  1.
          2   -1    0    0  501    0  0.00000000000E+00 -0.00000000000E+00 -0.24616851231E+04  0.24616851231E+04  0.00000000000E+00 0. -1.
         23    2    1    2    0    0 -0.48951709590E+03 -0.16328805487E+04  0.36046489068E+03  0.17446902399E+04  0.89906742307E+02 0.  0.
    5000000    2    1    2    0    0  0.48951709590E+03  0.16328805487E+04 -0.13081872715E+04  0.22309576255E+04  0.59991008999E+03 0.  0.
         23    2    4    4    0    0  0.32782596962E+03  0.30025186392E+03 -0.42442240990E+03  0.62119852351E+03  0.90178575260E+02 0.  0.
         23    2    4    4    0    0  0.16169112628E+03  0.13326286848E+04 -0.88376486161E+03  0.16097591020E+04  0.90778874792E+02 0.  0.
          1    1    3    3  502    0 -0.21881714714E+03 -0.58136682390E+03  0.12386345662E+03  0.63341178051E+03  0.00000000000E+00 0. -1.
         -1    1    3    3    0  502 -0.27069994877E+03 -0.10515137248E+04  0.23660143406E+03  0.11112784594E+04  0.00000000000E+00 0.  1.
         15    1    5    5    0    0  0.28159830373E+03  0.27683167160E+03 -0.33505980930E+03  0.51788185197E+03  0.17770000000E+01 0. -1.
        -15    1    5    5    0    0  0.46227665891E+02  0.23420192321E+02 -0.89362600600E+02  0.10331667153E+03  0.17770000000E+01 0.  1.
          4    1    6    6  503    0  0.51352548593E+02  0.26076630397E+03 -0.21212774658E+03  0.34005048214E+03  0.00000000000E+00 0.  1.
         -4    1    6    6    0  503  0.11033857769E+03  0.10718623808E+04 -0.67163711503E+03  0.12697086199E+04  0.00000000000E+00 0. -1.
<mgrwt>
<rscale>  0 0.17485118E+04</rscale>
<asrwt>0</asrwt>
<pdfrwt beam="1">  1        2 0.37872079E+00 0.17485118E+04</pdfrwt>
<pdfrwt beam="2">  1       -2 0.23291735E+00 0.17485118E+04</pdfrwt>
<totfact> 0.27424683E-01</totfact>
</mgrwt>
</event>
<event>
12    1  0.7781383E-008  0.8597405E+03  0.7818608E-02  0.9477356E-01
         -1   -1    0    0    0  501 -0.00000000000E+00  0.00000000000E+00  0.58584983608E+03  0.58584983608E+03  0.00000000000E+00 0.  1.
          1   -1    0    0  501    0  0.00000000000E+00 -0.00000000000E+00 -0.14579254976E+04  0.14579254976E+04  0.00000000000E+00 0. -1.
         23    2    1    2    0    0  0.31016291044E+03  0.72384431616E+03 -0.12275961666E+03  0.80216975002E+03  0.90855706072E+02 0.  0.
    5000000    2    1    2    0    0 -0.31016291044E+03 -0.72384431616E+03 -0.74931604484E+03  0.12416055837E+04  0.59996522003E+03 0.  0.
         23    2    4    4    0    0 -0.26520197014E+03 -0.79630464643E+03 -0.71223666839E+03  0.11044533244E+04  0.90016104728E+02 0.  0.
         23    2    4    4    0    0 -0.44960940303E+02  0.72460330278E+02 -0.37079376457E+02  0.13715225924E+03  0.10081605249E+03 0.  0.
          2    1    3    3  502    0  0.19826140863E+03  0.46544713692E+03 -0.12271154635E+03  0.52058308370E+03  0.00000000000E+00 0. -1.
         -2    1    3    3    0  502  0.11190150181E+03  0.25839717923E+03 -0.48070309317E-01  0.28158666633E+03  0.00000000000E+00 0.  1.
         15    1    5    5    0    0 -0.19866901676E+03 -0.45729934053E+03 -0.41490641642E+03  0.64864671215E+03  0.17770000000E+01 0. -1.
        -15    1    5    5    0    0 -0.66532953383E+02 -0.33900530591E+03 -0.29733025197E+03  0.45580661226E+03  0.17770000000E+01 0.  1.
          4    1    6    6  503    0 -0.44994310094E+02  0.57791894317E+02 -0.69874191020E+02  0.10122644694E+03  0.00000000000E+00 0. -1.
         -4    1    6    6    0  503  0.33369791386E-01  0.14668435961E+02  0.32794814563E+02  0.35925812299E+02  0.00000000000E+00 0.  1.
<mgrwt>
<rscale>  0 0.85974054E+03</rscale>
<asrwt>0</asrwt>
<pdfrwt beam="1">  1        1 0.22429623E+00 0.85974054E+03</pdfrwt>
<pdfrwt beam="2">  1       -1 0.90130745E-01 0.85974054E+03</pdfrwt>
<totfact> 0.86159747E+00</totfact>
</mgrwt>
</event>
<event>
12    1  0.7781383E-008  0.1471552E+04  0.7818608E-02  0.8903594E-01
          2   -1    0    0  501    0  0.00000000000E+00  0.00000000000E+00  0.22950532300E+04  0.22950532300E+04  0.00000000000E+00 0. -1.
         -2   -1    0    0    0  501 -0.00000000000E+00 -0.00000000000E+00 -0.10495054187E+04  0.10495054187E+04  0.00000000000E+00 0.  1.
         23    2    1    2    0    0 -0.54428735292E+03  0.13281227141E+04  0.15872353947E+03  0.14468482337E+04  0.89543190635E+02 0.  0.
    5000000    2    1    2    0    0  0.54428735292E+03 -0.13281227141E+04  0.10868242718E+04  0.18977104151E+04  0.59996596190E+03 0.  0.
         23    2    4    4    0    0  0.57057327698E+03 -0.89884173359E+03  0.97330815393E+03  0.14452186164E+04  0.88644008737E+02 0.  0.
         23    2    4    4    0    0 -0.26285924054E+02 -0.42928098054E+03  0.11351611790E+03  0.45249179870E+03  0.83004872172E+02 0.  0.
          1    1    3    3  502    0 -0.52667941649E+03  0.12397681110E+04  0.16191831616E+03  0.13566995681E+04  0.00000000000E+00 0. -1.
         -1    1    3    3    0  502 -0.17607936435E+02  0.88354603104E+02 -0.31947766938E+01  0.90148665621E+02  0.00000000000E+00 0.  1.
         15    1    5    5    0    0  0.41655091332E+03 -0.57836826821E+03  0.64946832674E+03  0.96428044791E+03  0.17770000000E+01 0. -1.
        -15    1    5    5    0    0  0.15402236365E+03 -0.32047346537E+03  0.32383982719E+03  0.48093816850E+03  0.17770000000E+01 0.  1.
          3    1    6    6  503    0  0.58766824809E+01 -0.37153052170E+03  0.10271660867E+03  0.38551286055E+03  0.00000000000E+00 0. -1.
         -3    1    6    6    0  503 -0.32162606535E+02 -0.57750458841E+02  0.10799509232E+02  0.66978938145E+02  0.00000000000E+00 0.  1.
<mgrwt>
<rscale>  0 0.14715519E+04</rscale>
<asrwt>0</asrwt>
<pdfrwt beam="1">  1        2 0.35308511E+00 0.14715519E+04</pdfrwt>
<pdfrwt beam="2">  1       -2 0.16146237E+00 0.14715519E+04</pdfrwt>
<totfact> 0.10601928E+00</totfact>
</mgrwt>
</event>
<event>
12    1  0.7781383E-008  0.5685359E+03  0.7818608E-02  0.9972924E-01
         -2   -1    0    0    0  501 -0.00000000000E+00  0.00000000000E+00  0.46147123151E+03  0.46147123151E+03  0.00000000000E+00 0.  1.
          2   -1    0    0  501    0  0.00000000000E+00 -0.00000000000E+00 -0.93206075303E+03  0.93206075303E+03  0.00000000000E+00 0. -1.
         23    2    1    2    0    0 -0.34052183760E+03 -0.29880049295E+03 -0.44452805420E+03  0.64121039389E+03  0.91152190302E+02 0.  0.
    5000000    2    1    2    0    0  0.34052183760E+03  0.29880049295E+03 -0.26061467316E+02  0.75232159065E+03  0.60005976303E+03 0.  0.
         23    2    4    4    0    0  0.56242892812E+02 -0.12355287791E+03 -0.14786365569E+03  0.22055071366E+03  0.91380413609E+02 0.  0.
         23    2    4    4    0    0  0.28427894478E+03  0.42235337086E+03  0.12180218838E+03  0.53177087698E+03  0.93528627633E+02 0.  0.
          4    1    3    3  502    0 -0.32810976522E+03 -0.26651344111E+03 -0.38196501222E+03  0.56972160121E+03  0.00000000000E+00 0. -1.
         -4    1    3    3    0  502 -0.12412072375E+02 -0.32287051842E+02 -0.62563041981E+02  0.71488792682E+02  0.00000000000E+00 0.  1.
         15    1    5    5    0    0  0.79125571402E+02 -0.71932532869E+02 -0.91515311205E+02  0.14075992060E+03  0.17770000000E+01 0. -1.
        -15    1    5    5    0    0 -0.22882678590E+02 -0.51620345041E+02 -0.56348344486E+02  0.79790793058E+02  0.17770000000E+01 0.  1.
          4    1    6    6  503    0  0.10577006713E+03  0.23415070430E+03  0.41728738455E+02  0.26029818870E+03  0.00000000000E+00 0. -1.
         -4    1    6    6    0  503  0.17850887766E+03  0.18820266656E+03  0.80073449920E+02  0.27147268829E+03  0.00000000000E+00 0.  1.
<mgrwt>
<rscale>  0 0.56853593E+03</rscale>
<asrwt>0</asrwt>
<pdfrwt beam="1">  1        2 0.14339396E+00 0.56853593E+03</pdfrwt>
<pdfrwt beam="2">  1       -2 0.70995575E-01 0.56853593E+03</pdfrwt>
<totfact> 0.51929682E+01</totfact>
</mgrwt>
</event>
<event>
12    1  0.7781383E-008  0.1388563E+04  0.7818608E-02  0.8962139E-01
         -2   -1    0    0    0  501 -0.00000000000E+00  0.00000000000E+00  0.11884831918E+04  0.11884831918E+04  0.00000000000E+00 0.  1.
          2   -1    0    0  501    0  0.00000000000E+00 -0.00000000000E+00 -0.17772578267E+04  0.17772578267E+04  0.00000000000E+00 0. -1.
         23    2    1    2    0    0  0.34001146886E+02  0.13755823131E+04 -0.48180569982E+03  0.14608493178E+04  0.92526854060E+02 0.  0.
    5000000    2    1    2    0    0 -0.34001146886E+02 -0.13755823131E+04 -0.10696893509E+03  0.15048917008E+04  0.59989490733E+03 0.  0.
         23    2    4    4    0    0  0.94870904010E+02 -0.64387558589E+03 -0.31387630891E+03  0.72820819029E+03  0.90512831000E+02 0.  0.
         23    2    4    4    0    0 -0.12887205090E+03 -0.73170672724E+03  0.20690737381E+03  0.77668351050E+03  0.91781664585E+02 0.  0.
          1    1    3    3  502    0 -0.17350918634E+02  0.42959026540E+03 -0.11620048585E+03  0.44536659440E+03  0.00000000000E+00 0. -1.
         -1    1    3    3    0  502  0.51352065520E+02  0.94599204773E+03 -0.36560521398E+03  0.10154827234E+04  0.00000000000E+00 0.  1.
         15    1    5    5    0    0  0.43573146830E+02 -0.36802162446E+03 -0.12999341580E+03  0.39273398258E+03  0.17770000000E+01 0. -1.
        -15    1    5    5    0    0  0.51297757181E+02 -0.27585396143E+03 -0.18388289311E+03  0.33547420771E+03  0.17770000000E+01 0.  1.
          3    1    6    6  503    0 -0.10108034485E+03 -0.69632928172E+03  0.19422340246E+03  0.72994139131E+03  0.00000000000E+00 0. -1.
         -3    1    6    6    0  503 -0.27791706045E+02 -0.35377445523E+02  0.12683971359E+02  0.46742119186E+02  0.00000000000E+00 0.  1.
<mgrwt>
<rscale>  0 0.13885631E+04</rscale>
<asrwt>0</asrwt>
<pdfrwt beam="1">  1        2 0.27342428E+00 0.13885631E+04</pdfrwt>
<pdfrwt beam="2">  1       -2 0.18284357E+00 0.13885631E+04</pdfrwt>
<totfact> 0.14652279E+00</totfact>
</mgrwt>
</event>
<event>
12    1  0.7781383E-008  0.1975113E+04  0.7818608E-02  0.8618345E-01
          2   -1    0    0  501    0  0.00000000000E+00  0.00000000000E+00  0.12388277912E+04  0.12388277912E+04  0.00000000000E+00 0. -1.
         -2   -1    0    0    0  501 -0.00000000000E+00 -0.00000000000E+00 -0.33225697401E+04  0.33225697401E+04  0.00000000000E+00 0.  1.
         23    2    1    2    0    0  0.19066633365E+04  0.38932894338E+03 -0.14503051105E+04  0.24287467170E+04  0.92106442998E+02 0.  0.
    5000000    2    1    2    0    0 -0.19066633365E+04 -0.38932894338E+03 -0.63343683837E+03  0.21326508143E+04  0.60001263537E+03 0.  0.
         23    2    4    4    0    0 -0.16450524145E+03 -0.15711347489E+03  0.40779673460E+02  0.24818247413E+03  0.90470659553E+02 0.  0.
         23    2    4    4    0    0 -0.17421580951E+04 -0.23221546848E+03 -0.67421651183E+03  0.18844683402E+04  0.87259201839E+02 0.  0.
          2    1    3    3  502    0  0.47789234015E+03  0.13648075227E+03 -0.35439306529E+03  0.61041177023E+03  0.00000000000E+00 0. -1.
         -2    1    3    3    0  502  0.14287709964E+04  0.25284819111E+03 -0.10959120453E+04  0.18183349468E+04  0.00000000000E+00 0.  1.
         15    1    5    5    0    0 -0.35337687186E+02  0.67581520856E+01  0.87912419087E+01  0.37079218149E+02  0.17770000000E+01 0.  1.
        -15    1    5    5    0    0 -0.12916755426E+03 -0.16387162698E+03  0.31988431551E+02  0.21110325598E+03  0.17770000000E+01 0. -1.
          2    1    6    6  503    0 -0.81904398163E+03 -0.11042169690E+03 -0.36370402601E+03  0.90294330582E+03  0.00000000000E+00 0. -1.
         -2    1    6    6    0  503 -0.92311411344E+03 -0.12179377159E+03 -0.31051248582E+03  0.98152503437E+03  0.00000000000E+00 0.  1.
<mgrwt>
<rscale>  0 0.19751131E+04</rscale>
<asrwt>0</asrwt>
<pdfrwt beam="1">  1        2 0.19058889E+00 0.19751131E+04</pdfrwt>
<pdfrwt beam="2">  1       -2 0.51116457E+00 0.19751131E+04</pdfrwt>
<totfact> 0.22518493E-02</totfact>
</mgrwt>
</event>
<event>
12    1  0.8855502E-008  0.8652613E+03  0.7818608E-02  0.9470080E-01
          1   -1    0    0  501    0  0.00000000000E+00  0.00000000000E+00  0.16934860444E+04  0.16934860444E+04  0.00000000000E+00 0. -1.
         -1   -1    0    0    0  501 -0.00000000000E+00 -0.00000000000E+00 -0.45440318511E+03  0.45440318511E+03  0.00000000000E+00 0.  1.
         23    2    1    2    0    0 -0.34971284858E+03  0.68630797718E+03  0.49019433860E+03  0.91758424661E+03  0.91392800726E+02 0.  0.
    5000000    2    1    2    0    0  0.34971284858E+03 -0.68630797718E+03  0.74888852065E+03  0.12303049829E+04  0.59958203649E+03 0.  0.
         23    2    4    4    0    0  0.30455189353E+03 -0.47261509974E+02  0.17963688632E+03  0.36818753672E+03  0.91143541143E+02 0.  0.
         23    2    4    4    0    0  0.45160955055E+02 -0.63904646720E+03  0.56925163433E+03  0.86211744614E+03  0.93697217893E+02 0.  0.
          3    1    3    3  502    0 -0.21587189252E+03  0.32723702252E+03  0.26339657675E+03  0.47229492855E+03  0.00000000000E+00 0. -1.
         -3    1    3    3    0  502 -0.13384095606E+03  0.35907095465E+03  0.22679776185E+03  0.44528931806E+03  0.00000000000E+00 0.  1.
         15    1    5    5    0    0  0.21292000808E+03 -0.29938182166E+02  0.17059958913E+03  0.27447878266E+03  0.17770000000E+01 0. -1.
        -15    1    5    5    0    0  0.91631885451E+02 -0.17323327808E+02  0.90372971920E+01  0.93708754059E+02  0.17770000000E+01 0.  1.
          2    1    6    6  503    0  0.70622138421E+02 -0.36484736285E+03  0.31088015747E+03  0.48450754062E+03  0.00000000000E+00 0. -1.
         -2    1    6    6    0  503 -0.25461183366E+02 -0.27419910435E+03  0.25837147686E+03  0.37760990551E+03  0.00000000000E+00 0.  1.
<mgrwt>
<rscale>  0 0.86526126E+03</rscale>
<asrwt>0</asrwt>
<pdfrwt beam="1">  1        1 0.26053631E+00 0.86526126E+03</pdfrwt>
<pdfrwt beam="2">  1       -1 0.69908183E-01 0.86526126E+03</pdfrwt>
<totfact> 0.10202998E+01</totfact>
</mgrwt>
</event>
<event>
12    1  0.7781383E-008  0.9549004E+03  0.7818608E-02  0.9359441E-01
         -1   -1    0    0    0  501 -0.00000000000E+00  0.00000000000E+00  0.93623202997E+03  0.93623202997E+03  0.00000000000E+00 0.  1.
          1   -1    0    0  501    0  0.00000000000E+00 -0.00000000000E+00 -0.11043012807E+04  0.11043012807E+04  0.00000000000E+00 0. -1.
         23    2    1    2    0    0  0.55861201549E+03  0.68920272206E+03  0.18679513682E+03  0.91155173467E+03  0.94796444566E+02 0.  0.
    5000000    2    1    2    0    0 -0.55861201549E+03 -0.68920272206E+03 -0.35486438752E+03  0.11289815760E+04  0.60135088708E+03 0.  0.
         23    2    4    4    0    0 -0.30621527134E+03 -0.30096090168E+02  0.25381436500E+02  0.32204412424E+03  0.91622233074E+02 0.  0.
         23    2    4    4    0    0 -0.25239674415E+03 -0.65910663189E+03 -0.38024582402E+03  0.80693745172E+03  0.91844954416E+02 0.  0.
          4    1    3    3  502    0  0.36889121067E+02  0.33439652282E+02 -0.99627497180E+01  0.50776707059E+02  0.00000000000E+00 0. -1.
         -4    1    3    3    0  502  0.52172289443E+03  0.65576306978E+03  0.19675788654E+03  0.86077502762E+03  0.00000000000E+00 0.  1.
         15    1    5    5    0    0 -0.18667424820E+03 -0.53729527097E+02 -0.11832971790E+02  0.19462094948E+03  0.17770000000E+01 0. -1.
        -15    1    5    5    0    0 -0.11954102314E+03  0.23633436929E+02  0.37214408290E+02  0.12742317476E+03  0.17770000000E+01 0.  1.
          4    1    6    6  503    0 -0.18944333460E+03 -0.50979916442E+03 -0.33479041701E+03  0.63864590219E+03  0.00000000000E+00 0. -1.
         -4    1    6    6    0  503 -0.62953409555E+02 -0.14930746747E+03 -0.45455407005E+02  0.16829154953E+03  0.00000000000E+00 0.  1.
<mgrwt>
<rscale>  0 0.95490044E+03</rscale>
<asrwt>0</asrwt>
<pdfrwt beam="1">  1        1 0.16989250E+00 0.95490044E+03</pdfrwt>
<pdfrwt beam="2">  1       -1 0.14403570E+00 0.95490044E+03</pdfrwt>
<totfact> 0.49349470E+00</totfact>
</mgrwt>
</event>
<event>
12    1  0.7781383E-008  0.1391316E+04  0.7818608E-02  0.8960129E-01
         -2   -1    0    0    0  501 -0.00000000000E+00  0.00000000000E+00  0.10351072351E+04  0.10351072351E+04  0.00000000000E+00 0.  1.
          2   -1    0    0  501    0  0.00000000000E+00 -0.00000000000E+00 -0.20011352182E+04  0.20011352182E+04  0.00000000000E+00 0. -1.
         23    2    1    2    0    0  0.34551199214E+03  0.13004758368E+04 -0.76107879429E+03  0.15487489395E+04  0.93629096158E+02 0.  0.
    5000000    2    1    2    0    0 -0.34551199214E+03 -0.13004758368E+04 -0.20494918879E+03  0.14874935138E+04  0.60001403704E+03 0.  0.
         23    2    4    4    0    0 -0.27434093444E+03 -0.13102234965E+04 -0.12841186401E+03  0.13481641967E+04  0.95438647571E+02 0.  0.
         23    2    4    4    0    0 -0.71171057693E+02  0.97476596580E+01 -0.76537324787E+02  0.13932931705E+03  0.91620741006E+02 0.  0.
          1    1    3    3  502    0  0.25489466979E+03  0.10873985945E+04 -0.61556057938E+03  0.12752732346E+04  0.00000000000E+00 0. -1.
         -1    1    3    3    0  502  0.90617322351E+02  0.21307724235E+03 -0.14551821492E+03  0.27347570494E+03  0.00000000000E+00 0.  1.
         15    1    5    5    0    0 -0.55668815559E+02 -0.27182564229E+03 -0.65660552271E+02  0.28513621778E+03  0.17770000000E+01 0.  1.
        -15    1    5    5    0    0 -0.21867211889E+03 -0.10383978542E+04 -0.62751311735E+02  0.10630279789E+04  0.17770000000E+01 0. -1.
          4    1    6    6  503    0 -0.39472646194E+02  0.36744101718E+02 -0.20163940576E+01  0.53965587680E+02  0.00000000000E+00 0. -1.
         -4    1    6    6    0  503 -0.31698411499E+02 -0.26996442060E+02 -0.74520930729E+02  0.85363729372E+02  0.00000000000E+00 0.  1.
<mgrwt>
<rscale>  0 0.13913156E+04</rscale>
<asrwt>0</asrwt>
<pdfrwt beam="1">  1        2 0.30786695E+00 0.13913156E+04</pdfrwt>
<pdfrwt beam="2">  1       -2 0.15924727E+00 0.13913156E+04</pdfrwt>
<totfact> 0.16224686E+00</totfact>
</mgrwt>
</event>
<event>
12    1  0.7781383E-008  0.7627368E+03  0.7818608E-02  0.9615578E-01
          2   -1    0    0  501    0  0.00000000000E+00  0.00000000000E+00  0.16436590286E+04  0.16436590286E+04  0.00000000000E+00 0. -1.
         -2   -1    0    0    0  501 -0.00000000000E+00 -0.00000000000E+00 -0.46920339690E+03  0.46920339690E+03  0.00000000000E+00 0.  1.
         23    2    1    2    0    0 -0.54724527296E+03  0.46668791348E+03  0.85935899718E+03  0.11243785981E+04  0.91947530743E+02 0.  0.
    5000000    2    1    2    0    0  0.54724527296E+03 -0.46668791348E+03  0.31509663447E+03  0.98848382739E+03  0.60044932392E+03 0.  0.
         23    2    4    4    0    0  0.12593853795E+03  0.21207177294E+02 -0.12511878520E+03  0.20288258857E+03  0.95897730027E+02 0.  0.
         23    2    4    4    0    0  0.42130673500E+03 -0.48789509077E+03  0.44021541967E+03  0.78560123882E+03  0.88536467963E+02 0.  0.
          3    1    3    3  502    0 -0.30090632911E+03  0.23093887714E+03  0.51667706611E+03  0.64096222550E+03  0.00000000000E+00 0. -1.
         -3    1    3    3    0  502 -0.24633894385E+03  0.23574903634E+03  0.34268193106E+03  0.48341637257E+03  0.00000000000E+00 0.  1.
         15    1    5    5    0    0  0.61738329234E+02 -0.37685763693E+02 -0.51527606651E+02  0.88826178900E+02  0.17770000000E+01 0. -1.
        -15    1    5    5    0    0  0.64200208718E+02  0.58892940987E+02 -0.73591178547E+02  0.11405640967E+03  0.17770000000E+01 0.  1.
          1    1    6    6  503    0  0.29196463698E+03 -0.36362445928E+03  0.27292041896E+03  0.54032550534E+03  0.00000000000E+00 0. -1.
         -1    1    6    6    0  503  0.12934209802E+03 -0.12427063150E+03  0.16729500071E+03  0.24527573348E+03  0.00000000000E+00 0.  1.
<mgrwt>
<rscale>  0 0.76273682E+03</rscale>
<asrwt>0</asrwt>
<pdfrwt beam="1">  1        2 0.25287062E+00 0.76273682E+03</pdfrwt>
<pdfrwt beam="2">  1       -2 0.72185139E-01 0.76273682E+03</pdfrwt>
<totfact> 0.18779083E+01</totfact>
</mgrwt>
</event>
<event>
12    1  0.7781383E-008  0.4762455E+03  0.7818608E-02  0.1020172E+00
          1   -1    0    0  501    0  0.00000000000E+00  0.00000000000E+00  0.15416413942E+04  0.15416413942E+04  0.00000000000E+00 0. -1.
         -1   -1    0    0    0  501 -0.00000000000E+00 -0.00000000000E+00 -0.20359610824E+03  0.20359610824E+03  0.00000000000E+00 0.  1.
         23    2    1    2    0    0 -0.25383247363E+03 -0.20887487604E+03  0.81628064320E+03  0.88482537484E+03  0.92424114731E+02 0.  0.
    5000000    2    1    2    0    0  0.25383247363E+03  0.20887487604E+03  0.52176464280E+03  0.86041212764E+03  0.60000920693E+03 0.  0.
         23    2    4    4    0    0 -0.78662863450E+02  0.24109955258E+03  0.42060396126E+03  0.49925654512E+03  0.89624579615E+02 0.  0.
         23    2    4    4    0    0  0.33249533708E+03 -0.32224676541E+02  0.10116068154E+03  0.36115558252E+03  0.92780883499E+02 0.  0.
          4    1    3    3  502    0 -0.17277468476E+03 -0.18572458842E+03  0.66342066769E+03  0.71026171004E+03  0.00000000000E+00 0. -1.
         -4    1    3    3    0  502 -0.81057788868E+02 -0.23150287627E+02  0.15285997552E+03  0.17456366480E+03  0.00000000000E+00 0.  1.
         15    1    5    5    0    0 -0.72839847890E+02  0.24853292520E+03  0.40006083255E+03  0.47657747096E+03  0.17770000000E+01 0.  1.
        -15    1    5    5    0    0 -0.58230155601E+01 -0.74333726185E+01  0.20543128708E+02  0.22679074161E+02  0.17770000000E+01 0. -1.
          1    1    6    6  503    0  0.10620328765E+03 -0.52983043775E+02  0.46205157525E+02  0.12736270183E+03  0.00000000000E+00 0. -1.
         -1    1    6    6    0  503  0.22629204943E+03  0.20758367234E+02  0.54955524018E+02  0.23379288070E+03  0.00000000000E+00 0.  1.
<mgrwt>
<rscale>  0 0.47624548E+03</rscale>
<asrwt>0</asrwt>
<pdfrwt beam="1">  1        1 0.23717559E+00 0.47624548E+03</pdfrwt>
<pdfrwt beam="2">  1       -1 0.31322479E-01 0.47624548E+03</pdfrwt>
<totfact> 0.61629411E+01</totfact>
</mgrwt>
</event>
<event>
12    1  0.7781383E-008  0.4804471E+03  0.7818608E-02  0.1019012E+00
         -2   -1    0    0    0  501 -0.00000000000E+00  0.00000000000E+00  0.13547162978E+03  0.13547162978E+03  0.00000000000E+00 0.  1.
          2   -1    0    0  501    0  0.00000000000E+00 -0.00000000000E+00 -0.25516496527E+04  0.25516496527E+04  0.00000000000E+00 0. -1.
         23    2    1    2    0    0  0.37984905718E+02  0.34375794182E+03 -0.32138303971E+03  0.48081667746E+03  0.91023312870E+02 0.  0.
    5000000    2    1    2    0    0 -0.37984905718E+02 -0.34375794182E+03 -0.20947949832E+04  0.22063046050E+04  0.60000134403E+03 0.  0.
         23    2    4    4    0    0  0.23239503151E+02  0.10805914102E+03 -0.14572072398E+03  0.20255033206E+03  0.87035941755E+02 0.  0.
         23    2    4    4    0    0 -0.61224408869E+02 -0.45181708284E+03 -0.19490742592E+04  0.20037542730E+04  0.90849401918E+02 0.  0.
          1    1    3    3  502    0  0.67019172806E+02  0.26318328111E+03 -0.25384461576E+03  0.37174466765E+03  0.00000000000E+00 0. -1.
         -1    1    3    3    0  502 -0.29034267087E+02  0.80574660710E+02 -0.67538423951E+02  0.10907200981E+03  0.00000000000E+00 0.  1.
         15    1    5    5    0    0  0.51194499619E+02  0.38258239742E+02 -0.52201084102E+02  0.82538964191E+02  0.17770000000E+01 0.  1.
        -15    1    5    5    0    0 -0.27954996468E+02  0.69800901277E+02 -0.93519639880E+02  0.12001136787E+03  0.17770000000E+01 0. -1.
          2    1    6    6  503    0 -0.51778752561E+02 -0.10031812523E+03 -0.43928624384E+03  0.45356054667E+03  0.00000000000E+00 0. -1.
         -2    1    6    6    0  503 -0.94456563087E+01 -0.35149895760E+03 -0.15097880154E+04  0.15501937263E+04  0.00000000000E+00 0.  1.
<mgrwt>
<rscale>  0 0.48044711E+03</rscale>
<asrwt>0</asrwt>
<pdfrwt beam="1">  1        2 0.39256145E+00 0.48044711E+03</pdfrwt>
<pdfrwt beam="2">  1       -2 0.20841791E-01 0.48044711E+03</pdfrwt>
<totfact> 0.70046119E+01</totfact>
</mgrwt>
</event>
<event>
12    1  0.7781383E-008  0.5471543E+03  0.7818608E-02  0.1002155E+00
         -2   -1    0    0    0  501 -0.00000000000E+00  0.00000000000E+00  0.45297244251E+03  0.45297244251E+03  0.00000000000E+00 0. -1.
          2   -1    0    0  501    0  0.00000000000E+00 -0.00000000000E+00 -0.95466115609E+03  0.95466115609E+03  0.00000000000E+00 0.  1.
         23    2    1    2    0    0  0.17828706001E+03 -0.42548703760E+03 -0.44835582641E+03  0.64955682921E+03  0.89864522258E+02 0.  0.
    5000000    2    1    2    0    0 -0.17828706001E+03  0.42548703760E+03 -0.53332887177E+02  0.75807676940E+03  0.59917484636E+03 0.  0.
         23    2    4    4    0    0 -0.20622788814E+03  0.12320997666E+02  0.16591551326E+03  0.28044142386E+03  0.91856876947E+02 0.  0.
         23    2    4    4    0    0  0.27940828128E+02  0.41316603993E+03 -0.21924840044E+03  0.47763534554E+03  0.92621788928E+02 0.  0.
          1    1    3    3  502    0  0.99459215438E+02 -0.33019395456E+03 -0.30660290695E+03  0.46143853948E+03  0.00000000000E+00 0. -1.
         -1    1    3    3    0  502  0.78827844576E+02 -0.95293083033E+02 -0.14175291946E+03  0.18811828973E+03  0.00000000000E+00 0.  1.
         15    1    5    5    0    0 -0.71112030833E+02 -0.48298813601E+01  0.77664465253E+01  0.71719760902E+02  0.17770000000E+01 0.  1.
        -15    1    5    5    0    0 -0.13511585731E+03  0.17150879026E+02  0.15814906674E+03  0.20872166295E+03  0.17770000000E+01 0. -1.
          1    1    6    6  503    0 -0.68947651633E+01  0.29512846923E+03 -0.11669486792E+03  0.31743667611E+03  0.00000000000E+00 0. -1.
         -1    1    6    6    0  503  0.34835593291E+02  0.11803757070E+03 -0.10255353251E+03  0.16019866943E+03  0.00000000000E+00 0.  1.
<mgrwt>
<rscale>  0 0.54715434E+03</rscale>
<asrwt>0</asrwt>
<pdfrwt beam="1">  1        2 0.14687094E+00 0.54715434E+03</pdfrwt>
<pdfrwt beam="2">  1       -2 0.69688069E-01 0.54715434E+03</pdfrwt>
<totfact> 0.52401218E+01</totfact>
</mgrwt>
</event>
<event>
12    1  0.7781383E-008  0.8491532E+03  0.7818608E-02  0.9491474E-01
         -2   -1    0    0    0  501 -0.00000000000E+00  0.00000000000E+00  0.28328342290E+03  0.28328342290E+03  0.00000000000E+00 0.  1.
          2   -1    0    0  501    0  0.00000000000E+00 -0.00000000000E+00 -0.32154483541E+04  0.32154483541E+04  0.00000000000E+00 0. -1.
         23    2    1    2    0    0 -0.18336986157E+03 -0.71777965710E+03 -0.21161296722E+04  0.22438607792E+04  0.89856910586E+02 0.  0.
    5000000    2    1    2    0    0  0.18336986157E+03  0.71777965710E+03 -0.81603525902E+03  0.12548709979E+04  0.59996294471E+03 0.  0.
         23    2    4    4    0    0  0.18676310807E+03 -0.21074144346E+02 -0.17548140324E+03  0.27253416382E+03  0.90313728016E+02 0.  0.
         23    2    4    4    0    0 -0.33932464953E+01  0.73885380145E+03 -0.64055385577E+03  0.98233683404E+03  0.93594654400E+02 0.  0.
          1    1    3    3  502    0 -0.19369807345E+03 -0.67414721640E+03 -0.19880979434E+04  0.21082046498E+04  0.00000000000E+00 0. -1.
         -1    1    3    3    0  502  0.10328211878E+02 -0.43632440698E+02 -0.12803172888E+03  0.13565612939E+03  0.00000000000E+00 0.  1.
         15    1    5    5    0    0  0.11058303787E+03  0.32474956441E+02 -0.10164537387E+03  0.15368204456E+03  0.17770000000E+01 0. -1.
        -15    1    5    5    0    0  0.76180070194E+02 -0.53549100787E+02 -0.73836029376E+02  0.11885211926E+03  0.17770000000E+01 0.  1.
          3    1    6    6  503    0 -0.43445713689E+02  0.43448526392E+03 -0.40248430746E+03  0.59385064819E+03  0.00000000000E+00 0. -1.
         -3    1    6    6    0  503  0.40052467194E+02  0.30436853752E+03 -0.23806954832E+03  0.38848618585E+03  0.00000000000E+00 0.  1.
<mgrwt>
<rscale>  0 0.84915320E+03</rscale>
<asrwt>0</asrwt>
<pdfrwt beam="1">  1        2 0.49468435E+00 0.84915320E+03</pdfrwt>
<pdfrwt beam="2">  1       -2 0.43582066E-01 0.84915320E+03</pdfrwt>
<totfact> 0.66607747E+00</totfact>
</mgrwt>
</event>
<event>
12    1  0.7781383E-008  0.1988744E+04  0.7818608E-02  0.8611901E-01
         -2   -1    0    0    0  501 -0.00000000000E+00  0.00000000000E+00  0.16368309157E+04  0.16368309157E+04  0.00000000000E+00 0. -1.
          2   -1    0    0  501    0  0.00000000000E+00 -0.00000000000E+00 -0.27764243453E+04  0.27764243453E+04  0.00000000000E+00 0.  1.
         23    2    1    2    0    0 -0.40680487735E+02 -0.19604994644E+04  0.18531201864E+03  0.19718035835E+04  0.91955292339E+02 0.  0.
    5000000    2    1    2    0    0  0.40680487735E+02  0.19604994644E+04 -0.13249054482E+04  0.24414516774E+04  0.60008232314E+03 0.  0.
         23    2    4    4    0    0  0.16460921440E+03  0.17835295203E+04 -0.12780979224E+04  0.22022190461E+04  0.90336507287E+02 0.  0.
         23    2    4    4    0    0 -0.12392872667E+03  0.17696994410E+03 -0.46807525827E+02  0.23923263133E+03  0.91458280177E+02 0.  0.
          2    1    3    3  502    0 -0.62280995265E+02 -0.16875724924E+04  0.17595437793E+03  0.16978632991E+04  0.00000000000E+00 0. -1.
         -2    1    3    3    0  502  0.21600507530E+02 -0.27292697199E+03  0.93576407150E+01  0.27394028438E+03  0.00000000000E+00 0.  1.
         15    1    5    5    0    0  0.60564317870E+02  0.49641883351E+03 -0.40376344767E+03  0.64275016473E+03  0.17770000000E+01 0.  1.
        -15    1    5    5    0    0  0.10404489653E+03  0.12871106868E+04 -0.87433447474E+03  0.15594688814E+04  0.17770000000E+01 0. -1.
          2    1    6    6  503    0 -0.11741153333E+03  0.18112043816E+03 -0.26454662226E+02  0.21746248052E+03  0.00000000000E+00 0. -1.
         -2    1    6    6    0  503 -0.65171933310E+01 -0.41504940594E+01 -0.20352863600E+02  0.21770150817E+02  0.00000000000E+00 0.  1.
<mgrwt>
<rscale>  0 0.19887445E+04</rscale>
<asrwt>0</asrwt>
<pdfrwt beam="1">  1        2 0.42714221E+00 0.19887445E+04</pdfrwt>
<pdfrwt beam="2">  1       -2 0.25182014E+00 0.19887445E+04</pdfrwt>
<totfact> 0.13311845E-01</totfact>
</mgrwt>
</event>
<event>
12    1  0.7781383E-008  0.2747682E+03  0.7818608E-02  0.1098581E+00
          3   -1    0    0  501    0  0.00000000000E+00  0.00000000000E+00  0.64949824974E+03  0.64949824974E+03  0.00000000000E+00 0. -1.
         -3   -1    0    0    0  501 -0.00000000000E+00 -0.00000000000E+00 -0.49301737053E+03  0.49301737053E+03  0.00000000000E+00 0.  1.
         23    2    1    2    0    0  0.12768362425E+03 -0.15428445243E+03  0.40641986750E+03  0.46202586186E+03  0.90465397599E+02 0.  0.
    5000000    2    1    2    0    0 -0.12768362425E+03  0.15428445243E+03 -0.24993898829E+03  0.68048975842E+03  0.60040820554E+03 0.  0.
         23    2    4    4    0    0 -0.13519927281E+03  0.20989641596E+03 -0.41045058961E+03  0.48861402172E+03  0.89098972560E+02 0.  0.
         23    2    4    4    0    0  0.75156485525E+01 -0.55611963533E+02  0.16051160133E+03  0.19187573669E+03  0.88899655291E+02 0.  0.
          3    1    3    3  502    0  0.98992314447E+02 -0.11685480513E+03  0.37576962610E+03  0.40577991042E+03  0.00000000000E+00 0. -1.
         -3    1    3    3    0  502  0.28691309806E+02 -0.37429647300E+02  0.30650241404E+02  0.56245951441E+02  0.00000000000E+00 0.  1.
         15    1    5    5    0    0  0.11212921282E+02  0.17885898285E+02 -0.54645513140E+02  0.58608231473E+02  0.17770000000E+01 0. -1.
        -15    1    5    5    0    0 -0.14641219409E+03  0.19201051768E+03 -0.35580507647E+03  0.43000579025E+03  0.17770000000E+01 0.  1.
          1    1    6    6  503    0  0.29949576947E+02 -0.56686877170E+02  0.56463865645E+02  0.85431535900E+02  0.00000000000E+00 0. -1.
         -1    1    6    6    0  503 -0.22433928395E+02  0.10749136379E+01  0.10404773568E+03  0.10644420079E+03  0.00000000000E+00 0.  1.
<mgrwt>
<rscale>  0 0.27476818E+03</rscale>
<asrwt>0</asrwt>
<pdfrwt beam="1">  1        3 0.99922808E-01 0.27476818E+03</pdfrwt>
<pdfrwt beam="2">  1       -3 0.75848826E-01 0.27476818E+03</pdfrwt>
<totfact> 0.37370371E+00</totfact>
</mgrwt>
</event>
<event>
12    1  0.7781383E-008  0.4092702E+03  0.7818608E-02  0.1040616E+00
         -2   -1    0    0    0  501 -0.00000000000E+00  0.00000000000E+00  0.30666151411E+03  0.30666151411E+03  0.00000000000E+00 0.  1.
          2   -1    0    0  501    0  0.00000000000E+00 -0.00000000000E+00 -0.69761755909E+03  0.69761755909E+03  0.00000000000E+00 0. -1.
         23    2    1    2    0    0 -0.60336187547E+02 -0.23446913478E+03 -0.20659528361E+03  0.33155570096E+03  0.92905010317E+02 0.  0.
    5000000    2    1    2    0    0  0.60336187547E+02  0.23446913478E+03 -0.18436076137E+03  0.67272337223E+03  0.59995967741E+03 0.  0.
         23    2    4    4    0    0  0.26546668250E+03  0.21175053980E+03 -0.25945042654E+03  0.43568352013E+03  0.84821903216E+02 0.  0.
         23    2    4    4    0    0 -0.20513049495E+03  0.22718594981E+02  0.75089665163E+02  0.23703985210E+03  0.89189568633E+02 0.  0.
          2    1    3    3  502    0 -0.72473058934E+01 -0.16621562096E+03 -0.16936317864E+03  0.23741112521E+03  0.00000000000E+00 0. -1.
         -2    1    3    3    0  502 -0.53088881653E+02 -0.68253513822E+02 -0.37232104964E+02  0.94144575756E+02  0.00000000000E+00 0.  1.
         15    1    5    5    0    0  0.15815111208E+03  0.72219302387E+02 -0.12365336430E+03  0.21335583921E+03  0.17770000000E+01 0.  1.
        -15    1    5    5    0    0  0.10731557041E+03  0.13953123741E+03 -0.13579706223E+03  0.22232768093E+03  0.17770000000E+01 0. -1.
          3    1    6    6  503    0 -0.47961236149E+02  0.33108941383E+02  0.51494704597E+02  0.77770089200E+02  0.00000000000E+00 0. -1.
         -3    1    6    6    0  503 -0.15716925880E+03 -0.10390346403E+02  0.23594960566E+02  0.15926976290E+03  0.00000000000E+00 0.  1.
<mgrwt>
<rscale>  0 0.40927016E+03</rscale>
<asrwt>0</asrwt>
<pdfrwt beam="1">  1        2 0.10732578E+00 0.40927016E+03</pdfrwt>
<pdfrwt beam="2">  1       -2 0.47178695E-01 0.40927016E+03</pdfrwt>
<totfact> 0.18096882E+02</totfact>
</mgrwt>
</event>
<event>
12    1  0.7781383E-008  0.3417502E+03  0.7818608E-02  0.1066053E+00
         -1   -1    0    0    0  501 -0.00000000000E+00  0.00000000000E+00  0.31437467467E+03  0.31437467467E+03  0.00000000000E+00 0.  1.
          1   -1    0    0  501    0  0.00000000000E+00 -0.00000000000E+00 -0.13605300876E+04  0.13605300876E+04  0.00000000000E+00 0. -1.
         23    2    1    2    0    0 -0.20135742324E+03 -0.25518209487E+03 -0.92123003275E+03  0.98112752293E+03  0.91014996392E+02 0.  0.
    5000000    2    1    2    0    0  0.20135742324E+03  0.25518209487E+03 -0.12492538018E+03  0.69377723935E+03  0.60004815956E+03 0.  0.
         23    2    4    4    0    0  0.11895179689E+03  0.11394940977E+03 -0.35223648369E+03  0.39945265461E+03  0.91421468277E+02 0.  0.
         23    2    4    4    0    0  0.82405626351E+02  0.14123268510E+03  0.22731110350E+03  0.29432458474E+03  0.90660161113E+02 0.  0.
          4    1    3    3  502    0 -0.19342923611E+03 -0.20511116736E+03 -0.71066079478E+03  0.76454184031E+03  0.00000000000E+00 0. -1.
         -4    1    3    3    0  502 -0.79281871379E+01 -0.50070927504E+02 -0.21056923797E+03  0.21658568261E+03  0.00000000000E+00 0.  1.
         15    1    5    5    0    0  0.91405443137E+02  0.63183163260E+02 -0.13601427597E+03  0.17564198858E+03  0.17770000000E+01 0. -1.
        -15    1    5    5    0    0  0.27546353757E+02  0.50766246507E+02 -0.21622220772E+03  0.22381066603E+03  0.17770000000E+01 0.  1.
          3    1    6    6  503    0  0.68791036549E+02  0.39515604689E+02  0.66300956332E+02  0.10339006980E+03  0.00000000000E+00 0. -1.
         -3    1    6    6    0  503  0.13614589802E+02  0.10171708041E+03  0.16101014717E+03  0.19093451494E+03  0.00000000000E+00 0.  1.
<mgrwt>
<rscale>  0 0.34175023E+03</rscale>
<asrwt>0</asrwt>
<pdfrwt beam="1">  1        1 0.20931232E+00 0.34175023E+03</pdfrwt>
<pdfrwt beam="2">  1       -1 0.48365335E-01 0.34175023E+03</pdfrwt>
<totfact> 0.38594371E+01</totfact>
</mgrwt>
</event>
<event>
12    1  0.7781383E-008  0.1654268E+04  0.7818608E-02  0.8787886E-01
          2   -1    0    0  501    0  0.00000000000E+00  0.00000000000E+00  0.23164229355E+04  0.23164229355E+04  0.00000000000E+00 0. -1.
         -2   -1    0    0    0  501 -0.00000000000E+00 -0.00000000000E+00 -0.13810194040E+04  0.13810194040E+04  0.00000000000E+00 0.  1.
         23    2    1    2    0    0  0.22759380312E+03  0.16312095532E+04 -0.11585700396E+03  0.16535617197E+04  0.90553684672E+02 0.  0.
    5000000    2    1    2    0    0 -0.22759380312E+03 -0.16312095532E+04  0.10512605354E+04  0.20438806198E+04  0.59971303866E+03 0.  0.
         23    2    4    4    0    0 -0.63773274976E+02 -0.32762221873E+03 -0.18964989468E+02  0.34684229193E+03  0.92393483750E+02 0.  0.
         23    2    4    4    0    0 -0.16382052814E+03 -0.13035873345E+04  0.10702255249E+04  0.16970383278E+04  0.91538559577E+02 0.  0.
          2    1    3    3  502    0  0.15045400405E+03  0.12481995963E+04 -0.11894551400E+03  0.12628486349E+04  0.00000000000E+00 0. -1.
         -2    1    3    3    0  502  0.77139799062E+02  0.38300995696E+03  0.30885100336E+01  0.39071308478E+03  0.00000000000E+00 0.  1.
         15    1    5    5    0    0  0.16691252945E+02 -0.14190308940E+02 -0.68209571525E+01  0.23014038719E+02  0.17770000000E+01 0. -1.
        -15    1    5    5    0    0 -0.80464527921E+02 -0.31343190979E+03 -0.12144032315E+02  0.32382825321E+03  0.17770000000E+01 0.  1.
          3    1    6    6  503    0 -0.59777056457E+02 -0.69844224691E+03  0.61710623915E+03  0.93392450399E+03  0.00000000000E+00 0. -1.
         -3    1    6    6    0  503 -0.10404347168E+03 -0.60514508757E+03  0.45311928576E+03  0.76311382384E+03  0.00000000000E+00 0.  1.
<mgrwt>
<rscale>  0 0.16542678E+04</rscale>
<asrwt>0</asrwt>
<pdfrwt beam="1">  1        2 0.35637276E+00 0.16542678E+04</pdfrwt>
<pdfrwt beam="2">  1       -2 0.21246453E+00 0.16542678E+04</pdfrwt>
<totfact> 0.45245488E-01</totfact>
</mgrwt>
</event>
<event>
12    1  0.7781383E-008  0.5148254E+03  0.7818608E-02  0.1009980E+00
         -1   -1    0    0    0  501 -0.00000000000E+00  0.00000000000E+00  0.52520829174E+03  0.52520829174E+03  0.00000000000E+00 0.  1.
          1   -1    0    0  501    0  0.00000000000E+00 -0.00000000000E+00 -0.98131993319E+03  0.98131993319E+03  0.00000000000E+00 0. -1.
         23    2    1    2    0    0 -0.12552547021E+03 -0.40722150795E+03 -0.61480075324E+03  0.75362387352E+03  0.91558595171E+02 0.  0.
    5000000    2    1    2    0    0  0.12552547021E+03  0.40722150795E+03  0.15868911179E+03  0.75290435141E+03  0.60008060122E+03 0.  0.
         23    2    4    4    0    0 -0.13660932283E+03  0.24475804892E+03 -0.12916739237E+03  0.32208238380E+03  0.92109918591E+02 0.  0.
         23    2    4    4    0    0  0.26213479305E+03  0.16246345903E+03  0.28785650416E+03  0.43082196761E+03  0.87390935133E+02 0.  0.
          3    1    3    3  502    0 -0.36679987428E+02 -0.10461127663E+03 -0.23584243891E+03  0.26059661676E+03  0.00000000000E+00 0. -1.
         -3    1    3    3    0  502 -0.88845482784E+02 -0.30261023132E+03 -0.37895831433E+03  0.49302725676E+03  0.00000000000E+00 0.  1.
         15    1    5    5    0    0 -0.21582895523E+02  0.10546393551E+03 -0.82095789969E+02  0.13539327728E+03  0.17770000000E+01 0.  1.
        -15    1    5    5    0    0 -0.11502642731E+03  0.13929411341E+03 -0.47071602405E+02  0.18668910652E+03  0.17770000000E+01 0. -1.
          1    1    6    6  503    0  0.22469880450E+03  0.10878489562E+03  0.25760253931E+03  0.35872381370E+03  0.00000000000E+00 0. -1.
         -1    1    6    6    0  503  0.37435988543E+02  0.53678563405E+02  0.30253964855E+02  0.72098153908E+02  0.00000000000E+00 0.  1.
<mgrwt>
<rscale>  0 0.51482545E+03</rscale>
<asrwt>0</asrwt>
<pdfrwt beam="1">  1        1 0.15097230E+00 0.51482545E+03</pdfrwt>
<pdfrwt beam="2">  1       -1 0.80801275E-01 0.51482545E+03</pdfrwt>
<totfact> 0.25385065E+01</totfact>
</mgrwt>
</event>
<event>
12    1  0.7781383E-008  0.6472362E+03  0.7818608E-02  0.9811979E-01
         -2   -1    0    0    0  501 -0.00000000000E+00  0.00000000000E+00  0.14708838573E+03  0.14708838573E+03  0.00000000000E+00 0.  1.
          2   -1    0    0  501    0  0.00000000000E+00 -0.00000000000E+00 -0.30229771931E+04  0.30229771931E+04  0.00000000000E+00 0. -1.
         23    2    1    2    0    0 -0.26149472903E+03  0.43957235746E+03 -0.84769846786E+03  0.99404352731E+03  0.89030843029E+02 0.  0.
    5000000    2    1    2    0    0  0.26149472903E+03 -0.43957235746E+03 -0.20281903395E+04  0.21760220515E+04  0.59992713284E+03 0.  0.
         23    2    4    4    0    0  0.60081064457E+02  0.13430376890E+03 -0.41852412313E+03  0.45286690786E+03  0.90987680192E+02 0.  0.
         23    2    4    4    0    0  0.20141366458E+03 -0.57387612636E+03 -0.16096662164E+04  0.17231551437E+04  0.91307438544E+02 0.  0.
          4    1    3    3  502    0 -0.13938786057E+03  0.15993573518E+03 -0.30667119454E+03  0.37290164470E+03  0.00000000000E+00 0. -1.
         -4    1    3    3    0  502 -0.12210686846E+03  0.27963662228E+03 -0.54102727332E+03  0.62114188260E+03  0.00000000000E+00 0.  1.
         15    1    5    5    0    0  0.15159183946E+02  0.12070739544E+03 -0.34288701050E+03  0.36383339026E+03  0.17770000000E+01 0. -1.
        -15    1    5    5    0    0  0.44921880510E+02  0.13596373460E+02 -0.75637112632E+02  0.89033517599E+02  0.17770000000E+01 0.  1.
          3    1    6    6  503    0  0.67316514264E+02 -0.22228017032E+03 -0.73939519614E+03  0.77501306007E+03  0.00000000000E+00 0. -1.
         -3    1    6    6    0  503  0.13409715031E+03 -0.35159595604E+03 -0.87027102025E+03  0.94814208361E+03  0.00000000000E+00 0.  1.
<mgrwt>
<rscale>  0 0.64723615E+03</rscale>
<asrwt>0</asrwt>
<pdfrwt beam="1">  1        2 0.46507342E+00 0.64723615E+03</pdfrwt>
<pdfrwt beam="2">  1       -2 0.22628982E-01 0.64723615E+03</pdfrwt>
<totfact> 0.31090010E+01</totfact>
</mgrwt>
</event>
<event>
12    1  0.7781383E-008  0.5995176E+03  0.7818608E-02  0.9906407E-01
         -1   -1    0    0    0  501 -0.00000000000E+00  0.00000000000E+00  0.91859308602E+03  0.91859308602E+03  0.00000000000E+00 0.  1.
          1   -1    0    0  501    0  0.00000000000E+00 -0.00000000000E+00 -0.49601627962E+03  0.49601627962E+03  0.00000000000E+00 0. -1.
         23    2    1    2    0    0  0.24217315410E+02 -0.50486270071E+03 -0.20022356889E+02  0.51393056449E+03  0.90834494570E+02 0.  0.
    5000000    2    1    2    0    0 -0.24217315410E+02  0.50486270071E+03  0.44259916329E+03  0.90067880115E+03  0.59987953671E+03 0.  0.
         23    2    4    4    0    0 -0.23813894567E+03  0.27942119748E+03  0.43556035644E+03  0.57636201533E+03  0.87715366781E+02 0.  0.
         23    2    4    4    0    0  0.21392163026E+03  0.22544150323E+03  0.70388068589E+01  0.32431678582E+03  0.92441860075E+02 0.  0.
          1    1    3    3  502    0  0.37752230784E+02 -0.32505053127E+03  0.24637219440E+02  0.32816165436E+03  0.00000000000E+00 0. -1.
         -1    1    3    3    0  502 -0.13534915374E+02 -0.17981216944E+03 -0.44659576329E+02  0.18576891013E+03  0.00000000000E+00 0.  1.
         15    1    5    5    0    0 -0.18815620817E+03  0.15811787330E+03  0.26999067015E+03  0.36510565625E+03  0.17770000000E+01 0.  1.
        -15    1    5    5    0    0 -0.49982737503E+02  0.12130332418E+03  0.16556968628E+03  0.21125635908E+03  0.17770000000E+01 0. -1.
          2    1    6    6  503    0  0.18012552282E+03  0.16039402561E+03  0.39050890298E+02  0.24432850725E+03  0.00000000000E+00 0.  1.
         -2    1    6    6    0  503  0.33796107436E+02  0.65047477622E+02 -0.32012083439E+02  0.79988278572E+02  0.00000000000E+00 0. -1.
<mgrwt>
<rscale>  0 0.59951764E+03</rscale>
<asrwt>0</asrwt>
<pdfrwt beam="1">  1        1 0.76310197E-01 0.59951764E+03</pdfrwt>
<pdfrwt beam="2">  1       -1 0.14132201E+00 0.59951764E+03</pdfrwt>
<totfact> 0.19156683E+01</totfact>
</mgrwt>
</event>
<event>
12    1  0.7781383E-008  0.7403097E+03  0.7818608E-02  0.9650677E-01
          2   -1    0    0  501    0  0.00000000000E+00  0.00000000000E+00  0.35561071901E+04  0.35561071901E+04  0.00000000000E+00 0. -1.
         -2   -1    0    0    0  501 -0.00000000000E+00 -0.00000000000E+00 -0.57724733098E+03  0.57724733098E+03  0.00000000000E+00 0.  1.
         23    2    1    2    0    0 -0.65440750301E+03  0.20587504440E+03  0.31333796882E+04  0.32089530054E+04  0.93152598442E+02 0.  0.
    5000000    2    1    2    0    0  0.65440750301E+03 -0.20587504440E+03 -0.15451982908E+03  0.92440151567E+03  0.60000672554E+03 0.  0.
         23    2    4    4    0    0  0.49514639715E+03 -0.29934811048E+03  0.10316874566E+03  0.59443888637E+03  0.89076111764E+02 0.  0.
         23    2    4    4    0    0  0.15926110586E+03  0.93473066082E+02 -0.25768857474E+03  0.32996262930E+03  0.91491099347E+02 0.  0.
          4    1    3    3  502    0 -0.24879398792E+03  0.31440925252E+02  0.11235198284E+04  0.11511662716E+04  0.00000000000E+00 0. -1.
         -4    1    3    3    0  502 -0.40561351509E+03  0.17443411915E+03  0.20098598599E+04  0.20577867338E+04  0.00000000000E+00 0.  1.
         15    1    5    5    0    0  0.79942498154E+02 -0.79390621101E+02  0.43538993739E+02  0.12079931885E+03  0.17770000000E+01 0.  1.
        -15    1    5    5    0    0  0.41520389900E+03 -0.21995748938E+03  0.59629751923E+02  0.47363956752E+03  0.17770000000E+01 0. -1.
          2    1    6    6  503    0  0.14869148555E+03  0.43841643509E+02 -0.20189440244E+03  0.25454390057E+03  0.00000000000E+00 0. -1.
         -2    1    6    6    0  503  0.10569620304E+02  0.49631422573E+02 -0.55794172299E+02  0.75418728725E+02  0.00000000000E+00 0.  1.
<mgrwt>
<rscale>  0 0.74030974E+03</rscale>
<asrwt>0</asrwt>
<pdfrwt beam="1">  1        2 0.54709340E+00 0.74030974E+03</pdfrwt>
<pdfrwt beam="2">  1       -2 0.88807284E-01 0.74030974E+03</pdfrwt>
<totfact> 0.88455464E-01</totfact>
</mgrwt>
</event>
<event>
12    1  0.7781383E-008  0.9615412E+03  0.7818608E-02  0.9351762E-01
          2   -1    0    0  501    0  0.00000000000E+00  0.00000000000E+00  0.82811692488E+03  0.82811692488E+03  0.00000000000E+00 0.  1.
         -2   -1    0    0    0  501 -0.00000000000E+00 -0.00000000000E+00 -0.14501358425E+04  0.14501358425E+04  0.00000000000E+00 0. -1.
         23    2    1    2    0    0  0.16086182234E+03 -0.89030800731E+03  0.18187887109E+03  0.92732008154E+03  0.91201623448E+02 0.  0.
    5000000    2    1    2    0    0 -0.16086182234E+03  0.89030800731E+03 -0.80389778875E+03  0.13509326859E+04  0.60020212702E+03 0.  0.
         23    2    4    4    0    0 -0.16548374394E+03  0.91398284525E+03 -0.55807116649E+03  0.10874026041E+04  0.90837688176E+02 0.  0.
         23    2    4    4    0    0  0.46219215975E+01 -0.23674837947E+02 -0.24582662226E+03  0.26353008179E+03  0.91845063496E+02 0.  0.
          2    1    3    3  502    0  0.86010436296E+02 -0.42921562499E+03  0.42317595086E+02  0.43978929812E+03  0.00000000000E+00 0. -1.
         -2    1    3    3    0  502  0.74851386042E+02 -0.46109238232E+03  0.13956127600E+03  0.48753078342E+03  0.00000000000E+00 0.  1.
         15    1    5    5    0    0 -0.15131635423E+03  0.63643981429E+03 -0.41641886987E+03  0.77547411897E+03  0.17770000000E+01 0. -1.
        -15    1    5    5    0    0 -0.14167389710E+02  0.27754303096E+03 -0.14165229662E+03  0.31192848513E+03  0.17770000000E+01 0.  1.
          4    1    6    6  503    0  0.39812562377E+02  0.57691819521E+01 -0.17171547414E+03  0.17636475737E+03  0.00000000000E+00 0. -1.
         -4    1    6    6    0  503 -0.35190640780E+02 -0.29444019899E+02 -0.74111148113E+02  0.87165324418E+02  0.00000000000E+00 0.  1.
<mgrwt>
<rscale>  0 0.96154118E+03</rscale>
<asrwt>0</asrwt>
<pdfrwt beam="1">  1        2 0.12740261E+00 0.96154118E+03</pdfrwt>
<pdfrwt beam="2">  1       -2 0.22309782E+00 0.96154118E+03</pdfrwt>
<totfact> 0.31028742E+00</totfact>
</mgrwt>
</event>
<event>
12    1  0.7781383E-008  0.9937440E+03  0.7818608E-02  0.9315433E-01
         -2   -1    0    0    0  501 -0.00000000000E+00  0.00000000000E+00  0.10570872226E+04  0.10570872226E+04  0.00000000000E+00 0. -1.
          2   -1    0    0  501    0  0.00000000000E+00 -0.00000000000E+00 -0.11652948530E+04  0.11652948530E+04  0.00000000000E+00 0.  1.
         23    2    1    2    0    0 -0.88018035983E+03 -0.35680066714E+03  0.34074224744E+03  0.10126650748E+04  0.85796809719E+02 0.  0.
    5000000    2    1    2    0    0  0.88018035983E+03  0.35680066714E+03 -0.44894987785E+03  0.12097170008E+04  0.59986252359E+03 0.  0.
         23    2    4    4    0    0  0.22553178380E+03 -0.69594019371E+02  0.75473324605E+02  0.26428146434E+03  0.91872502032E+02 0.  0.
         23    2    4    4    0    0  0.65464857602E+03  0.42639468651E+03 -0.52442320245E+03  0.94543553642E+03  0.91931884973E+02 0.  0.
          4    1    3    3  502    0 -0.76854147413E+03 -0.28105686808E+03  0.28235373102E+03  0.86566309265E+03  0.00000000000E+00 0.  1.
         -4    1    3    3    0  502 -0.11163888569E+03 -0.75743799061E+02  0.58388516418E+02  0.14700198211E+03  0.00000000000E+00 0. -1.
         15    1    5    5    0    0  0.19113957435E+03 -0.26939006457E+02  0.80668006339E+02  0.20921408157E+03  0.17770000000E+01 0.  1.
        -15    1    5    5    0    0  0.34392209449E+02 -0.42655012914E+02 -0.51946817341E+01  0.55067382767E+02  0.17770000000E+01 0. -1.
          1    1    6    6  503    0  0.25494526882E+02  0.41938154292E+02 -0.38727706362E+02  0.62518916549E+02  0.00000000000E+00 0. -1.
         -1    1    6    6    0  503  0.62915404914E+03  0.38445653222E+03 -0.48569549609E+03  0.88291661987E+03  0.00000000000E+00 0.  1.
<mgrwt>
<rscale>  0 0.99374403E+03</rscale>
<asrwt>0</asrwt>
<pdfrwt beam="1">  1        2 0.17927613E+00 0.99374403E+03</pdfrwt>
<pdfrwt beam="2">  1       -2 0.16262880E+00 0.99374403E+03</pdfrwt>
<totfact> 0.47487477E+00</totfact>
</mgrwt>
</event>
<event>
12    1  0.7781383E-008  0.6691763E+03  0.7818608E-02  0.9771447E-01
          2   -1    0    0  501    0  0.00000000000E+00  0.00000000000E+00  0.14247692795E+04  0.14247692795E+04  0.00000000000E+00 0. -1.
         -2   -1    0    0    0  501 -0.00000000000E+00 -0.00000000000E+00 -0.63872698351E+03  0.63872698351E+03  0.00000000000E+00 0.  1.
         23    2    1    2    0    0 -0.46687435501E+02 -0.57731204557E+03  0.10376124327E+04  0.11916730188E+04  0.89309061423E+02 0.  0.
    5000000    2    1    2    0    0  0.46687435501E+02  0.57731204557E+03 -0.25157013677E+03  0.87182324423E+03  0.60109842861E+03 0.  0.
         23    2    4    4    0    0 -0.20384233778E+03  0.16330242976E+03 -0.25875218366E+03  0.37941154511E+03  0.93707234406E+02 0.  0.
         23    2    4    4    0    0  0.25052977328E+03  0.41400961581E+03  0.71820468891E+01  0.49241169912E+03  0.90821640294E+02 0.  0.
          2    1    3    3  502    0 -0.72076971643E+02 -0.48089840846E+03  0.86797035982E+03  0.99490246488E+03  0.00000000000E+00 0. -1.
         -2    1    3    3    0  502  0.25389536142E+02 -0.96413637110E+02  0.16964207293E+03  0.19677055388E+03  0.00000000000E+00 0.  1.
         15    1    5    5    0    0 -0.18084114195E+03  0.13376476908E+03 -0.25749497576E+03  0.34191132234E+03  0.17770000000E+01 0.  1.
        -15    1    5    5    0    0 -0.23001195830E+02  0.29537660675E+02 -0.12572078998E+01  0.37500222779E+02  0.17770000000E+01 0. -1.
          2    1    6    6  503    0  0.14530109372E+03  0.16635860067E+03 -0.20922578725E+02  0.22186785741E+03  0.00000000000E+00 0. -1.
         -2    1    6    6    0  503  0.10522867957E+03  0.24765101515E+03  0.28104625614E+02  0.27054384171E+03  0.00000000000E+00 0.  1.
<mgrwt>
<rscale>  0 0.66917631E+03</rscale>
<asrwt>0</asrwt>
<pdfrwt beam="1">  1        2 0.21919527E+00 0.66917631E+03</pdfrwt>
<pdfrwt beam="2">  1       -2 0.98265690E-01 0.66917631E+03</pdfrwt>
<totfact> 0.12473989E+01</totfact>
</mgrwt>
</event>
<event>
12    1  0.7781383E-008  0.1027493E+04  0.7818608E-02  0.9278894E-01
         -1   -1    0    0    0  501 -0.00000000000E+00  0.00000000000E+00  0.86509086349E+03  0.86509086349E+03  0.00000000000E+00 0.  1.
          1   -1    0    0  501    0  0.00000000000E+00 -0.00000000000E+00 -0.12555685675E+04  0.12555685675E+04  0.00000000000E+00 0. -1.
         23    2    1    2    0    0 -0.44455309697E+03  0.84348292101E+03 -0.17443197779E+03  0.97358698103E+03  0.91401316705E+02 0.  0.
    5000000    2    1    2    0    0  0.44455309697E+03 -0.84348292101E+03 -0.21604572627E+03  0.11470724500E+04  0.60000712967E+03 0.  0.
         23    2    4    4    0    0  0.46228043960E+02 -0.64164493475E+03 -0.23506888228E+03  0.69092804235E+03  0.90988603411E+02 0.  0.
         23    2    4    4    0    0  0.39832505301E+03 -0.20183798626E+03  0.19023156010E+02  0.45614440765E+03  0.91128588342E+02 0.  0.
          3    1    3    3  502    0 -0.23427406308E+02  0.99440072265E+02 -0.30364757330E+02  0.10657950003E+03  0.00000000000E+00 0. -1.
         -3    1    3    3    0  502 -0.42112569067E+03  0.74404284874E+03 -0.14406722046E+03  0.86700748100E+03  0.00000000000E+00 0.  1.
         15    1    5    5    0    0  0.66731494899E+02 -0.29601847932E+03 -0.10708422864E+03  0.32179220355E+03  0.17770000000E+01 0. -1.
        -15    1    5    5    0    0 -0.20503450939E+02 -0.34562645542E+03 -0.12798465364E+03  0.36913583880E+03  0.17770000000E+01 0.  1.
          1    1    6    6  503    0  0.12039076038E+03 -0.81058324966E+02 -0.32557813682E+02  0.14874272575E+03  0.00000000000E+00 0. -1.
         -1    1    6    6    0  503  0.27793429263E+03 -0.12077966129E+03  0.51580969693E+02  0.30740168190E+03  0.00000000000E+00 0.  1.
<mgrwt>
<rscale>  0 0.10274932E+04</rscale>
<asrwt>0</asrwt>
<pdfrwt beam="1">  1        1 0.19316440E+00 0.10274932E+04</pdfrwt>
<pdfrwt beam="2">  1       -1 0.13309090E+00 0.10274932E+04</pdfrwt>
<totfact> 0.46530053E+00</totfact>
</mgrwt>
</event>
<event>
12    1  0.7781383E-008  0.4082661E+03  0.7818608E-02  0.1040954E+00
          1   -1    0    0  501    0  0.00000000000E+00  0.00000000000E+00  0.81539965854E+03  0.81539965854E+03  0.00000000000E+00 0. -1.
         -1   -1    0    0    0  501 -0.00000000000E+00 -0.00000000000E+00 -0.30975845091E+03  0.30975845091E+03  0.00000000000E+00 0.  1.
         23    2    1    2    0    0  0.29022599841E+03 -0.58661334115E+02  0.28472257215E+03  0.42045835563E+03  0.89699517559E+02 0.  0.
    5000000    2    1    2    0    0 -0.29022599841E+03  0.58661334115E+02  0.22091863548E+03  0.70469975383E+03  0.60010367210E+03 0.  0.
         23    2    4    4    0    0 -0.49258916658E+02  0.20896964297E+03  0.31440903441E+03  0.39189034217E+03  0.92899121718E+02 0.  0.
         23    2    4    4    0    0 -0.24096708175E+03 -0.15030830886E+03 -0.93490398926E+02  0.31280941166E+03  0.91932318202E+02 0.  0.
          1    1    3    3  502    0  0.48992580899E+02 -0.23644248830E+02  0.14016995770E+02  0.56176504487E+02  0.00000000000E+00 0. -1.
         -1    1    3    3    0  502  0.24123341751E+03 -0.35017085285E+02  0.27070557638E+03  0.36428185114E+03  0.00000000000E+00 0.  1.
         15    1    5    5    0    0  0.27611023443E+02  0.66648587120E+02  0.98377316110E+02  0.12200679012E+03  0.17770000000E+01 0.  1.
        -15    1    5    5    0    0 -0.76869940101E+02  0.14232105585E+03  0.21603171830E+03  0.26988355205E+03  0.17770000000E+01 0. -1.
          4    1    6    6  503    0 -0.20158763540E+03 -0.11862034235E+03 -0.36661015085E+02  0.23675386035E+03  0.00000000000E+00 0. -1.
         -4    1    6    6    0  503 -0.39379446353E+02 -0.31687966510E+02 -0.56829383841E+02  0.76055551306E+02  0.00000000000E+00 0.  1.
<mgrwt>
<rscale>  0 0.40826608E+03</rscale>
<asrwt>0</asrwt>
<pdfrwt beam="1">  1        1 0.12544610E+00 0.40826608E+03</pdfrwt>
<pdfrwt beam="2">  1       -1 0.47655147E-01 0.40826608E+03</pdfrwt>
<totfact> 0.99452956E+01</totfact>
</mgrwt>
</event>
<event>
12    1  0.7781383E-008  0.5774136E+03  0.7818608E-02  0.9953406E-01
         -1   -1    0    0    0  501 -0.00000000000E+00  0.00000000000E+00  0.12024494661E+04  0.12024494661E+04  0.00000000000E+00 0.  1.
          1   -1    0    0  501    0  0.00000000000E+00 -0.00000000000E+00 -0.40557421841E+03  0.40557421841E+03  0.00000000000E+00 0. -1.
         23    2    1    2    0    0 -0.14528703381E+03  0.42824741933E+03 -0.66071292464E+02  0.46395501793E+03  0.79904121377E+02 0.  0.
    5000000    2    1    2    0    0  0.14528703381E+03 -0.42824741933E+03  0.86294654012E+03  0.11440686666E+04  0.59976012566E+03 0.  0.
         23    2    4    4    0    0  0.33846338135E+03 -0.33964908545E+03  0.72738193443E+03  0.87604993240E+03  0.91978496213E+02 0.  0.
         23    2    4    4    0    0 -0.19317634754E+03 -0.88598333886E+02  0.13556460569E+03  0.26801873415E+03  0.91046765587E+02 0.  0.
          4    1    3    3  502    0 -0.48590806367E+01  0.11599966713E+03 -0.52309336638E+01  0.11621917271E+03  0.00000000000E+00 0. -1.
         -4    1    3    3    0  502 -0.14042795317E+03  0.31224775220E+03 -0.60840358800E+02  0.34773584521E+03  0.00000000000E+00 0.  1.
         15    1    5    5    0    0  0.25155461029E+03 -0.27258679350E+03  0.61994401496E+03  0.72243824744E+03  0.17770000000E+01 0. -1.
        -15    1    5    5    0    0  0.86908771056E+02 -0.67062291943E+02  0.10743791947E+03  0.15361168496E+03  0.17770000000E+01 0.  1.
          3    1    6    6  503    0 -0.74301543168E+02 -0.53932053102E+02  0.10690565935E+03  0.14091914586E+03  0.00000000000E+00 0. -1.
         -3    1    6    6    0  503 -0.11887480437E+03 -0.34666280784E+02  0.28658946337E+02  0.12709958829E+03  0.00000000000E+00 0.  1.
<mgrwt>
<rscale>  0 0.57741356E+03</rscale>
<asrwt>0</asrwt>
<pdfrwt beam="1">  1        1 0.62396034E-01 0.57741356E+03</pdfrwt>
<pdfrwt beam="2">  1       -1 0.18499222E+00 0.57741356E+03</pdfrwt>
<totfact> 0.11901717E+01</totfact>
</mgrwt>
</event>
<event>
12    1  0.7781383E-008  0.1755444E+04  0.7818608E-02  0.8730360E-01
         -1   -1    0    0    0  501 -0.00000000000E+00  0.00000000000E+00  0.11955499422E+04  0.11955499422E+04  0.00000000000E+00 0.  1.
          1   -1    0    0  501    0  0.00000000000E+00 -0.00000000000E+00 -0.32967932520E+04  0.32967932520E+04  0.00000000000E+00 0. -1.
         23    2    1    2    0    0 -0.14788219979E+04 -0.86779113315E+03 -0.20511811868E+04  0.26750575222E+04  0.92803736661E+02 0.  0.
    5000000    2    1    2    0    0  0.14788219979E+04  0.86779113315E+03 -0.50062122973E+02  0.18172856720E+04  0.60003753645E+03 0.  0.
         23    2    4    4    0    0  0.10747812934E+04  0.88107458061E+03  0.38063915407E+02  0.13934285858E+04  0.93526021721E+02 0.  0.
         23    2    4    4    0    0  0.40404070445E+03 -0.13283447461E+02 -0.88126038379E+02  0.42385708616E+03  0.91996141334E+02 0.  0.
          1    1    3    3  502    0 -0.61737888681E+03 -0.31945823680E+03 -0.78942842777E+03  0.10518590673E+04  0.00000000000E+00 0. -1.
         -1    1    3    3    0  502 -0.86144311106E+03 -0.54833289635E+03 -0.12617527591E+04  0.16231984548E+04  0.00000000000E+00 0.  1.
         15    1    5    5    0    0  0.26498185416E+03  0.23811919043E+03  0.47278601449E+02  0.35938079494E+03  0.17770000000E+01 0. -1.
        -15    1    5    5    0    0  0.80979943926E+03  0.64295539018E+03 -0.92146860421E+01  0.10340477909E+04  0.17770000000E+01 0.  1.
          1    1    6    6  503    0  0.99409310778E+02  0.15713653636E+00 -0.63449446043E+02  0.11793247205E+03  0.00000000000E+00 0. -1.
         -1    1    6    6    0  503  0.30463139367E+03 -0.13440583998E+02 -0.24676592337E+02  0.30592461411E+03  0.00000000000E+00 0.  1.
<mgrwt>
<rscale>  0 0.17554437E+04</rscale>
<asrwt>0</asrwt>
<pdfrwt beam="1">  1        1 0.50719896E+00 0.17554437E+04</pdfrwt>
<pdfrwt beam="2">  1       -1 0.18393076E+00 0.17554437E+04</pdfrwt>
<totfact> 0.64505379E-02</totfact>
</mgrwt>
</event>
<event>
12    1  0.7781383E-008  0.7870203E+03  0.7818608E-02  0.9578997E-01
         -2   -1    0    0    0  501 -0.00000000000E+00  0.00000000000E+00  0.28222621495E+03  0.28222621495E+03  0.00000000000E+00 0. -1.
          2   -1    0    0  501    0  0.00000000000E+00 -0.00000000000E+00 -0.25274937679E+04  0.25274937679E+04  0.00000000000E+00 0.  1.
         23    2    1    2    0    0  0.47377761034E+03 -0.56025206535E+03 -0.10485062693E+04  0.12831001451E+04  0.92913856819E+02 0.  0.
    5000000    2    1    2    0    0 -0.47377761034E+03  0.56025206535E+03 -0.11967612836E+04  0.15266198377E+04  0.59998579833E+03 0.  0.
         23    2    4    4    0    0 -0.37285180090E+03  0.13854506488E+03 -0.91255185624E+03  0.99956974000E+03  0.90418882707E+02 0.  0.
         23    2    4    4    0    0 -0.10092580945E+03  0.42170700047E+03 -0.28420942734E+03  0.52705009771E+03  0.94783931382E+02 0.  0.
          1    1    3    3  502    0  0.25111607021E+02 -0.10481517166E+02 -0.63679786692E+02  0.69250055902E+02  0.00000000000E+00 0. -1.
         -1    1    3    3    0  502  0.44866600332E+03 -0.54977054818E+03 -0.98482648263E+03  0.12138500892E+04  0.00000000000E+00 0.  1.
         15    1    5    5    0    0 -0.12708542149E+03  0.78079257774E+02 -0.26152572857E+03  0.30107464071E+03  0.17770000000E+01 0. -1.
        -15    1    5    5    0    0 -0.24576637941E+03  0.60465807106E+02 -0.65102612768E+03  0.69849509928E+03  0.17770000000E+01 0.  1.
          4    1    6    6  503    0 -0.71744812100E+02  0.22695632310E+03 -0.20729215340E+03  0.31563670179E+03  0.00000000000E+00 0. -1.
         -4    1    6    6    0  503 -0.29180997350E+02  0.19475067737E+03 -0.76917273944E+02  0.21141339592E+03  0.00000000000E+00 0.  1.
<mgrwt>
<rscale>  0 0.78702035E+03</rscale>
<asrwt>0</asrwt>
<pdfrwt beam="1">  1        2 0.38884519E+00 0.78702035E+03</pdfrwt>
<pdfrwt beam="2">  1       -2 0.43419418E-01 0.78702035E+03</pdfrwt>
<totfact> 0.17572229E+01</totfact>
</mgrwt>
</event>
<event>
12    1  0.7781383E-008  0.6961363E+03  0.7818608E-02  0.9723863E-01
          2   -1    0    0  501    0  0.00000000000E+00  0.00000000000E+00  0.10588863718E+04  0.10588863718E+04  0.00000000000E+00 0.  1.
         -2   -1    0    0    0  501 -0.00000000000E+00 -0.00000000000E+00 -0.56630253930E+03  0.56630253930E+03  0.00000000000E+00 0. -1.
         23    2    1    2    0    0  0.37586454525E+03  0.45340287272E+03 -0.88488147719E+02  0.60303123380E+03  0.94700555876E+02 0.  0.
    5000000    2    1    2    0    0 -0.37586454525E+03 -0.45340287272E+03  0.58107198027E+03  0.10221576773E+04  0.60026106798E+03 0.  0.
         23    2    4    4    0    0 -0.13060937032E+02 -0.42207754120E+03  0.16468001671E+03  0.46159569505E+03  0.87355817914E+02 0.  0.
         23    2    4    4    0    0 -0.36280360822E+03 -0.31325331516E+02  0.41639196356E+03  0.56056198229E+03  0.90772981349E+02 0.  0.
          1    1    3    3  502    0  0.20758215364E+03  0.28166577684E+03 -0.97687018217E+01  0.35003055279E+03  0.00000000000E+00 0. -1.
         -1    1    3    3    0  502  0.16828239161E+03  0.17173709588E+03 -0.78719445897E+02  0.25300068101E+03  0.00000000000E+00 0.  1.
         15    1    5    5    0    0 -0.37308669803E+02 -0.28275986113E+03  0.14113730989E+03  0.31822629351E+03  0.17770000000E+01 0.  1.
        -15    1    5    5    0    0  0.24247732771E+02 -0.13931768007E+03  0.23542706822E+02  0.14336940154E+03  0.17770000000E+01 0. -1.
          3    1    6    6  503    0 -0.29585003166E+03 -0.60980576470E+02  0.33525490823E+03  0.45126680072E+03  0.00000000000E+00 0. -1.
         -3    1    6    6    0  503 -0.66953576563E+02  0.29655244954E+02  0.81137055326E+02  0.10929518157E+03  0.00000000000E+00 0.  1.
<mgrwt>
<rscale>  0 0.69613625E+03</rscale>
<asrwt>0</asrwt>
<pdfrwt beam="1">  1        2 0.16290560E+00 0.69613625E+03</pdfrwt>
<pdfrwt beam="2">  1       -2 0.87123468E-01 0.69613625E+03</pdfrwt>
<totfact> 0.26915015E+01</totfact>
</mgrwt>
</event>
<event>
12    1  0.7781383E-008  0.4029066E+03  0.7818608E-02  0.1042778E+00
         -1   -1    0    0    0  501 -0.00000000000E+00  0.00000000000E+00  0.27416841440E+03  0.27416841440E+03  0.00000000000E+00 0.  1.
          1   -1    0    0  501    0  0.00000000000E+00 -0.00000000000E+00 -0.21200931648E+04  0.21200931648E+04  0.00000000000E+00 0. -1.
         23    2    1    2    0    0 -0.23520853526E+03  0.22250923015E+02 -0.17182445821E+04  0.17367809456E+04  0.90694268271E+02 0.  0.
    5000000    2    1    2    0    0  0.23520853526E+03 -0.22250923015E+02 -0.12768016827E+03  0.65748063361E+03  0.60013365142E+03 0.  0.
         23    2    4    4    0    0 -0.60798895597E+02 -0.19440774511E+03  0.91108764961E+02  0.24073129020E+03  0.90331998569E+02 0.  0.
         23    2    4    4    0    0  0.29600743086E+03  0.17215682209E+03 -0.21878893324E+03  0.41674934341E+03  0.92482687086E+02 0.  0.
          3    1    3    3  502    0 -0.12914258856E+03  0.27801994714E+02 -0.12325500962E+04  0.12396090105E+04  0.00000000000E+00 0. -1.
         -3    1    3    3    0  502 -0.10606594670E+03 -0.55510716983E+01 -0.48569448591E+03  0.49717193514E+03  0.00000000000E+00 0.  1.
         15    1    5    5    0    0 -0.78141982820E+02 -0.10084333778E+03  0.54980544767E+02  0.13893007697E+03  0.17770000000E+01 0.  1.
        -15    1    5    5    0    0  0.17343087223E+02 -0.93564407326E+02  0.36128220194E+02  0.10180121323E+03  0.17770000000E+01 0. -1.
          4    1    6    6  503    0  0.13868017964E+03  0.57814203539E+02 -0.47480541728E+02  0.15757244746E+03  0.00000000000E+00 0. -1.
         -4    1    6    6    0  503  0.15732725122E+03  0.11434261855E+03 -0.17130839151E+03  0.25917689595E+03  0.00000000000E+00 0.  1.
<mgrwt>
<rscale>  0 0.40290664E+03</rscale>
<asrwt>0</asrwt>
<pdfrwt beam="1">  1        1 0.32616818E+00 0.40290664E+03</pdfrwt>
<pdfrwt beam="2">  1       -1 0.42179756E-01 0.40290664E+03</pdfrwt>
<totfact> 0.15308656E+01</totfact>
</mgrwt>
</event>
<event>
12    1  0.7781383E-008  0.1064026E+04  0.7818608E-02  0.9240981E-01
         -1   -1    0    0    0  501 -0.00000000000E+00  0.00000000000E+00  0.96465084865E+03  0.96465084865E+03  0.00000000000E+00 0.  1.
          1   -1    0    0  501    0  0.00000000000E+00 -0.00000000000E+00 -0.13757692050E+04  0.13757692050E+04  0.00000000000E+00 0. -1.
         23    2    1    2    0    0  0.97845210992E+03  0.32921184129E+03  0.10125371122E+03  0.10411675507E+04  0.89602381082E+02 0.  0.
    5000000    2    1    2    0    0 -0.97845210992E+03 -0.32921184129E+03 -0.51237206760E+03  0.12992525030E+04  0.59981910863E+03 0.  0.
         23    2    4    4    0    0 -0.55075394517E+03 -0.36229298557E+03 -0.54563250067E+03  0.86061372658E+03  0.91405935704E+02 0.  0.
         23    2    4    4    0    0 -0.42769816474E+03  0.33081144277E+02  0.33260433069E+02  0.43863877642E+03  0.85309070715E+02 0.  0.
          3    1    3    3  502    0  0.59744373912E+03  0.21619843594E+03  0.20856554413E+02  0.63570101540E+03  0.00000000000E+00 0. -1.
         -3    1    3    3    0  502  0.38100837080E+03  0.11301340535E+03  0.80397156810E+02  0.40546653528E+03  0.00000000000E+00 0.  1.
         15    1    5    5    0    0 -0.28916050048E+03 -0.14022854062E+03 -0.28773083108E+03  0.43135835164E+03  0.17770000000E+01 0. -1.
        -15    1    5    5    0    0 -0.26159344469E+03 -0.22206444495E+03 -0.25790166959E+03  0.42925537495E+03  0.17770000000E+01 0.  1.
          1    1    6    6  503    0 -0.28053719740E+03  0.29747335397E+01 -0.14759036390E+02  0.28094091428E+03  0.00000000000E+00 0. -1.
         -1    1    6    6    0  503 -0.14716096734E+03  0.30106410737E+02  0.48019469459E+02  0.15769786214E+03  0.00000000000E+00 0.  1.
<mgrwt>
<rscale>  0 0.10640265E+04</rscale>
<asrwt>0</asrwt>
<pdfrwt beam="1">  1        1 0.21165680E+00 0.10640265E+04</pdfrwt>
<pdfrwt beam="2">  1       -1 0.14840782E+00 0.10640265E+04</pdfrwt>
<totfact> 0.28590457E+00</totfact>
</mgrwt>
</event>
<event>
12    1  0.7781383E-008  0.1172981E+04  0.7818608E-02  0.9136841E-01
         -1   -1    0    0    0  501 -0.00000000000E+00  0.00000000000E+00  0.59339663282E+03  0.59339663282E+03  0.00000000000E+00 0.  1.
          1   -1    0    0  501    0  0.00000000000E+00 -0.00000000000E+00 -0.25897218814E+04  0.25897218814E+04  0.00000000000E+00 0. -1.
         23    2    1    2    0    0 -0.48332895801E+02  0.10993703641E+04 -0.14319499811E+04  0.18085652570E+04  0.97346157213E+02 0.  0.
    5000000    2    1    2    0    0  0.48332895801E+02 -0.10993703641E+04 -0.56437526744E+03  0.13745532572E+04  0.59993828686E+03 0.  0.
         23    2    4    4    0    0 -0.90731601670E+02  0.11598152837E+02 -0.70309934492E+02  0.14711859096E+03  0.91288839547E+02 0.  0.
         23    2    4    4    0    0  0.13906449747E+03 -0.11109685169E+04 -0.49406533295E+03  0.12274346662E+04  0.94368037757E+02 0.  0.
          1    1    3    3  502    0  0.28504294747E+00  0.86811213139E+03 -0.11079313926E+04  0.14075264561E+04  0.00000000000E+00 0. -1.
         -1    1    3    3    0  502 -0.48617938748E+02  0.23125823268E+03 -0.32401858852E+03  0.40103880094E+03  0.00000000000E+00 0.  1.
         15    1    5    5    0    0 -0.50543552626E+02 -0.31057465025E+02 -0.53178004371E+01  0.59587360877E+02  0.17770000000E+01 0.  1.
        -15    1    5    5    0    0 -0.40188049044E+02  0.42655617862E+02 -0.64992134055E+02  0.87531230079E+02  0.17770000000E+01 0. -1.
          3    1    6    6  503    0  0.57082315193E+02 -0.79755173282E+03 -0.35708101831E+03  0.87570201031E+03  0.00000000000E+00 0. -1.
         -3    1    6    6    0  503  0.81982182277E+02 -0.31341678409E+03 -0.13698431464E+03  0.35173265589E+03  0.00000000000E+00 0.  1.
<mgrwt>
<rscale>  0 0.11729805E+04</rscale>
<asrwt>0</asrwt>
<pdfrwt beam="1">  1        1 0.39841874E+00 0.11729805E+04</pdfrwt>
<pdfrwt beam="2">  1       -1 0.91291792E-01 0.11729805E+04</pdfrwt>
<totfact> 0.13666682E+00</totfact>
</mgrwt>
</event>
<event>
12    1  0.7781383E-008  0.8851712E+03  0.7818608E-02  0.9444310E-01
          2   -1    0    0  501    0  0.00000000000E+00  0.00000000000E+00  0.12314507042E+04  0.12314507042E+04  0.00000000000E+00 0. -1.
         -2   -1    0    0    0  501 -0.00000000000E+00 -0.00000000000E+00 -0.68159407652E+03  0.68159407652E+03  0.00000000000E+00 0.  1.
         23    2    1    2    0    0 -0.72685212573E+03 -0.33564297675E+03  0.40320292256E+03  0.90163919124E+03  0.97007287811E+02 0.  0.
    5000000    2    1    2    0    0  0.72685212573E+03  0.33564297675E+03  0.14665370510E+03  0.10114055895E+04  0.60038632282E+03 0.  0.
         23    2    4    4    0    0  0.41991505094E+03 -0.99948437078E+02 -0.29691136562E+02  0.44204481498E+03  0.90574360502E+02 0.  0.
         23    2    4    4    0    0  0.30693707479E+03  0.43559141383E+03  0.17634484166E+03  0.56936077447E+03  0.95519320774E+02 0.  0.
          1    1    3    3  502    0 -0.23761333625E+03 -0.15291154558E+03  0.11430059967E+03  0.30480594715E+03  0.00000000000E+00 0. -1.
         -1    1    3    3    0  502 -0.48923878949E+03 -0.18273143118E+03  0.28890232288E+03  0.59683324409E+03  0.00000000000E+00 0.  1.
         15    1    5    5    0    0  0.22220151443E+03 -0.59968014042E+02 -0.60513458617E+02  0.23798048686E+03  0.17770000000E+01 0. -1.
        -15    1    5    5    0    0  0.19771353651E+03 -0.39980423036E+02  0.30822322055E+02  0.20406432813E+03  0.17770000000E+01 0.  1.
          3    1    6    6  503    0  0.13336453449E+03  0.16480252244E+03  0.11747016244E+03  0.24237411068E+03  0.00000000000E+00 0. -1.
         -3    1    6    6    0  503  0.17357254030E+03  0.27078889139E+03  0.58874679222E+02  0.32698666379E+03  0.00000000000E+00 0.  1.
<mgrwt>
<rscale>  0 0.88517123E+03</rscale>
<asrwt>0</asrwt>
<pdfrwt beam="1">  1        2 0.18945396E+00 0.88517123E+03</pdfrwt>
<pdfrwt beam="2">  1       -2 0.10486063E+00 0.88517123E+03</pdfrwt>
<totfact> 0.13441629E+01</totfact>
</mgrwt>
</event>
<event>
12    1  0.7781383E-008  0.8973386E+03  0.7818608E-02  0.9428914E-01
         -1   -1    0    0    0  501 -0.00000000000E+00  0.00000000000E+00  0.21752420508E+03  0.21752420508E+03  0.00000000000E+00 0.  1.
          1   -1    0    0  501    0  0.00000000000E+00 -0.00000000000E+00 -0.38279563630E+04  0.38279563630E+04  0.00000000000E+00 0. -1.
         23    2    1    2    0    0 -0.19697767378E+03 -0.78413361775E+03 -0.14757480982E+04  0.16852663398E+04  0.92867928684E+02 0.  0.
    5000000    2    1    2    0    0  0.19697767378E+03  0.78413361775E+03 -0.21346840597E+04  0.23602142283E+04  0.60005785908E+03 0.  0.
         23    2    4    4    0    0 -0.16774737697E+03  0.80855965201E+02 -0.51047413189E+03  0.55080919456E+03  0.90166844750E+02 0.  0.
         23    2    4    4    0    0  0.36472505075E+03  0.70327765255E+03 -0.16242099278E+04  0.18094050338E+04  0.90911315552E+02 0.  0.
          3    1    3    3  502    0 -0.10267462873E+03 -0.47113463613E+03 -0.78888100181E+03  0.92457728707E+03  0.00000000000E+00 0. -1.
         -3    1    3    3    0  502 -0.94303045050E+02 -0.31299898162E+03 -0.68686709641E+03  0.76068905272E+03  0.00000000000E+00 0.  1.
         15    1    5    5    0    0 -0.11425061915E+03  0.34679683555E+02 -0.41609799847E+03  0.43289327378E+03  0.17770000000E+01 0.  1.
        -15    1    5    5    0    0 -0.53496757820E+02  0.46176281646E+02 -0.94376133427E+02  0.11791592078E+03  0.17770000000E+01 0. -1.
          1    1    6    6  503    0 -0.39487034019E+00  0.26460404243E+02 -0.34720911789E+02  0.43656049188E+02  0.00000000000E+00 0. -1.
         -1    1    6    6    0  503  0.36511992109E+03  0.67681724830E+03 -0.15894890160E+04  0.17657489846E+04  0.00000000000E+00 0.  1.
<mgrwt>
<rscale>  0 0.89733864E+03</rscale>
<asrwt>0</asrwt>
<pdfrwt beam="1">  1        1 0.58891636E+00 0.89733864E+03</pdfrwt>
<pdfrwt beam="2">  1       -1 0.33465262E-01 0.89733864E+03</pdfrwt>
<totfact> 0.12100341E+00</totfact>
</mgrwt>
</event>
<event>
12    1  0.7781383E-008  0.5563433E+03  0.7818608E-02  0.1000036E+00
         -2   -1    0    0    0  501 -0.00000000000E+00  0.00000000000E+00  0.17245088938E+03  0.17245088938E+03  0.00000000000E+00 0.  1.
          2   -1    0    0  501    0  0.00000000000E+00 -0.00000000000E+00 -0.27680010336E+04  0.27680010336E+04  0.00000000000E+00 0. -1.
         23    2    1    2    0    0  0.20988473985E+03 -0.38062649322E+03 -0.32036655066E+03  0.54766550908E+03  0.91513123029E+02 0.  0.
    5000000    2    1    2    0    0 -0.20988473985E+03  0.38062649322E+03 -0.22751835936E+04  0.23927864139E+04  0.60003192149E+03 0.  0.
         23    2    4    4    0    0  0.44678391753E+02  0.39368983311E+03 -0.18071159806E+04  0.18519565833E+04  0.84185364899E+02 0.  0.
         23    2    4    4    0    0 -0.25456313161E+03 -0.13063339893E+02 -0.46806761296E+03  0.54082983062E+03  0.91850838646E+02 0.  0.
          2    1    3    3  502    0  0.19288333918E+03 -0.27166858693E+03 -0.25403620958E+03  0.41897756436E+03  0.00000000000E+00 0. -1.
         -2    1    3    3    0  502  0.17001400671E+02 -0.10895790629E+03 -0.66330341087E+02  0.12868794472E+03  0.00000000000E+00 0.  1.
         15    1    5    5    0    0  0.61366326598E+02  0.17556086871E+03 -0.79480195307E+03  0.81627247105E+03  0.17770000000E+01 0.  1.
        -15    1    5    5    0    0 -0.16687934844E+02  0.21812896440E+03 -0.10123140275E+04  0.10356841122E+04  0.17770000000E+01 0. -1.
          1    1    6    6  503    0 -0.17748390161E+03 -0.41576854888E+02 -0.37302025379E+03  0.41517861208E+03  0.00000000000E+00 0. -1.
         -1    1    6    6    0  503 -0.77079229994E+02  0.28513514994E+02 -0.95047359176E+02  0.12565121854E+03  0.00000000000E+00 0.  1.
<mgrwt>
<rscale>  0 0.55634330E+03</rscale>
<asrwt>0</asrwt>
<pdfrwt beam="1">  1        2 0.42584629E+00 0.55634330E+03</pdfrwt>
<pdfrwt beam="2">  1       -2 0.26530908E-01 0.55634330E+03</pdfrwt>
<totfact> 0.33771210E+01</totfact>
</mgrwt>
</event>
<event>
12    1  0.7781383E-008  0.5779529E+03  0.7818608E-02  0.9952233E-01
          2   -1    0    0  501    0  0.00000000000E+00  0.00000000000E+00  0.13446965253E+04  0.13446965253E+04  0.00000000000E+00 0. -1.
         -2   -1    0    0    0  501 -0.00000000000E+00 -0.00000000000E+00 -0.40865537162E+03  0.40865537162E+03  0.00000000000E+00 0.  1.
         23    2    1    2    0    0 -0.56055749735E+03 -0.91891821903E+02  0.67535887528E+03  0.88706464753E+03  0.90029238069E+02 0.  0.
    5000000    2    1    2    0    0  0.56055749735E+03  0.91891821903E+02  0.26068227837E+03  0.86628724936E+03  0.59985792766E+03 0.  0.
         23    2    4    4    0    0  0.33000820813E+03  0.27308462107E+02  0.43558452802E+03  0.55477770270E+03  0.91614675822E+02 0.  0.
         23    2    4    4    0    0  0.23054928923E+03  0.64583359795E+02 -0.17490224965E+03  0.31150954666E+03  0.95516572410E+02 0.  0.
          3    1    3    3  502    0 -0.25405264514E+03 -0.26204443187E+02  0.36891093215E+03  0.44869220542E+03  0.00000000000E+00 0. -1.
         -3    1    3    3    0  502 -0.30650485221E+03 -0.65687378716E+02  0.30644794313E+03  0.43837244211E+03  0.00000000000E+00 0.  1.
         15    1    5    5    0    0  0.30238705299E+03 -0.17981672916E+01  0.39728083529E+03  0.49927585865E+03  0.17770000000E+01 0. -1.
        -15    1    5    5    0    0  0.27621155142E+02  0.29106629399E+02  0.38303692735E+02  0.55501844046E+02  0.17770000000E+01 0.  1.
          2    1    6    6  503    0  0.89308312310E+02  0.33204475537E+00 -0.11399954708E+03  0.14481706266E+03  0.00000000000E+00 0. -1.
         -2    1    6    6    0  503  0.14124097692E+03  0.64251315040E+02 -0.60902702568E+02  0.16669248401E+03  0.00000000000E+00 0.  1.
<mgrwt>
<rscale>  0 0.57795289E+03</rscale>
<asrwt>0</asrwt>
<pdfrwt beam="1">  1        2 0.20687639E+00 0.57795289E+03</pdfrwt>
<pdfrwt beam="2">  1       -2 0.62870058E-01 0.57795289E+03</pdfrwt>
<totfact> 0.38030806E+01</totfact>
</mgrwt>
</event>
<event>
12    1  0.7781383E-008  0.4935020E+03  0.7818608E-02  0.1015489E+00
         -2   -1    0    0    0  501 -0.00000000000E+00  0.00000000000E+00  0.54162036786E+03  0.54162036786E+03  0.00000000000E+00 0. -1.
          2   -1    0    0  501    0  0.00000000000E+00 -0.00000000000E+00 -0.73438683170E+03  0.73438683170E+03  0.00000000000E+00 0.  1.
         23    2    1    2    0    0  0.29324936614E+03  0.28664527239E+03 -0.33250485394E+03  0.53583033503E+03  0.91618595952E+02 0.  0.
    5000000    2    1    2    0    0 -0.29324936614E+03 -0.28664527239E+03  0.13973839010E+03  0.74017686452E+03  0.60014520758E+03 0.  0.
         23    2    4    4    0    0  0.32013458891E+02 -0.20255641545E+03 -0.16306724236E+03  0.27894434012E+03  0.95734300860E+02 0.  0.
         23    2    4    4    0    0 -0.32526282503E+03 -0.84088856940E+02  0.30280563247E+03  0.46123252441E+03  0.90428697381E+02 0.  0.
          1    1    3    3  502    0  0.23219422947E+03  0.17413963572E+03 -0.20642506225E+03  0.35616018763E+03  0.00000000000E+00 0. -1.
         -1    1    3    3    0  502  0.61055136671E+02  0.11250563666E+03 -0.12607979169E+03  0.17967014740E+03  0.00000000000E+00 0.  1.
         15    1    5    5    0    0 -0.27375301820E+02 -0.81556732687E+02 -0.94154693316E+02  0.12755066365E+03  0.17770000000E+01 0. -1.
        -15    1    5    5    0    0  0.59388760712E+02 -0.12099968276E+03 -0.68912549049E+02  0.15139367646E+03  0.17770000000E+01 0.  1.
          3    1    6    6  503    0 -0.22175704980E+03 -0.12591581182E+02  0.19274915189E+03  0.29408667533E+03  0.00000000000E+00 0. -1.
         -3    1    6    6    0  503 -0.10350577523E+03 -0.71497275758E+02  0.11005648058E+03  0.16714584908E+03  0.00000000000E+00 0.  1.
<mgrwt>
<rscale>  0 0.49350204E+03</rscale>
<asrwt>0</asrwt>
<pdfrwt beam="1">  1        2 0.11298259E+00 0.49350204E+03</pdfrwt>
<pdfrwt beam="2">  1       -2 0.83326211E-01 0.49350204E+03</pdfrwt>
<totfact> 0.50415832E+01</totfact>
</mgrwt>
</event>
<event>
12    1  0.7781383E-008  0.7268171E+03  0.7818608E-02  0.9672439E-01
          2   -1    0    0  501    0  0.00000000000E+00  0.00000000000E+00  0.15704371845E+04  0.15704371845E+04  0.00000000000E+00 0. -1.
         -2   -1    0    0    0  501 -0.00000000000E+00 -0.00000000000E+00 -0.35150568758E+03  0.35150568758E+03  0.00000000000E+00 0.  1.
         23    2    1    2    0    0 -0.23426957031E+03  0.56622779210E+03  0.40828116546E+03  0.74183750935E+03  0.90184455987E+02 0.  0.
    5000000    2    1    2    0    0  0.23426957031E+03 -0.56622779210E+03  0.81065033151E+03  0.11801053628E+04  0.59999880262E+03 0.  0.
         23    2    4    4    0    0  0.41631833855E+03 -0.35920090805E+03  0.62873862145E+03  0.84000072249E+03  0.89121873389E+02 0.  0.
         23    2    4    4    0    0 -0.18204876824E+03 -0.20702688405E+03  0.18191171006E+03  0.34010464028E+03  0.81101241361E+02 0.  0.
          4    1    3    3  502    0 -0.14055114921E+02  0.27745394818E+02  0.81747765794E-02  0.31102303063E+02  0.00000000000E+00 0. -1.
         -4    1    3    3    0  502 -0.22021445539E+03  0.53848239728E+03  0.40827299068E+03  0.71073520629E+03  0.00000000000E+00 0.  1.
         15    1    5    5    0    0  0.23396410384E+03 -0.14306446340E+03  0.30938029916E+03  0.41343194096E+03  0.17770000000E+01 0.  1.
        -15    1    5    5    0    0  0.18235423471E+03 -0.21613644465E+03  0.31935832229E+03  0.42656878152E+03  0.17770000000E+01 0. -1.
          1    1    6    6  503    0 -0.15762849895E+03 -0.20585833916E+03  0.17989485349E+03  0.31557337941E+03  0.00000000000E+00 0. -1.
         -1    1    6    6    0  503 -0.24420269294E+02 -0.11685448899E+01  0.20168565656E+01  0.24531260871E+02  0.00000000000E+00 0.  1.
<mgrwt>
<rscale>  0 0.72681710E+03</rscale>
<asrwt>0</asrwt>
<pdfrwt beam="1">  1        2 0.24160572E+00 0.72681710E+03</pdfrwt>
<pdfrwt beam="2">  1       -2 0.54077799E-01 0.72681710E+03</pdfrwt>
<totfact> 0.38295069E+01</totfact>
</mgrwt>
</event>
<event>
12    1  0.7781383E-008  0.7680627E+03  0.7818608E-02  0.9607431E-01
          2   -1    0    0  501    0  0.00000000000E+00  0.00000000000E+00  0.94201503484E+03  0.94201503484E+03  0.00000000000E+00 0. -1.
         -2   -1    0    0    0  501 -0.00000000000E+00 -0.00000000000E+00 -0.78461077987E+03  0.78461077987E+03  0.00000000000E+00 0.  1.
         23    2    1    2    0    0 -0.46543132869E+03 -0.58871636091E+03  0.25488161311E+02  0.75653215888E+03  0.92075978003E+02 0.  0.
    5000000    2    1    2    0    0  0.46543132869E+03  0.58871636091E+03  0.13191609366E+03  0.97009365582E+03  0.60038868242E+03 0.  0.
         23    2    4    4    0    0  0.37522125073E+03  0.48075869609E+03 -0.15667868547E+03  0.63630180961E+03  0.91716255811E+02 0.  0.
         23    2    4    4    0    0  0.90210077960E+02  0.10795766483E+03  0.28859477912E+03  0.33379184621E+03  0.91309005575E+02 0.  0.
          3    1    3    3  502    0 -0.26678236824E+03 -0.39779578071E+03 -0.75892230221E+01  0.47903226558E+03  0.00000000000E+00 0. -1.
         -3    1    3    3    0  502 -0.19864896044E+03 -0.19092058020E+03  0.33077384334E+02  0.27749989331E+03  0.00000000000E+00 0.  1.
         15    1    5    5    0    0  0.29590565997E+03  0.32114548113E+03 -0.89154706707E+02  0.44569754219E+03  0.17770000000E+01 0.  1.
        -15    1    5    5    0    0  0.79315590753E+02  0.15961321496E+03 -0.67523978759E+02  0.19060426743E+03  0.17770000000E+01 0. -1.
          3    1    6    6  503    0  0.67194237080E+02  0.12298523663E+02  0.13666319800E+03  0.15278464866E+03  0.00000000000E+00 0. -1.
         -3    1    6    6    0  503  0.23015840880E+02  0.95659141165E+02  0.15193158113E+03  0.18100719755E+03  0.00000000000E+00 0.  1.
<mgrwt>
<rscale>  0 0.76806271E+03</rscale>
<asrwt>0</asrwt>
<pdfrwt beam="1">  1        2 0.14492539E+00 0.76806271E+03</pdfrwt>
<pdfrwt beam="2">  1       -2 0.12070935E+00 0.76806271E+03</pdfrwt>
<totfact> 0.14585559E+01</totfact>
</mgrwt>
</event>
<event>
12    1  0.7781383E-008  0.8100623E+03  0.7818608E-02  0.9545565E-01
          1   -1    0    0  501    0  0.00000000000E+00  0.00000000000E+00  0.11880674534E+04  0.11880674534E+04  0.00000000000E+00 0. -1.
         -1   -1    0    0    0  501 -0.00000000000E+00 -0.00000000000E+00 -0.74788533397E+03  0.74788533397E+03  0.00000000000E+00 0.  1.
         23    2    1    2    0    0 -0.74043375706E+03 -0.10055990119E+03  0.60250198726E+03  0.96437867400E+03  0.93075989914E+02 0.  0.
    5000000    2    1    2    0    0  0.74043375706E+03  0.10055990119E+03 -0.16231986787E+03  0.97157411333E+03  0.59937807423E+03 0.  0.
         23    2    4    4    0    0  0.46233809684E+03  0.26284859200E+03  0.96915116966E+02  0.54818974668E+03  0.90959113692E+02 0.  0.
         23    2    4    4    0    0  0.27809566022E+03 -0.16228869081E+03 -0.25923498483E+03  0.42338436665E+03  0.91524473038E+02 0.  0.
          4    1    3    3  502    0 -0.25874434423E+03 -0.72693087793E+02  0.24743767843E+03  0.36531948400E+03  0.00000000000E+00 0. -1.
         -4    1    3    3    0  502 -0.48168941283E+03 -0.27866813397E+02  0.35506430883E+03  0.59905919000E+03  0.00000000000E+00 0.  1.
         15    1    5    5    0    0  0.27751747099E+03  0.10902863046E+03  0.37721175841E+02  0.30054822209E+03  0.17770000000E+01 0. -1.
        -15    1    5    5    0    0  0.18482062585E+03  0.15381996154E+03  0.59193941125E+02  0.24764152460E+03  0.17770000000E+01 0.  1.
          1    1    6    6  503    0  0.24942877503E+03 -0.11438210239E+03 -0.23933762918E+03  0.36411602533E+03  0.00000000000E+00 0. -1.
         -1    1    6    6    0  503  0.28666885188E+02 -0.47906588424E+02 -0.19897355648E+02  0.59268341318E+02  0.00000000000E+00 0.  1.
<mgrwt>
<rscale>  0 0.81006229E+03</rscale>
<asrwt>0</asrwt>
<pdfrwt beam="1">  1        1 0.18277961E+00 0.81006229E+03</pdfrwt>
<pdfrwt beam="2">  1       -1 0.11505928E+00 0.81006229E+03</pdfrwt>
<totfact> 0.76761464E+00</totfact>
</mgrwt>
</event>
<event>
12    1  0.7781383E-008  0.9966419E+03  0.7818608E-02  0.9312236E-01
          2   -1    0    0  501    0  0.00000000000E+00  0.00000000000E+00  0.44462269480E+03  0.44462269480E+03  0.00000000000E+00 0. -1.
         -2   -1    0    0    0  501 -0.00000000000E+00 -0.00000000000E+00 -0.22993250235E+04  0.22993250235E+04  0.00000000000E+00 0.  1.
         23    2    1    2    0    0 -0.94655570161E+02 -0.90522958813E+03 -0.10263061746E+04  0.13747696948E+04  0.91033321689E+02 0.  0.
    5000000    2    1    2    0    0  0.94655570161E+02  0.90522958813E+03 -0.82839615412E+03  0.13691780235E+04  0.60000665630E+03 0.  0.
         23    2    4    4    0    0 -0.24192609415E+03  0.39040205322E+03 -0.37366500760E+03  0.59871181776E+03  0.88816128251E+02 0.  0.
         23    2    4    4    0    0  0.33658166431E+03  0.51482753491E+03 -0.45473114652E+03  0.77046620570E+03  0.92212532057E+02 0.  0.
          3    1    3    3  502    0  0.32826065324E+00 -0.37663758540E+03 -0.45505378289E+03  0.59070290656E+03  0.00000000000E+00 0.  1.
         -3    1    3    3    0  502 -0.94983830814E+02 -0.52859200272E+03 -0.57125239170E+03  0.78406678828E+03  0.00000000000E+00 0. -1.
         15    1    5    5    0    0 -0.10628137604E+02  0.54141989405E+01  0.31303762200E+01  0.12459046648E+02  0.17770000000E+01 0.  1.
        -15    1    5    5    0    0 -0.23129795654E+03  0.38498785428E+03 -0.37679538382E+03  0.58625277111E+03  0.17770000000E+01 0. -1.
          3    1    6    6  503    0  0.30653179285E+03  0.49556150060E+03 -0.40658490949E+03  0.71053094903E+03  0.00000000000E+00 0. -1.
         -3    1    6    6    0  503  0.30049871457E+02  0.19266034312E+02 -0.48146237029E+02  0.59935256675E+02  0.00000000000E+00 0.  1.
<mgrwt>
<rscale>  0 0.99664186E+03</rscale>
<asrwt>0</asrwt>
<pdfrwt beam="1">  1        2 0.68403492E-01 0.99664186E+03</pdfrwt>
<pdfrwt beam="2">  1       -2 0.35374231E+00 0.99664186E+03</pdfrwt>
<totfact> 0.10558240E+00</totfact>
</mgrwt>
</event>
<event>
12    1  0.7781383E-008  0.1291923E+04  0.7818608E-02  0.9035995E-01
          1   -1    0    0  501    0  0.00000000000E+00  0.00000000000E+00  0.11454962036E+04  0.11454962036E+04  0.00000000000E+00 0.  1.
         -1   -1    0    0    0  501 -0.00000000000E+00 -0.00000000000E+00 -0.16655669218E+04  0.16655669218E+04  0.00000000000E+00 0. -1.
         23    2    1    2    0    0  0.87687227498E+03  0.90940532275E+03 -0.61703784553E+03  0.14089908395E+04  0.92717071259E+02 0.  0.
    5000000    2    1    2    0    0 -0.87687227498E+03 -0.90940532275E+03  0.96967127274E+02  0.14020722859E+04  0.60040073579E+03 0.  0.
         23    2    4    4    0    0 -0.11888819837E+03 -0.34195871613E+03  0.23462914334E+03  0.44077193958E+03  0.90326632689E+02 0.  0.
         23    2    4    4    0    0 -0.75798407661E+03 -0.56744660662E+03 -0.13766201606E+03  0.96130034636E+03  0.92800934653E+02 0.  0.
          1    1    3    3  502    0  0.65510080601E+03  0.73476177161E+03 -0.47619611341E+03  0.10935239666E+04  0.00000000000E+00 0. -1.
         -1    1    3    3    0  502  0.22177146897E+03  0.17464355114E+03 -0.14084173212E+03  0.31546687292E+03  0.00000000000E+00 0.  1.
         15    1    5    5    0    0 -0.10006354264E+03 -0.19820516739E+03  0.17998565938E+03  0.28582511481E+03  0.17770000000E+01 0.  1.
        -15    1    5    5    0    0 -0.18824655727E+02 -0.14375354874E+03  0.54643483955E+02  0.15494682477E+03  0.17770000000E+01 0. -1.
          2    1    6    6  503    0 -0.84481236240E+02 -0.96825839136E+02 -0.35645784165E+02  0.13335270650E+03  0.00000000000E+00 0.  1.
         -2    1    6    6    0  503 -0.67350284037E+03 -0.47062076749E+03 -0.10201623190E+03  0.82794763986E+03  0.00000000000E+00 0. -1.
<mgrwt>
<rscale>  0 0.12919226E+04</rscale>
<asrwt>0</asrwt>
<pdfrwt beam="1">  1        1 0.17623019E+00 0.12919226E+04</pdfrwt>
<pdfrwt beam="2">  1       -1 0.25624106E+00 0.12919226E+04</pdfrwt>
<totfact> 0.72244880E-01</totfact>
</mgrwt>
</event>
<event>
12    1  0.7781383E-008  0.1505519E+04  0.7818608E-02  0.8880791E-01
          2   -1    0    0  501    0  0.00000000000E+00  0.00000000000E+00  0.12066856285E+04  0.12066856285E+04  0.00000000000E+00 0.  1.
         -2   -1    0    0    0  501 -0.00000000000E+00 -0.00000000000E+00 -0.22023595894E+04  0.22023595894E+04  0.00000000000E+00 0. -1.
         23    2    1    2    0    0  0.54769331923E+03  0.13896226764E+04 -0.99922241413E+03  0.17994118401E+04  0.91751745156E+02 0.  0.
    5000000    2    1    2    0    0 -0.54769331923E+03 -0.13896226764E+04  0.35484532648E+01  0.16096333778E+04  0.59990654674E+03 0.  0.
         23    2    4    4    0    0 -0.35373162067E+03 -0.66451619145E+03 -0.26902582335E+03  0.80557074077E+03  0.99305068266E+02 0.  0.
         23    2    4    4    0    0 -0.19396169856E+03 -0.72510648493E+03  0.27257427661E+03  0.80406263706E+03  0.93911836550E+02 0.  0.
          1    1    3    3  502    0  0.53869425644E+03  0.13168609556E+04 -0.95873453877E+03  0.17156591136E+04  0.00000000000E+00 0. -1.
         -1    1    3    3    0  502  0.89990627915E+01  0.72761720764E+02 -0.40487875365E+02  0.83752726470E+02  0.00000000000E+00 0.  1.
         15    1    5    5    0    0 -0.22282393737E+03 -0.51157262552E+03 -0.19789376293E+03  0.59204911737E+03  0.17770000000E+01 0. -1.
        -15    1    5    5    0    0 -0.13090768331E+03 -0.15294356594E+03 -0.71132060419E+02  0.21352162340E+03  0.17770000000E+01 0.  1.
          1    1    6    6  503    0 -0.94231277028E+01 -0.17755368404E+03  0.48269382695E+02  0.18423908205E+03  0.00000000000E+00 0. -1.
         -1    1    6    6    0  503 -0.18453857086E+03 -0.54755280090E+03  0.22430489392E+03  0.61982355500E+03  0.00000000000E+00 0.  1.
<mgrwt>
<rscale>  0 0.15055194E+04</rscale>
<asrwt>0</asrwt>
<pdfrwt beam="1">  1        2 0.18564394E+00 0.15055194E+04</pdfrwt>
<pdfrwt beam="2">  1       -2 0.33882455E+00 0.15055194E+04</pdfrwt>
<totfact> 0.32430692E-01</totfact>
</mgrwt>
</event>
<event>
12    1  0.7781383E-008  0.2492993E+04  0.7818608E-02  0.8405486E-01
          1   -1    0    0  501    0  0.00000000000E+00  0.00000000000E+00  0.31278358719E+04  0.31278358719E+04  0.00000000000E+00 0. -1.
         -1   -1    0    0    0  501 -0.00000000000E+00 -0.00000000000E+00 -0.20655649046E+04  0.20655649046E+04  0.00000000000E+00 0.  1.
         23    2    1    2    0    0 -0.17924769633E+04 -0.16908184308E+04  0.98768706250E+03  0.26562109305E+04  0.89945226554E+02 0.  0.
    5000000    2    1    2    0    0  0.17924769633E+04  0.16908184308E+04  0.74583904857E+02  0.25371898460E+04  0.59994076883E+03 0.  0.
         23    2    4    4    0    0  0.23776610020E+03  0.23560283786E+02  0.12367042947E+02  0.25481640257E+03  0.87696350490E+02 0.  0.
         23    2    4    4    0    0  0.15547108631E+04  0.16672581470E+04  0.62216861911E+02  0.22823734435E+04  0.92097779363E+02 0.  0.
          1    1    3    3  502    0 -0.10443488133E+04 -0.92384166131E+03  0.55948815084E+03  0.15023897130E+04  0.00000000000E+00 0. -1.
         -1    1    3    3    0  502 -0.74812815006E+03 -0.76697676945E+03  0.42819891166E+03  0.11538212174E+04  0.00000000000E+00 0.  1.
         15    1    5    5    0    0  0.10212032314E+03  0.20232259103E+02  0.47800089736E+02  0.11456836830E+03  0.17770000000E+01 0.  1.
        -15    1    5    5    0    0  0.13564577706E+03  0.33280246829E+01 -0.35433046790E+02  0.14024803427E+03  0.17770000000E+01 0. -1.
          3    1    6    6  503    0  0.16649788081E+03  0.15293480007E+03 -0.15093688025E+02  0.22657982435E+03  0.00000000000E+00 0. -1.
         -3    1    6    6    0  503  0.13882129823E+04  0.15143233469E+04  0.77310549936E+02  0.20557936191E+04  0.00000000000E+00 0.  1.
<mgrwt>
<rscale>  0 0.24929928E+04</rscale>
<asrwt>0</asrwt>
<pdfrwt beam="1">  1        1 0.48120552E+00 0.24929928E+04</pdfrwt>
<pdfrwt beam="2">  1       -1 0.31777922E+00 0.24929928E+04</pdfrwt>
<totfact> 0.10235379E-02</totfact>
</mgrwt>
</event>
<event>
12    1  0.7781383E-008  0.7007524E+03  0.7818608E-02  0.9715946E-01
         -2   -1    0    0    0  501 -0.00000000000E+00  0.00000000000E+00  0.25569803862E+03  0.25569803862E+03  0.00000000000E+00 0.  1.
          2   -1    0    0  501    0  0.00000000000E+00 -0.00000000000E+00 -0.28486297760E+04  0.28486297760E+04  0.00000000000E+00 0. -1.
         23    2    1    2    0    0  0.58966004997E+03 -0.33506834498E+03 -0.17001568945E+04  0.18328219421E+04  0.93450710530E+02 0.  0.
    5000000    2    1    2    0    0 -0.58966004997E+03  0.33506834498E+03 -0.89277484285E+03  0.12715058725E+04  0.59975869592E+03 0.  0.
         23    2    4    4    0    0 -0.53743597238E+03  0.24391785812E+03 -0.94647569374E+03  0.11192474860E+04  0.92549177273E+02 0.  0.
         23    2    4    4    0    0 -0.52224077591E+02  0.91150486858E+02  0.53700850897E+02  0.15225838643E+03  0.96244840463E+02 0.  0.
          3    1    3    3  502    0  0.30331434413E+03 -0.16335824120E+03 -0.98645994154E+03  0.10448869425E+04  0.00000000000E+00 0. -1.
         -3    1    3    3    0  502  0.28634570584E+03 -0.17171010377E+03 -0.71369695294E+03  0.78793499962E+03  0.00000000000E+00 0.  1.
         15    1    5    5    0    0 -0.23342439294E+03  0.99185261772E+02 -0.49321466956E+03  0.55460664563E+03  0.17770000000E+01 0. -1.
        -15    1    5    5    0    0 -0.30401157943E+03  0.14473259635E+03 -0.45326102418E+03  0.56464084040E+03  0.17770000000E+01 0.  1.
          2    1    6    6  503    0  0.85075119652E+01 -0.11016773490E+02 -0.10254615834E+02  0.17288846227E+02  0.00000000000E+00 0. -1.
         -2    1    6    6    0  503 -0.60731589556E+02  0.10216726035E+03  0.63955466730E+02  0.13496954020E+03  0.00000000000E+00 0.  1.
<mgrwt>
<rscale>  0 0.70075239E+03</rscale>
<asrwt>0</asrwt>
<pdfrwt beam="1">  1        2 0.43825075E+00 0.70075239E+03</pdfrwt>
<pdfrwt beam="2">  1       -2 0.39338159E-01 0.70075239E+03</pdfrwt>
<totfact> 0.14072528E+01</totfact>
</mgrwt>
</event>
<event>
12    1  0.7781383E-008  0.7733234E+03  0.7818608E-02  0.9599454E-01
          2   -1    0    0  501    0  0.00000000000E+00  0.00000000000E+00  0.37250156976E+04  0.37250156976E+04  0.00000000000E+00 0. -1.
         -2   -1    0    0    0  501 -0.00000000000E+00 -0.00000000000E+00 -0.41779431799E+03  0.41779431799E+03  0.00000000000E+00 0.  1.
         23    2    1    2    0    0  0.63672122837E+03  0.20690249020E+03 -0.40157634133E+02  0.67684381652E+03  0.91007435235E+02 0.  0.
    5000000    2    1    2    0    0 -0.63672122837E+03 -0.20690249020E+03  0.33473790137E+04  0.34659661990E+04  0.59979402161E+03 0.  0.
         23    2    4    4    0    0 -0.57600880658E+03 -0.37130654752E+03  0.23675308830E+04  0.24663625147E+04  0.89927049499E+02 0.  0.
         23    2    4    4    0    0 -0.60712421788E+02  0.16440405732E+03  0.97984813067E+03  0.99960368435E+03  0.91599532570E+02 0.  0.
          3    1    3    3  502    0  0.14263363811E+03  0.11930625089E+02 -0.26103844049E+02  0.14549262940E+03  0.00000000000E+00 0. -1.
         -3    1    3    3    0  502  0.49408759026E+03  0.19497186511E+03 -0.14053790084E+02  0.53135118712E+03  0.00000000000E+00 0.  1.
         15    1    5    5    0    0 -0.52098162510E+03 -0.36419794514E+03  0.21730039362E+04  0.22640696238E+04  0.17770000000E+01 0. -1.
        -15    1    5    5    0    0 -0.55027181482E+02 -0.71086023786E+01  0.19452694686E+03  0.20229289091E+03  0.17770000000E+01 0.  1.
          1    1    6    6  503    0 -0.28876959146E+02  0.13426962740E+03  0.87865646354E+03  0.88932524564E+03  0.00000000000E+00 0. -1.
         -1    1    6    6    0  503 -0.31835462642E+02  0.30134429911E+02  0.10119166713E+03  0.11027843871E+03  0.00000000000E+00 0.  1.
<mgrwt>
<rscale>  0 0.77332336E+03</rscale>
<asrwt>0</asrwt>
<pdfrwt beam="1">  1        2 0.57307932E+00 0.77332336E+03</pdfrwt>
<pdfrwt beam="2">  1       -2 0.64276051E-01 0.77332336E+03</pdfrwt>
<totfact> 0.13662556E+00</totfact>
</mgrwt>
</event>
<event>
12    1  0.7781383E-008  0.8197944E+03  0.7818608E-02  0.9531799E-01
         -2   -1    0    0    0  501 -0.00000000000E+00  0.00000000000E+00  0.14216229686E+04  0.14216229686E+04  0.00000000000E+00 0.  1.
          2   -1    0    0  501    0  0.00000000000E+00 -0.00000000000E+00 -0.51443911727E+03  0.51443911727E+03  0.00000000000E+00 0. -1.
         23    2    1    2    0    0  0.27553533847E+03 -0.66465704068E+03  0.17351940461E+03  0.74610800604E+03  0.94230931436E+02 0.  0.
    5000000    2    1    2    0    0 -0.27553533847E+03  0.66465704068E+03  0.73366444670E+03  0.11899540798E+04  0.60003207181E+03 0.  0.
         23    2    4    4    0    0 -0.42274764980E+03  0.60738649270E+03  0.52522826683E+03  0.91215161577E+03  0.92314196869E+02 0.  0.
         23    2    4    4    0    0  0.14721231133E+03  0.57270547977E+02  0.20843617987E+03  0.27780246402E+03  0.93686646151E+02 0.  0.
          3    1    3    3  502    0  0.19135553726E+03 -0.36912985055E+03  0.13080274507E+03  0.43587056144E+03  0.00000000000E+00 0. -1.
         -3    1    3    3    0  502  0.84179801213E+02 -0.29552719012E+03  0.42716659538E+02  0.31023744461E+03  0.00000000000E+00 0.  1.
         15    1    5    5    0    0 -0.30471609609E+03  0.36940923965E+03  0.36277509268E+03  0.60076951583E+03  0.17770000000E+01 0.  1.
        -15    1    5    5    0    0 -0.11803155372E+03  0.23797725305E+03  0.16245317416E+03  0.31138209994E+03  0.17770000000E+01 0. -1.
          1    1    6    6  503    0  0.72539307791E+02  0.64391224567E+02  0.67576728391E+02  0.11821503794E+03  0.00000000000E+00 0. -1.
         -1    1    6    6    0  503  0.74673003541E+02 -0.71206765892E+01  0.14085945147E+03  0.15958742608E+03  0.00000000000E+00 0.  1.
<mgrwt>
<rscale>  0 0.81979440E+03</rscale>
<asrwt>0</asrwt>
<pdfrwt beam="1">  1        2 0.79144480E-01 0.81979440E+03</pdfrwt>
<pdfrwt beam="2">  1       -2 0.21871122E+00 0.81979440E+03</pdfrwt>
<totfact> 0.60864125E+00</totfact>
</mgrwt>
</event>
<event>
12    1  0.7781383E-008  0.1360994E+04  0.7818608E-02  0.8982548E-01
          1   -1    0    0  501    0  0.00000000000E+00  0.00000000000E+00  0.30129581008E+04  0.30129581008E+04  0.00000000000E+00 0. -1.
         -1   -1    0    0    0  501 -0.00000000000E+00 -0.00000000000E+00 -0.82452169728E+03  0.82452169728E+03  0.00000000000E+00 0.  1.
         23    2    1    2    0    0  0.65890360513E+03 -0.11534965116E+04  0.16274079787E+03  0.13418200048E+04  0.96375281601E+02 0.  0.
    5000000    2    1    2    0    0 -0.65890360513E+03  0.11534965116E+04  0.20256956056E+04  0.24956597932E+04  0.60013911208E+03 0.  0.
         23    2    4    4    0    0 -0.57867460797E+03  0.62449855554E+03  0.87731044641E+03  0.12260118138E+04  0.92566735104E+02 0.  0.
         23    2    4    4    0    0 -0.80228997165E+02  0.52899795605E+03  0.11483851592E+04  0.12696479794E+04  0.83318595040E+02 0.  0.
          4    1    3    3  502    0  0.22732615925E+03 -0.48523847666E+03  0.84615820410E+02  0.54248815561E+03  0.00000000000E+00 0. -1.
         -4    1    3    3    0  502  0.43157744588E+03 -0.66825803494E+03  0.78124977461E+02  0.79933184920E+03  0.00000000000E+00 0.  1.
         15    1    5    5    0    0 -0.43280855363E+03  0.41880101467E+03  0.65547929477E+03  0.89015380558E+03  0.17770000000E+01 0. -1.
        -15    1    5    5    0    0 -0.14586605433E+03  0.20569754087E+03  0.22183115165E+03  0.33585800824E+03  0.17770000000E+01 0.  1.
          2    1    6    6  503    0  0.18185899488E+01  0.63357345563E+02  0.20226334834E+03  0.21196207818E+03  0.00000000000E+00 0. -1.
         -2    1    6    6    0  503 -0.82047587113E+02  0.46564061049E+03  0.94612181085E+03  0.10576859012E+04  0.00000000000E+00 0.  1.
<mgrwt>
<rscale>  0 0.13609936E+04</rscale>
<asrwt>0</asrwt>
<pdfrwt beam="1">  1        1 0.46353201E+00 0.13609936E+04</pdfrwt>
<pdfrwt beam="2">  1       -1 0.12684949E+00 0.13609936E+04</pdfrwt>
<totfact> 0.30663568E-01</totfact>
</mgrwt>
</event>
<event>
12    1  0.7781383E-008  0.5121870E+03  0.7818608E-02  0.1010646E+00
          1   -1    0    0  501    0  0.00000000000E+00  0.00000000000E+00  0.13923684493E+04  0.13923684493E+04  0.00000000000E+00 0. -1.
         -1   -1    0    0    0  501 -0.00000000000E+00 -0.00000000000E+00 -0.24061681148E+03  0.24061681148E+03  0.00000000000E+00 0.  1.
         23    2    1    2    0    0 -0.27995327912E+03 -0.19716603004E+03  0.76340049024E+03  0.84035367910E+03  0.78522070670E+02 0.  0.
    5000000    2    1    2    0    0  0.27995327912E+03  0.19716603004E+03  0.38835114763E+03  0.79263158173E+03  0.60016658404E+03 0.  0.
         23    2    4    4    0    0  0.60493860005E+02  0.37296048121E+03  0.16757796668E+03  0.42358796522E+03  0.92657227006E+02 0.  0.
         23    2    4    4    0    0  0.21945941912E+03 -0.17579445117E+03  0.22077318095E+03  0.36904361651E+03  0.91576567738E+02 0.  0.
          2    1    3    3  502    0 -0.21340447052E+03 -0.14298682467E+03  0.48225734203E+03  0.54640538432E+03  0.00000000000E+00 0.  1.
         -2    1    3    3    0  502 -0.66548808607E+02 -0.54179205374E+02  0.28114314821E+03  0.29394829479E+03  0.00000000000E+00 0. -1.
         15    1    5    5    0    0  0.84133970273E+02  0.26633244396E+03  0.11084279105E+03  0.30050087807E+03  0.17770000000E+01 0. -1.
        -15    1    5    5    0    0 -0.23640110268E+02  0.10662803725E+03  0.56735175624E+02  0.12308708715E+03  0.17770000000E+01 0.  1.
          1    1    6    6  503    0  0.18388822911E+03 -0.99786196325E+02  0.17880193084E+03  0.27521318329E+03  0.00000000000E+00 0. -1.
         -1    1    6    6    0  503  0.35571190006E+02 -0.76008254846E+02  0.41971250108E+02  0.93830433223E+02  0.00000000000E+00 0.  1.
<mgrwt>
<rscale>  0 0.51218696E+03</rscale>
<asrwt>0</asrwt>
<pdfrwt beam="1">  1        1 0.21421053E+00 0.51218696E+03</pdfrwt>
<pdfrwt beam="2">  1       -1 0.37017972E-01 0.51218696E+03</pdfrwt>
<totfact> 0.57680924E+01</totfact>
</mgrwt>
</event>
<event>
12    1  0.7781383E-008  0.1544634E+04  0.7818608E-02  0.8855302E-01
         -2   -1    0    0    0  501 -0.00000000000E+00  0.00000000000E+00  0.15244878872E+04  0.15244878872E+04  0.00000000000E+00 0.  1.
          2   -1    0    0  501    0  0.00000000000E+00 -0.00000000000E+00 -0.22237386513E+04  0.22237386513E+04  0.00000000000E+00 0. -1.
         23    2    1    2    0    0 -0.14521971804E+04 -0.32011017565E+03 -0.13568256515E+04  0.20151459930E+04  0.92143090445E+02 0.  0.
    5000000    2    1    2    0    0  0.14521971804E+04  0.32011017565E+03  0.65757488740E+03  0.17330805456E+04  0.59984687187E+03 0.  0.
         23    2    4    4    0    0  0.47622626035E+03  0.38478359375E+03  0.29671296829E+03  0.68636489821E+03  0.90599795107E+02 0.  0.
         23    2    4    4    0    0  0.97597092004E+03 -0.64673418099E+02  0.36086191911E+03  0.10467156474E+04  0.93222497571E+02 0.  0.
          1    1    3    3  502    0 -0.10949224175E+04 -0.20065440903E+03 -0.10073570787E+04  0.15012946334E+04  0.00000000000E+00 0. -1.
         -1    1    3    3    0  502 -0.35727476292E+03 -0.11945576662E+03 -0.34946857278E+03  0.51385135960E+03  0.00000000000E+00 0.  1.
         15    1    5    5    0    0  0.77194576617E+02  0.29405906758E+02  0.59021456800E+02  0.10154014035E+03  0.17770000000E+01 0. -1.
        -15    1    5    5    0    0  0.39903168374E+03  0.35537768699E+03  0.23769151149E+03  0.58482475786E+03  0.17770000000E+01 0.  1.
          1    1    6    6  503    0  0.87900250638E+02  0.20571406674E+02  0.28549172682E+02  0.94682057939E+02  0.00000000000E+00 0. -1.
         -1    1    6    6    0  503  0.88807066940E+03 -0.85244824773E+02  0.33231274643E+03  0.95203358945E+03  0.00000000000E+00 0.  1.
<mgrwt>
<rscale>  0 0.15446342E+04</rscale>
<asrwt>0</asrwt>
<pdfrwt beam="1">  1        2 0.34211364E+00 0.15446342E+04</pdfrwt>
<pdfrwt beam="2">  1       -2 0.23453660E+00 0.15446342E+04</pdfrwt>
<totfact> 0.37417513E-01</totfact>
</mgrwt>
</event>
<event>
12    1  0.7781383E-008  0.1000506E+04  0.7818608E-02  0.9307990E-01
         -2   -1    0    0    0  501 -0.00000000000E+00  0.00000000000E+00  0.10839577396E+04  0.10839577396E+04  0.00000000000E+00 0.  1.
          2   -1    0    0  501    0  0.00000000000E+00 -0.00000000000E+00 -0.13817339035E+04  0.13817339035E+04  0.00000000000E+00 0. -1.
         23    2    1    2    0    0  0.94164803236E+03  0.27630415716E+02 -0.80173318337E+03  0.12403294930E+04  0.90425091964E+02 0.  0.
    5000000    2    1    2    0    0 -0.94164803236E+03 -0.27630415716E+02  0.50395701940E+03  0.12253621501E+04  0.60006271733E+03 0.  0.
         23    2    4    4    0    0 -0.65803627486E+03 -0.24140732344E+03  0.16331818349E+03  0.72528775190E+03  0.89890261744E+02 0.  0.
         23    2    4    4    0    0 -0.28361175750E+03  0.21377690772E+03  0.34063883591E+03  0.50007439818E+03  0.88901023162E+02 0.  0.
          1    1    3    3  502    0  0.20277190581E+03  0.18664239618E+02 -0.12911485555E+03  0.24111293112E+03  0.00000000000E+00 0. -1.
         -1    1    3    3    0  502  0.73887612654E+03  0.89661760986E+01 -0.67261832782E+03  0.99921656192E+03  0.00000000000E+00 0.  1.
         15    1    5    5    0    0 -0.28653932587E+03 -0.83245502068E+02  0.29150724822E+02  0.29981247701E+03  0.17770000000E+01 0. -1.
        -15    1    5    5    0    0 -0.37149694899E+03 -0.15816182137E+03  0.13416745867E+03  0.42547527489E+03  0.17770000000E+01 0.  1.
          2    1    6    6  503    0 -0.12151445372E+03  0.74151627842E+02  0.81495418049E+02  0.16402966054E+03  0.00000000000E+00 0. -1.
         -2    1    6    6    0  503 -0.16209730378E+03  0.13962527988E+03  0.25914341786E+03  0.33604473764E+03  0.00000000000E+00 0.  1.
<mgrwt>
<rscale>  0 0.10005063E+04</rscale>
<asrwt>0</asrwt>
<pdfrwt beam="1">  1        2 0.21257445E+00 0.10005063E+04</pdfrwt>
<pdfrwt beam="2">  1       -2 0.16676273E+00 0.10005063E+04</pdfrwt>
<totfact> 0.33055649E+00</totfact>
</mgrwt>
</event>
<event>
12    1  0.7781383E-008  0.6293079E+03  0.7818608E-02  0.9846400E-01
         -2   -1    0    0    0  501 -0.00000000000E+00  0.00000000000E+00  0.65732642865E+03  0.65732642865E+03  0.00000000000E+00 0.  1.
          2   -1    0    0  501    0  0.00000000000E+00 -0.00000000000E+00 -0.70204428713E+03  0.70204428713E+03  0.00000000000E+00 0. -1.
         23    2    1    2    0    0 -0.46006295925E+03 -0.28396766786E+03  0.22774981859E+02  0.54890370376E+03  0.92092417397E+02 0.  0.
    5000000    2    1    2    0    0  0.46006295925E+03  0.28396766786E+03 -0.67492840344E+02  0.81046701202E+03  0.60000494266E+03 0.  0.
         23    2    4    4    0    0 -0.78245880753E+02 -0.19394618145E+01 -0.14589213028E+03  0.18937171112E+03  0.91929059209E+02 0.  0.
         23    2    4    4    0    0  0.53830884000E+03  0.28590712968E+03  0.78399289935E+02  0.62109530090E+03  0.89964604809E+02 0.  0.
          4    1    3    3  502    0 -0.27489888825E+03 -0.22142482343E+03  0.15746707888E+02  0.35333597326E+03  0.00000000000E+00 0.  1.
         -4    1    3    3    0  502 -0.18516407099E+03 -0.62542844435E+02  0.70282739713E+01  0.19556773050E+03  0.00000000000E+00 0. -1.
         15    1    5    5    0    0 -0.80898254633E+02 -0.18942916537E+02 -0.15009638580E+03  0.17156760897E+03  0.17770000000E+01 0.  1.
        -15    1    5    5    0    0  0.26523738791E+01  0.17003454723E+02  0.42042555201E+01  0.17804102145E+02  0.17770000000E+01 0. -1.
          4    1    6    6  503    0  0.47932104388E+01  0.77894382024E+00 -0.86667717356E+01  0.99345131789E+01  0.00000000000E+00 0. -1.
         -4    1    6    6    0  503  0.53351562956E+03  0.28512818586E+03  0.87066061671E+02  0.61116078772E+03  0.00000000000E+00 0.  1.
<mgrwt>
<rscale>  0 0.62930787E+03</rscale>
<asrwt>0</asrwt>
<pdfrwt beam="1">  1        2 0.10800681E+00 0.62930787E+03</pdfrwt>
<pdfrwt beam="2">  1       -2 0.10112714E+00 0.62930787E+03</pdfrwt>
<totfact> 0.33634703E+01</totfact>
</mgrwt>
</event>
<event>
12    1  0.7781383E-008  0.5527359E+03  0.7818608E-02  0.1000863E+00
         -2   -1    0    0    0  501 -0.00000000000E+00  0.00000000000E+00  0.19550060222E+03  0.19550060222E+03  0.00000000000E+00 0.  1.
          2   -1    0    0  501    0  0.00000000000E+00 -0.00000000000E+00 -0.22044086861E+04  0.22044086861E+04  0.00000000000E+00 0. -1.
         23    2    1    2    0    0 -0.19812943155E+02 -0.48541451355E+03 -0.11098096428E+04  0.12148270713E+04  0.90042029975E+02 0.  0.
    5000000    2    1    2    0    0  0.19812943155E+02  0.48541451355E+03 -0.89909844109E+03  0.11850822171E+04  0.60001837615E+03 0.  0.
         23    2    4    4    0    0 -0.97748945150E+02  0.28854039628E+02  0.25660467685E+02  0.14317848115E+03  0.97232741306E+02 0.  0.
         23    2    4    4    0    0  0.11756188830E+03  0.45656047392E+03 -0.92475890878E+03  0.10419037359E+04  0.90089353388E+02 0.  0.
          2    1    3    3  502    0 -0.50670866098E+02 -0.35178361492E+03 -0.75641356986E+03  0.83575160010E+03  0.00000000000E+00 0. -1.
         -2    1    3    3    0  502  0.30857922943E+02 -0.13363089863E+03 -0.35339607293E+03  0.37907547116E+03  0.00000000000E+00 0.  1.
         15    1    5    5    0    0 -0.61427093478E+01 -0.27610992114E+02  0.21320762527E+02  0.35465933054E+02  0.17770000000E+01 0. -1.
        -15    1    5    5    0    0 -0.91606235802E+02  0.56465031742E+02  0.43397051583E+01  0.10771254810E+03  0.17770000000E+01 0.  1.
          3    1    6    6  503    0  0.62791318942E+02  0.11505895423E+03 -0.30913466768E+03  0.33577604954E+03  0.00000000000E+00 0. -1.
         -3    1    6    6    0  503  0.54770569362E+02  0.34150151969E+03 -0.61562424110E+03  0.70612768636E+03  0.00000000000E+00 0.  1.
<mgrwt>
<rscale>  0 0.55273589E+03</rscale>
<asrwt>0</asrwt>
<pdfrwt beam="1">  1        2 0.33913981E+00 0.55273589E+03</pdfrwt>
<pdfrwt beam="2">  1       -2 0.30077015E-01 0.55273589E+03</pdfrwt>
<totfact> 0.55701717E+01</totfact>
</mgrwt>
</event>
<event>
12    1  0.7781383E-008  0.5637553E+03  0.7818608E-02  0.9983593E-01
          4   -1    0    0  501    0  0.00000000000E+00  0.00000000000E+00  0.20717422895E+04  0.20717422895E+04  0.00000000000E+00 0. -1.
         -4   -1    0    0    0  501 -0.00000000000E+00 -0.00000000000E+00 -0.16729842077E+03  0.16729842077E+03  0.00000000000E+00 0.  1.
         23    2    1    2    0    0  0.25460129037E+03 -0.34559581476E+03  0.75325051076E+03  0.87178238784E+03  0.91432573816E+02 0.  0.
    5000000    2    1    2    0    0 -0.25460129037E+03  0.34559581476E+03  0.11511933580E+04  0.13672583224E+04  0.59990906695E+03 0.  0.
         23    2    4    4    0    0  0.13112111933E+03 -0.30078090850E+02  0.12336441689E+03  0.20320746090E+03  0.89314351194E+02 0.  0.
         23    2    4    4    0    0 -0.38572240970E+03  0.37567390561E+03  0.10278289411E+04  0.11640508615E+04  0.93109695557E+02 0.  0.
          3    1    3    3  502    0  0.21282034266E+03 -0.22359576100E+03  0.50055254881E+03  0.58808198128E+03  0.00000000000E+00 0. -1.
         -3    1    3    3    0  502  0.41780947705E+02 -0.12200005376E+03  0.25269796195E+03  0.28370040656E+03  0.00000000000E+00 0.  1.
         15    1    5    5    0    0  0.16672064900E+02  0.15781552623E+02 -0.67019747671E+01  0.23981020537E+02  0.17770000000E+01 0.  1.
        -15    1    5    5    0    0  0.11444905443E+03 -0.45859643473E+02  0.13006639165E+03  0.17922644037E+03  0.17770000000E+01 0. -1.
          2    1    6    6  503    0 -0.27467582222E+03  0.21795369401E+03  0.71875347573E+03  0.79972318893E+03  0.00000000000E+00 0. -1.
         -2    1    6    6    0  503 -0.11104658748E+03  0.15772021160E+03  0.30907546536E+03  0.36432767260E+03  0.00000000000E+00 0.  1.
<mgrwt>
<rscale>  0 0.56375532E+03</rscale>
<asrwt>0</asrwt>
<pdfrwt beam="1">  1        4 0.31872956E+00 0.56375532E+03</pdfrwt>
<pdfrwt beam="2">  1       -4 0.25738220E-01 0.56375532E+03</pdfrwt>
<totfact> 0.70282282E-01</totfact>
</mgrwt>
</event>
<event>
12    1  0.7781383E-008  0.6282756E+03  0.7818608E-02  0.9848420E-01
         -1   -1    0    0    0  501 -0.00000000000E+00  0.00000000000E+00  0.42989701594E+03  0.42989701594E+03  0.00000000000E+00 0.  1.
          1   -1    0    0  501    0  0.00000000000E+00 -0.00000000000E+00 -0.13108566222E+04  0.13108566222E+04  0.00000000000E+00 0. -1.
         23    2    1    2    0    0 -0.34106626353E+03  0.40977660974E+03  0.10830840259E+02  0.54099410162E+03  0.91182481206E+02 0.  0.
    5000000    2    1    2    0    0  0.34106626353E+03 -0.40977660974E+03 -0.89179044653E+03  0.11997595365E+04  0.59990805876E+03 0.  0.
         23    2    4    4    0    0  0.17048558492E+03  0.73521700873E+02 -0.52055598633E+03  0.56035393311E+03  0.92451177865E+02 0.  0.
         23    2    4    4    0    0  0.17058067860E+03 -0.48329831061E+03 -0.37123446021E+03  0.63940560342E+03  0.91375468720E+02 0.  0.
          3    1    3    3  502    0 -0.81978775297E+02  0.15984108352E+03 -0.13756495487E+02  0.18016362771E+03  0.00000000000E+00 0. -1.
         -3    1    3    3    0  502 -0.25908748823E+03  0.24993552622E+03  0.24587335746E+02  0.36083047391E+03  0.00000000000E+00 0.  1.
         15    1    5    5    0    0  0.44753543713E+02 -0.18628015305E+02 -0.86817308540E+02  0.99449914129E+02  0.17770000000E+01 0.  1.
        -15    1    5    5    0    0  0.12573204121E+03  0.92149716178E+02 -0.43373867779E+03  0.46090401898E+03  0.17770000000E+01 0. -1.
          2    1    6    6  503    0  0.14898975075E+03 -0.42169071384E+03 -0.28155881482E+03  0.52848497629E+03  0.00000000000E+00 0. -1.
         -2    1    6    6    0  503  0.21590927857E+02 -0.61607596773E+02 -0.89675645389E+02  0.11092062712E+03  0.00000000000E+00 0.  1.
<mgrwt>
<rscale>  0 0.62827559E+03</rscale>
<asrwt>0</asrwt>
<pdfrwt beam="1">  1        1 0.20167025E+00 0.62827559E+03</pdfrwt>
<pdfrwt beam="2">  1       -1 0.66138004E-01 0.62827559E+03</pdfrwt>
<totfact> 0.21606707E+01</totfact>
</mgrwt>
</event>
<event>
12    1  0.7781383E-008  0.5810872E+03  0.7818608E-02  0.9945440E-01
         -2   -1    0    0    0  501 -0.00000000000E+00  0.00000000000E+00  0.20279378256E+04  0.20279378256E+04  0.00000000000E+00 0. -1.
          2   -1    0    0  501    0  0.00000000000E+00 -0.00000000000E+00 -0.25742351401E+03  0.25742351401E+03  0.00000000000E+00 0.  1.
         23    2    1    2    0    0  0.28027379956E+03  0.48901722602E+03  0.44088857643E+03  0.72145713835E+03  0.91795509651E+02 0.  0.
    5000000    2    1    2    0    0 -0.28027379956E+03 -0.48901722602E+03  0.13296257352E+04  0.15639042013E+04  0.60016706430E+03 0.  0.
         23    2    4    4    0    0 -0.17397747255E+03 -0.17270291513E+03  0.11410269082E+04  0.11705716641E+04  0.90560242894E+02 0.  0.
         23    2    4    4    0    0 -0.10629632701E+03 -0.31631431089E+03  0.18859882696E+03  0.39333253721E+03  0.88245764139E+02 0.  0.
          2    1    3    3  502    0  0.12248324904E+03  0.30385959829E+03  0.26191031209E+03  0.41943988050E+03  0.00000000000E+00 0. -1.
         -2    1    3    3    0  502  0.15779055052E+03  0.18515762773E+03  0.17897826433E+03  0.30201725786E+03  0.00000000000E+00 0.  1.
         15    1    5    5    0    0 -0.10983944800E+03 -0.93206530525E+02  0.85029278747E+03  0.86241123823E+03  0.17770000000E+01 0. -1.
        -15    1    5    5    0    0 -0.64138024542E+02 -0.79496384607E+02  0.29073412076E+03  0.30816042585E+03  0.17770000000E+01 0.  1.
          1    1    6    6  503    0 -0.75021477009E+02 -0.92631594837E+02  0.60476410509E+02  0.13366461986E+03  0.00000000000E+00 0. -1.
         -1    1    6    6    0  503 -0.31274850002E+02 -0.22368271605E+03  0.12812241645E+03  0.25966791735E+03  0.00000000000E+00 0.  1.
<mgrwt>
<rscale>  0 0.58108721E+03</rscale>
<asrwt>0</asrwt>
<pdfrwt beam="1">  1        2 0.39603619E-01 0.58108721E+03</pdfrwt>
<pdfrwt beam="2">  1       -2 0.31199042E+00 0.58108721E+03</pdfrwt>
<totfact> 0.37378598E+00</totfact>
</mgrwt>
</event>
<event>
12    1  0.7781383E-008  0.8040603E+03  0.7818608E-02  0.9554158E-01
         -1   -1    0    0    0  501 -0.00000000000E+00  0.00000000000E+00  0.14670127597E+04  0.14670127597E+04  0.00000000000E+00 0.  1.
          1   -1    0    0  501    0  0.00000000000E+00 -0.00000000000E+00 -0.51596456600E+03  0.51596456600E+03  0.00000000000E+00 0. -1.
         23    2    1    2    0    0  0.40864552317E+03  0.64141470436E+03  0.34388744645E+03  0.83974485013E+03  0.92243432972E+02 0.  0.
    5000000    2    1    2    0    0 -0.40864552317E+03 -0.64141470436E+03  0.60716074725E+03  0.11432324756E+04  0.59994360868E+03 0.  0.
         23    2    4    4    0    0 -0.53906886755E+02  0.62343586268E+01  0.33049845614E+03  0.34951420841E+03  0.99930639474E+02 0.  0.
         23    2    4    4    0    0 -0.35473863641E+03 -0.64764906298E+03  0.27666229111E+03  0.79371826714E+03  0.90320846565E+02 0.  0.
          1    1    3    3  502    0  0.24142100552E+03  0.33950104470E+03  0.14323466525E+03  0.44052381388E+03  0.00000000000E+00 0. -1.
         -1    1    3    3    0  502  0.16722451765E+03  0.30191365965E+03  0.20065278119E+03  0.39922103625E+03  0.00000000000E+00 0.  1.
         15    1    5    5    0    0 -0.27460032425E+02 -0.40773415895E+02  0.23242692483E+03  0.23757516272E+03  0.17770000000E+01 0.  1.
        -15    1    5    5    0    0 -0.26446854330E+02  0.47007774522E+02  0.98071531307E+02  0.11193904570E+03  0.17770000000E+01 0. -1.
          3    1    6    6  503    0 -0.33308274208E+03 -0.54813050496E+03  0.22675938697E+03  0.68030212635E+03  0.00000000000E+00 0. -1.
         -3    1    6    6    0  503 -0.21655894336E+02 -0.99518558019E+02  0.49902904137E+02  0.11341614079E+03  0.00000000000E+00 0.  1.
<mgrwt>
<rscale>  0 0.80406035E+03</rscale>
<asrwt>0</asrwt>
<pdfrwt beam="1">  1        1 0.79379165E-01 0.80406035E+03</pdfrwt>
<pdfrwt beam="2">  1       -1 0.22569427E+00 0.80406035E+03</pdfrwt>
<totfact> 0.44084188E+00</totfact>
</mgrwt>
</event>
<event>
12    1  0.7781383E-008  0.1235493E+04  0.7818608E-02  0.9082344E-01
          4   -1    0    0  501    0  0.00000000000E+00  0.00000000000E+00  0.22432227484E+04  0.22432227484E+04  0.00000000000E+00 0. -1.
         -4   -1    0    0    0  501 -0.00000000000E+00 -0.00000000000E+00 -0.70793362964E+03  0.70793362964E+03  0.00000000000E+00 0.  1.
         23    2    1    2    0    0 -0.44532445702E+03  0.10805283297E+04  0.96943214435E+03  0.15207762586E+04  0.84299482693E+02 0.  0.
    5000000    2    1    2    0    0  0.44532445702E+03 -0.10805283297E+04  0.56585697443E+03  0.14303801195E+04  0.59994818732E+03 0.  0.
         23    2    4    4    0    0  0.20880657047E+03 -0.31350389325E+02  0.53065592436E+02  0.23538059328E+03  0.89470865691E+02 0.  0.
         23    2    4    4    0    0  0.23651788655E+03 -0.10491779404E+04  0.51279138200E+03  0.11949995262E+04  0.91399152218E+02 0.  0.
          1    1    3    3  502    0 -0.18771913974E+03  0.48477894036E+03  0.37899092712E+03  0.64333756247E+03  0.00000000000E+00 0. -1.
         -1    1    3    3    0  502 -0.25760531728E+03  0.59574938934E+03  0.59044121723E+03  0.87743869608E+03  0.00000000000E+00 0.  1.
         15    1    5    5    0    0  0.51074736538E+02  0.26614214783E+02 -0.43606522728E+01  0.57785103255E+02  0.17770000000E+01 0.  1.
        -15    1    5    5    0    0  0.15773183393E+03 -0.57964604108E+02  0.57426244709E+02  0.17759549002E+03  0.17770000000E+01 0. -1.
          1    1    6    6  503    0  0.42474084187E+02 -0.27559092582E+03  0.17247411469E+03  0.32787455903E+03  0.00000000000E+00 0. -1.
         -1    1    6    6    0  503  0.19404380236E+03 -0.77358701455E+03  0.34031726731E+03  0.86712496720E+03  0.00000000000E+00 0.  1.
<mgrwt>
<rscale>  0 0.12354932E+04</rscale>
<asrwt>0</asrwt>
<pdfrwt beam="1">  1        4 0.34511119E+00 0.12354932E+04</pdfrwt>
<pdfrwt beam="2">  1       -4 0.10891287E+00 0.12354932E+04</pdfrwt>
<totfact> 0.20548038E-02</totfact>
</mgrwt>
</event>
<event>
12    1  0.7781383E-008  0.8106560E+03  0.7818608E-02  0.9544720E-01
         -1   -1    0    0    0  501 -0.00000000000E+00  0.00000000000E+00  0.32139373594E+03  0.32139373594E+03  0.00000000000E+00 0.  1.
          1   -1    0    0  501    0  0.00000000000E+00 -0.00000000000E+00 -0.22132537954E+04  0.22132537954E+04  0.00000000000E+00 0. -1.
         23    2    1    2    0    0  0.94173435741E+02  0.72432031090E+03 -0.92955447106E+03  0.11857410368E+04  0.91661022220E+02 0.  0.
    5000000    2    1    2    0    0 -0.94173435741E+02 -0.72432031090E+03 -0.96230558843E+03  0.13489064945E+04  0.60000678055E+03 0.  0.
         23    2    4    4    0    0  0.10488212395E+03  0.14368583694E+02 -0.36432543392E+02  0.14465982488E+03  0.91610144597E+02 0.  0.
         23    2    4    4    0    0 -0.19905555969E+03 -0.73868889459E+03 -0.92587304503E+03  0.12042466697E+04  0.87662688876E+02 0.  0.
          4    1    3    3  502    0  0.49732164981E+02  0.12164564192E+03 -0.15111273070E+03  0.20026484417E+03  0.00000000000E+00 0. -1.
         -4    1    3    3    0  502  0.44441270759E+02  0.60267466897E+03 -0.77844174036E+03  0.98547619266E+03  0.00000000000E+00 0.  1.
         15    1    5    5    0    0  0.49153503048E+02  0.30375902703E+02 -0.58827450853E+02  0.82477809317E+02  0.17770000000E+01 0.  1.
        -15    1    5    5    0    0  0.55728620906E+02 -0.16007319010E+02  0.22394907461E+02  0.62182015560E+02  0.17770000000E+01 0. -1.
          3    1    6    6  503    0 -0.11795903700E+03 -0.57633001022E+03 -0.69357909459E+03  0.90946279503E+03  0.00000000000E+00 0. -1.
         -3    1    6    6    0  503 -0.81096522692E+02 -0.16235888437E+03 -0.23229395045E+03  0.29478387463E+03  0.00000000000E+00 0.  1.
<mgrwt>
<rscale>  0 0.81065596E+03</rscale>
<asrwt>0</asrwt>
<pdfrwt beam="1">  1        1 0.34050058E+00 0.81065596E+03</pdfrwt>
<pdfrwt beam="2">  1       -1 0.49445191E-01 0.81065596E+03</pdfrwt>
<totfact> 0.90971033E+00</totfact>
</mgrwt>
</event>
<event>
12    1  0.7781383E-008  0.5907085E+03  0.7818608E-02  0.9924873E-01
          2   -1    0    0  501    0  0.00000000000E+00  0.00000000000E+00  0.25338951042E+04  0.25338951042E+04  0.00000000000E+00 0. -1.
         -2   -1    0    0    0  501 -0.00000000000E+00 -0.00000000000E+00 -0.67002056214E+03  0.67002056214E+03  0.00000000000E+00 0.  1.
         23    2    1    2    0    0 -0.51680106127E+02  0.51356640941E+03 -0.49157140627E+03  0.71880030472E+03  0.92790842038E+02 0.  0.
    5000000    2    1    2    0    0  0.51680106127E+02 -0.51356640941E+03  0.23554459483E+04  0.24851153616E+04  0.60104197428E+03 0.  0.
         23    2    4    4    0    0 -0.17101076282E+03 -0.24524120885E+03  0.17705510738E+04  0.17980317005E+04  0.93160933145E+02 0.  0.
         23    2    4    4    0    0  0.22269086895E+03 -0.26832520056E+03  0.58489487456E+03  0.68708366118E+03  0.91609534460E+02 0.  0.
          3    1    3    3  502    0 -0.38149027210E+02  0.31682120130E+03 -0.24077797409E+03  0.39975624407E+03  0.00000000000E+00 0. -1.
         -3    1    3    3    0  502 -0.13531078917E+02  0.19674520811E+03 -0.25079343218E+03  0.31904406065E+03  0.00000000000E+00 0.  1.
         15    1    5    5    0    0  0.31744188238E+01 -0.23529156416E+02  0.62815069779E+02  0.67175805592E+02  0.17770000000E+01 0. -1.
        -15    1    5    5    0    0 -0.17418518165E+03 -0.22171205243E+03  0.17077360040E+04  0.17308558949E+04  0.17770000000E+01 0.  1.
          1    1    6    6  503    0  0.99304067437E+02 -0.18646410391E+03  0.37108977530E+03  0.42701028230E+03  0.00000000000E+00 0. -1.
         -1    1    6    6    0  503  0.12338680151E+03 -0.81861096640E+02  0.21380509926E+03  0.26007337888E+03  0.00000000000E+00 0.  1.
<mgrwt>
<rscale>  0 0.59070846E+03</rscale>
<asrwt>0</asrwt>
<pdfrwt beam="1">  1        2 0.38983001E+00 0.59070846E+03</pdfrwt>
<pdfrwt beam="2">  1       -2 0.10308009E+00 0.59070846E+03</pdfrwt>
<totfact> 0.27827172E+00</totfact>
</mgrwt>
</event>
<event>
12    1  0.7781383E-008  0.4429513E+03  0.7818608E-02  0.1029845E+00
         -2   -1    0    0    0  501 -0.00000000000E+00  0.00000000000E+00  0.15187193777E+03  0.15187193777E+03  0.00000000000E+00 0.  1.
          2   -1    0    0  501    0  0.00000000000E+00 -0.00000000000E+00 -0.26722057431E+04  0.26722057431E+04  0.00000000000E+00 0. -1.
         23    2    1    2    0    0  0.40076149341E+03  0.11392586043E+03 -0.41136516772E+03  0.59218859875E+03  0.88753360477E+02 0.  0.
    5000000    2    1    2    0    0 -0.40076149341E+03 -0.11392586043E+03 -0.21089686376E+04  0.22318890821E+04  0.59999273677E+03 0.  0.
         23    2    4    4    0    0 -0.25330536884E+03 -0.14519316554E+02 -0.19696982004E+04  0.19880398455E+04  0.90647702318E+02 0.  0.
         23    2    4    4    0    0 -0.14745612457E+03 -0.99406543881E+02 -0.13927043714E+03  0.24384923662E+03  0.91876144333E+02 0.  0.
          4    1    3    3  502    0  0.13811937807E+03  0.74212068589E+02 -0.19053949052E+03  0.24675836595E+03  0.00000000000E+00 0. -1.
         -4    1    3    3    0  502  0.26264211535E+03  0.39713791846E+02 -0.22082567721E+03  0.34543023280E+03  0.00000000000E+00 0.  1.
         15    1    5    5    0    0 -0.22782617271E+03 -0.42257652306E+02 -0.16971850116E+04  0.17129304118E+04  0.17770000000E+01 0.  1.
        -15    1    5    5    0    0 -0.25479196131E+02  0.27738335753E+02 -0.27251318880E+03  0.27510943369E+03  0.17770000000E+01 0. -1.
          1    1    6    6  503    0 -0.52785158881E+02 -0.82418308001E+02 -0.40312273546E+02  0.10584956254E+03  0.00000000000E+00 0. -1.
         -1    1    6    6    0  503 -0.94670965691E+02 -0.16988235880E+02 -0.98958163590E+02  0.13799967407E+03  0.00000000000E+00 0.  1.
<mgrwt>
<rscale>  0 0.44295133E+03</rscale>
<asrwt>0</asrwt>
<pdfrwt beam="1">  1        2 0.41110857E+00 0.44295133E+03</pdfrwt>
<pdfrwt beam="2">  1       -2 0.23364914E-01 0.44295133E+03</pdfrwt>
<totfact> 0.49368482E+01</totfact>
</mgrwt>
</event>
<event>
12    1  0.7781383E-008  0.5686774E+03  0.7818608E-02  0.9972610E-01
         -2   -1    0    0    0  501 -0.00000000000E+00  0.00000000000E+00  0.22821628078E+03  0.22821628078E+03  0.00000000000E+00 0.  1.
          2   -1    0    0  501    0  0.00000000000E+00 -0.00000000000E+00 -0.16674263778E+04  0.16674263778E+04  0.00000000000E+00 0. -1.
         23    2    1    2    0    0 -0.41548596478E+03 -0.14939922812E+03 -0.78042227277E+03  0.90112840702E+03  0.89581057161E+02 0.  0.
    5000000    2    1    2    0    0  0.41548596478E+03  0.14939922812E+03 -0.65878782428E+03  0.99451425160E+03  0.60009039563E+03 0.  0.
         23    2    4    4    0    0 -0.95231718349E+02  0.13157215271E+03 -0.34197199804E+03  0.38670013298E+03  0.78815187997E+02 0.  0.
         23    2    4    4    0    0  0.51071768313E+03  0.17827075412E+02 -0.31681582624E+03  0.60781411862E+03  0.88968413222E+02 0.  0.
          2    1    3    3  502    0 -0.26255658030E+03 -0.13828533677E+03 -0.53330503860E+03  0.61030570735E+03  0.00000000000E+00 0. -1.
         -2    1    3    3    0  502 -0.15292938448E+03 -0.11113891351E+02 -0.24711723417E+03  0.29082269967E+03  0.00000000000E+00 0.  1.
         15    1    5    5    0    0 -0.25287457367E+02 -0.12120920929E+01 -0.23302711960E+02  0.34454299892E+02  0.17770000000E+01 0.  1.
        -15    1    5    5    0    0 -0.69944260981E+02  0.13278424480E+03 -0.31866928608E+03  0.35224583309E+03  0.17770000000E+01 0. -1.
          2    1    6    6  503    0  0.36823558396E+03  0.18028587510E+00 -0.18154406224E+03  0.41055538522E+03  0.00000000000E+00 0. -1.
         -2    1    6    6    0  503  0.14248209917E+03  0.17646789537E+02 -0.13527176400E+03  0.19725873340E+03  0.00000000000E+00 0.  1.
<mgrwt>
<rscale>  0 0.56867744E+03</rscale>
<asrwt>0</asrwt>
<pdfrwt beam="1">  1        2 0.25652714E+00 0.56867744E+03</pdfrwt>
<pdfrwt beam="2">  1       -2 0.35110197E-01 0.56867744E+03</pdfrwt>
<totfact> 0.81233487E+01</totfact>
</mgrwt>
</event>
<event>
12    1  0.7781383E-008  0.7985982E+03  0.7818608E-02  0.9562048E-01
          2   -1    0    0  501    0  0.00000000000E+00  0.00000000000E+00  0.14100090899E+04  0.14100090899E+04  0.00000000000E+00 0. -1.
         -2   -1    0    0    0  501 -0.00000000000E+00 -0.00000000000E+00 -0.57062362384E+03  0.57062362384E+03  0.00000000000E+00 0.  1.
         23    2    1    2    0    0  0.70722404724E+03 -0.33394839620E+03  0.22484703980E+03  0.81897149581E+03  0.92036597780E+02 0.  0.
    5000000    2    1    2    0    0 -0.70722404724E+03  0.33394839620E+03  0.61453842626E+03  0.11616612179E+04  0.60009326240E+03 0.  0.
         23    2    4    4    0    0 -0.42302959548E+03  0.93561381527E+02  0.63888478178E+03  0.77726573951E+03  0.90887263475E+02 0.  0.
         23    2    4    4    0    0 -0.28419445176E+03  0.24038701467E+03 -0.24346355520E+02  0.38439547842E+03  0.92815599821E+02 0.  0.
          4    1    3    3  502    0  0.52079208375E+03 -0.24244916407E+03  0.20665246378E+03  0.61050080462E+03  0.00000000000E+00 0. -1.
         -4    1    3    3    0  502  0.18643196348E+03 -0.91499232122E+02  0.18194576022E+02  0.20847069119E+03  0.00000000000E+00 0.  1.
         15    1    5    5    0    0 -0.27526605206E+03  0.98916427393E+02  0.46071746430E+03  0.54572850270E+03  0.17770000000E+01 0. -1.
        -15    1    5    5    0    0 -0.14776354342E+03 -0.53550458663E+01  0.17816731748E+03  0.23153723681E+03  0.17770000000E+01 0.  1.
          2    1    6    6  503    0 -0.13977363339E+03  0.14619461501E+03  0.28027970045E+02  0.20419378334E+03  0.00000000000E+00 0. -1.
         -2    1    6    6    0  503 -0.14442081837E+03  0.94192399655E+02 -0.52374325565E+02  0.18020169508E+03  0.00000000000E+00 0.  1.
<mgrwt>
<rscale>  0 0.79859818E+03</rscale>
<asrwt>0</asrwt>
<pdfrwt beam="1">  1        2 0.21692447E+00 0.79859818E+03</pdfrwt>
<pdfrwt beam="2">  1       -2 0.87788250E-01 0.79859818E+03</pdfrwt>
<totfact> 0.16249492E+01</totfact>
</mgrwt>
</event>
<event>
12    1  0.7781383E-008  0.6671675E+03  0.7818608E-02  0.9775088E-01
         -2   -1    0    0    0  501 -0.00000000000E+00  0.00000000000E+00  0.38449707734E+03  0.38449707734E+03  0.00000000000E+00 0. -1.
          2   -1    0    0  501    0  0.00000000000E+00 -0.00000000000E+00 -0.18427311367E+04  0.18427311367E+04  0.00000000000E+00 0.  1.
         23    2    1    2    0    0  0.57298688413E+03  0.16961744438E+03 -0.80288272919E+02  0.60988160916E+03  0.91789561487E+02 0.  0.
    5000000    2    1    2    0    0 -0.57298688413E+03 -0.16961744438E+03 -0.13779457864E+04  0.16173466049E+04  0.59999283591E+03 0.  0.
         23    2    4    4    0    0 -0.11861807990E+03 -0.23828639123E+03 -0.92167906809E+03  0.96342217088E+03  0.88539943917E+02 0.  0.
         23    2    4    4    0    0 -0.45436880423E+03  0.68668946845E+02 -0.45626671834E+03  0.65392443400E+03  0.90947306680E+02 0.  0.
          4    1    3    3  502    0  0.32444643452E+03  0.76756842429E+02 -0.25716655794E+01  0.33341223012E+03  0.00000000000E+00 0. -1.
         -4    1    3    3    0  502  0.24854044961E+03  0.92860601952E+02 -0.77716607339E+02  0.27646937903E+03  0.00000000000E+00 0.  1.
         15    1    5    5    0    0 -0.20130503701E+02 -0.66545117760E+02 -0.38839910246E+03  0.39457636827E+03  0.17770000000E+01 0. -1.
        -15    1    5    5    0    0 -0.98487576195E+02 -0.17174127347E+03 -0.53327996563E+03  0.56884580261E+03  0.17770000000E+01 0.  1.
          2    1    6    6  503    0 -0.24563531469E+03  0.81896801226E+02 -0.23958466721E+03  0.35276707136E+03  0.00000000000E+00 0. -1.
         -2    1    6    6    0  503 -0.20873348955E+03 -0.13227854380E+02 -0.21668205114E+03  0.30115736264E+03  0.00000000000E+00 0.  1.
<mgrwt>
<rscale>  0 0.66716750E+03</rscale>
<asrwt>0</asrwt>
<pdfrwt beam="1">  1        2 0.28349710E+00 0.66716750E+03</pdfrwt>
<pdfrwt beam="2">  1       -2 0.59153395E-01 0.66716750E+03</pdfrwt>
<totfact> 0.22728675E+01</totfact>
</mgrwt>
</event>
<event>
12    1  0.7781383E-008  0.6999748E+03  0.7818608E-02  0.9717275E-01
          2   -1    0    0  501    0  0.00000000000E+00  0.00000000000E+00  0.91818779856E+03  0.91818779856E+03  0.00000000000E+00 0.  1.
         -2   -1    0    0    0  501 -0.00000000000E+00 -0.00000000000E+00 -0.73295939923E+03  0.73295939923E+03  0.00000000000E+00 0. -1.
         23    2    1    2    0    0 -0.52462532788E+03  0.25493967629E+03 -0.32135187025E+03  0.67292427130E+03  0.96613028005E+02 0.  0.
    5000000    2    1    2    0    0  0.52462532788E+03 -0.25493967629E+03  0.50658026958E+03  0.97822292650E+03  0.60005878978E+03 0.  0.
         23    2    4    4    0    0 -0.10141078849E+03 -0.12067666396E+03  0.17416021772E+03  0.25093460998E+03  0.88257531154E+02 0.  0.
         23    2    4    4    0    0  0.62603611637E+03 -0.13426301233E+03  0.33242005187E+03  0.72728831651E+03  0.92181500174E+02 0.  0.
          3    1    3    3  502    0 -0.18440454994E+03  0.10848887374E+03 -0.16801876924E+03  0.27203893211E+03  0.00000000000E+00 0. -1.
         -3    1    3    3    0  502 -0.34022077794E+03  0.14645080255E+03 -0.15333310101E+03  0.40088533919E+03  0.00000000000E+00 0.  1.
         15    1    5    5    0    0 -0.25407259566E+02  0.68317371784E+01  0.68216053374E+01  0.27237722003E+02  0.17770000000E+01 0. -1.
        -15    1    5    5    0    0 -0.76003528921E+02 -0.12750840114E+03  0.16733861238E+03  0.22369688798E+03  0.17770000000E+01 0.  1.
          1    1    6    6  503    0  0.35065811694E+03 -0.62307316056E+02  0.23392748899E+03  0.42610490107E+03  0.00000000000E+00 0. -1.
         -1    1    6    6    0  503  0.27537799943E+03 -0.71955696277E+02  0.98492562874E+02  0.30118341544E+03  0.00000000000E+00 0.  1.
<mgrwt>
<rscale>  0 0.69997476E+03</rscale>
<asrwt>0</asrwt>
<pdfrwt beam="1">  1        2 0.14125966E+00 0.69997476E+03</pdfrwt>
<pdfrwt beam="2">  1       -2 0.11276298E+00 0.69997476E+03</pdfrwt>
<totfact> 0.18007793E+01</totfact>
</mgrwt>
</event>
<event>
12    1  0.7781383E-008  0.7319310E+03  0.7818608E-02  0.9664132E-01
         -2   -1    0    0    0  501 -0.00000000000E+00  0.00000000000E+00  0.45626114384E+03  0.45626114384E+03  0.00000000000E+00 0.  1.
          2   -1    0    0  501    0  0.00000000000E+00 -0.00000000000E+00 -0.13615348508E+04  0.13615348508E+04  0.00000000000E+00 0. -1.
         23    2    1    2    0    0 -0.41250345620E+03  0.46597675042E+03 -0.10081207383E+03  0.63696567462E+03  0.90932739451E+02 0.  0.
    5000000    2    1    2    0    0  0.41250345620E+03 -0.46597675042E+03 -0.80446163311E+03  0.11808303200E+04  0.59992357196E+03 0.  0.
         23    2    4    4    0    0  0.48770142843E+03 -0.16629926595E+03 -0.37593243237E+03  0.64477337011E+03  0.94336503795E+02 0.  0.
         23    2    4    4    0    0 -0.75197972229E+02 -0.29967748446E+03 -0.42852920074E+03  0.53605694989E+03  0.90876002982E+02 0.  0.
          1    1    3    3  502    0 -0.14347726398E+03  0.22931759142E+03 -0.49741537224E+02  0.27503909456E+03  0.00000000000E+00 0. -1.
         -1    1    3    3    0  502 -0.26902619223E+03  0.23665915900E+03 -0.51070536601E+02  0.36192658006E+03  0.00000000000E+00 0.  1.
         15    1    5    5    0    0  0.10649776295E+03 -0.34413792008E+02 -0.36951407097E+02  0.11787555646E+03  0.17770000000E+01 0. -1.
        -15    1    5    5    0    0  0.38120366548E+03 -0.13188547395E+03 -0.33898102527E+03  0.52689781366E+03  0.17770000000E+01 0.  1.
          3    1    6    6  503    0 -0.91528205649E+02 -0.21778125928E+03 -0.34337907192E+03  0.41679164622E+03  0.00000000000E+00 0. -1.
         -3    1    6    6    0  503  0.16330233420E+02 -0.81896225179E+02 -0.85150128823E+02  0.11926530368E+03  0.00000000000E+00 0.  1.
<mgrwt>
<rscale>  0 0.73193096E+03</rscale>
<asrwt>0</asrwt>
<pdfrwt beam="1">  1        2 0.20946690E+00 0.73193096E+03</pdfrwt>
<pdfrwt beam="2">  1       -2 0.70194022E-01 0.73193096E+03</pdfrwt>
<totfact> 0.28786056E+01</totfact>
</mgrwt>
</event>
<event>
12    1  0.7781383E-008  0.7316566E+03  0.7818608E-02  0.9664576E-01
          1   -1    0    0  501    0  0.00000000000E+00  0.00000000000E+00  0.11795447645E+04  0.11795447645E+04  0.00000000000E+00 0. -1.
         -1   -1    0    0    0  501 -0.00000000000E+00 -0.00000000000E+00 -0.54436527754E+03  0.54436527754E+03  0.00000000000E+00 0.  1.
         23    2    1    2    0    0 -0.24232412249E+03  0.63784485895E+03  0.19693135843E+03  0.71505357988E+03  0.83382358699E+02 0.  0.
    5000000    2    1    2    0    0  0.24232412249E+03 -0.63784485895E+03  0.43824812851E+03  0.10088564621E+04  0.60013573018E+03 0.  0.
         23    2    4    4    0    0  0.36195660402E+02 -0.51086952974E+03  0.52156003218E+03  0.73675360029E+03  0.92104278528E+02 0.  0.
         23    2    4    4    0    0  0.20612846209E+03 -0.12697532920E+03 -0.83311903669E+02  0.27210286185E+03  0.92127178541E+02 0.  0.
          2    1    3    3  502    0 -0.93996062846E+02  0.17336520618E+03  0.85212357003E+02  0.21482993351E+03  0.00000000000E+00 0. -1.
         -2    1    3    3    0  502 -0.14832805964E+03  0.46447965277E+03  0.11171900143E+03  0.50022364637E+03  0.00000000000E+00 0.  1.
         15    1    5    5    0    0 -0.28836314944E+02 -0.10015086166E+03  0.11459670318E+03  0.15491058795E+03  0.17770000000E+01 0.  1.
        -15    1    5    5    0    0  0.65031975346E+02 -0.41071866808E+03  0.40696332900E+03  0.58184301234E+03  0.17770000000E+01 0. -1.
          2    1    6    6  503    0  0.11447967230E+03 -0.17727527811E+02 -0.28223911464E+02  0.11923275469E+03  0.00000000000E+00 0. -1.
         -2    1    6    6    0  503  0.91648789784E+02 -0.10924780139E+03 -0.55087992205E+02  0.15287010716E+03  0.00000000000E+00 0.  1.
<mgrwt>
<rscale>  0 0.73165662E+03</rscale>
<asrwt>0</asrwt>
<pdfrwt beam="1">  1        1 0.18146843E+00 0.73165662E+03</pdfrwt>
<pdfrwt beam="2">  1       -1 0.83748504E-01 0.73165662E+03</pdfrwt>
<totfact> 0.16178852E+01</totfact>
</mgrwt>
</event>
<event>
12    1  0.7781383E-008  0.8328350E+03  0.7818608E-02  0.9513669E-01
         -1   -1    0    0    0  501 -0.00000000000E+00  0.00000000000E+00  0.12967087927E+04  0.12967087927E+04  0.00000000000E+00 0.  1.
          1   -1    0    0  501    0  0.00000000000E+00 -0.00000000000E+00 -0.62426964478E+03  0.62426964478E+03  0.00000000000E+00 0. -1.
         23    2    1    2    0    0 -0.78204901508E+03  0.66175946497E+02  0.15399193390E+03  0.80499006700E+03  0.91189771296E+02 0.  0.
    5000000    2    1    2    0    0  0.78204901508E+03 -0.66175946497E+02  0.51844721398E+03  0.11159883704E+04  0.60055192229E+03 0.  0.
         23    2    4    4    0    0  0.71146352155E+03  0.68981967188E+02  0.58298865045E+03  0.92712673760E+03  0.93538049592E+02 0.  0.
         23    2    4    4    0    0  0.70585493525E+02 -0.13515791368E+03 -0.64541436462E+02  0.18886163283E+03  0.90846826078E+02 0.  0.
          1    1    3    3  502    0 -0.40057061700E+03 -0.19120680700E+01  0.49355543480E+02  0.40360431722E+03  0.00000000000E+00 0. -1.
         -1    1    3    3    0  502 -0.38147839808E+03  0.68088014567E+02  0.10463639042E+03  0.40138574978E+03  0.00000000000E+00 0.  1.
         15    1    5    5    0    0  0.57076822964E+03  0.56828335832E+02  0.41681157412E+03  0.70904222566E+03  0.17770000000E+01 0.  1.
        -15    1    5    5    0    0  0.14069529191E+03  0.12153631356E+02  0.16617707632E+03  0.21808451193E+03  0.17770000000E+01 0. -1.
          4    1    6    6  503    0  0.64362125476E+02 -0.62082965329E+02 -0.72459049999E+02  0.11509601082E+03  0.00000000000E+00 0. -1.
         -4    1    6    6    0  503  0.62233680487E+01 -0.73074948355E+02  0.79176135374E+01  0.73765622014E+02  0.00000000000E+00 0.  1.
<mgrwt>
<rscale>  0 0.83283496E+03</rscale>
<asrwt>0</asrwt>
<pdfrwt beam="1">  1        1 0.96041484E-01 0.83283496E+03</pdfrwt>
<pdfrwt beam="2">  1       -1 0.19949366E+00 0.83283496E+03</pdfrwt>
<totfact> 0.50236967E+00</totfact>
</mgrwt>
</event>
<event>
12    1  0.7781383E-008  0.1597357E+04  0.7818608E-02  0.8822173E-01
          1   -1    0    0  501    0  0.00000000000E+00  0.00000000000E+00  0.20165163600E+04  0.20165163600E+04  0.00000000000E+00 0. -1.
         -1   -1    0    0    0  501 -0.00000000000E+00 -0.00000000000E+00 -0.13081259750E+04  0.13081259750E+04  0.00000000000E+00 0.  1.
         23    2    1    2    0    0 -0.67484119542E+03  0.14139922139E+04  0.38698348303E+03  0.16163898304E+04  0.90417077232E+02 0.  0.
    5000000    2    1    2    0    0  0.67484119542E+03 -0.14139922139E+04  0.32140690191E+03  0.17082525046E+04  0.60003300148E+03 0.  0.
         23    2    4    4    0    0  0.67581397240E+03 -0.13836446447E+04  0.19897072867E+03  0.15552232481E+04  0.89067236480E+02 0.  0.
         23    2    4    4    0    0 -0.97277697678E+00 -0.30347569157E+02  0.12243617325E+03  0.15302925642E+03  0.86633801437E+02 0.  0.
          2    1    3    3  502    0 -0.53554458486E+03  0.11193563020E+04  0.34392307997E+03  0.12876527553E+04  0.00000000000E+00 0. -1.
         -2    1    3    3    0  502 -0.13929661056E+03  0.29463591187E+03  0.43060403058E+02  0.32873707516E+03  0.00000000000E+00 0.  1.
         15    1    5    5    0    0  0.91513598345E+02 -0.17939255662E+03 -0.38156375753E+01  0.20143024816E+03  0.17770000000E+01 0.  1.
        -15    1    5    5    0    0  0.58430037405E+03 -0.12042520881E+04  0.20278636624E+03  0.13537930000E+04  0.17770000000E+01 0. -1.
          4    1    6    6  503    0 -0.39210674681E+02 -0.76077624705E-02  0.76682533001E+02  0.86126000338E+02  0.00000000000E+00 0. -1.
         -4    1    6    6    0  503  0.38237897704E+02 -0.30339961395E+02  0.45753640247E+02  0.66903256080E+02  0.00000000000E+00 0.  1.
<mgrwt>
<rscale>  0 0.15973571E+04</rscale>
<asrwt>0</asrwt>
<pdfrwt beam="1">  1        1 0.31023329E+00 0.15973571E+04</pdfrwt>
<pdfrwt beam="2">  1       -1 0.20125015E+00 0.15973571E+04</pdfrwt>
<totfact> 0.40082955E-01</totfact>
</mgrwt>
</event>
<event>
12    1  0.7781383E-008  0.8998004E+03  0.7818608E-02  0.9425831E-01
         -2   -1    0    0    0  501 -0.00000000000E+00  0.00000000000E+00  0.69217290520E+03  0.69217290520E+03  0.00000000000E+00 0.  1.
          2   -1    0    0  501    0  0.00000000000E+00 -0.00000000000E+00 -0.21749259131E+04  0.21749259131E+04  0.00000000000E+00 0. -1.
         23    2    1    2    0    0 -0.18962073182E+03 -0.80781733977E+03  0.23522149683E+03  0.86710626844E+03  0.89550275429E+02 0.  0.
    5000000    2    1    2    0    0  0.18962073182E+03  0.80781733977E+03 -0.17179745047E+04  0.19999925498E+04  0.60000743678E+03 0.  0.
         23    2    4    4    0    0  0.91587137491E+01  0.77724075111E+03 -0.15456946899E+04  0.17324807316E+04  0.90168419160E+02 0.  0.
         23    2    4    4    0    0  0.18046201807E+03  0.30576588665E+02 -0.17227981485E+03  0.26751181826E+03  0.91546548595E+02 0.  0.
          3    1    3    3  502    0 -0.74641487214E+02 -0.39637146638E+03  0.15687688171E+03  0.43277251182E+03  0.00000000000E+00 0. -1.
         -3    1    3    3    0  502 -0.11497924461E+03 -0.41144587339E+03  0.78344615121E+02  0.43433375662E+03  0.00000000000E+00 0.  1.
         15    1    5    5    0    0  0.39464842208E+02  0.45115942198E+03 -0.95940176706E+03  0.10609228088E+04  0.17770000000E+01 0.  1.
        -15    1    5    5    0    0 -0.30306128459E+02  0.32608132912E+03 -0.58629292279E+03  0.67155792280E+03  0.17770000000E+01 0. -1.
          3    1    6    6  503    0  0.12720759967E+03 -0.12073860432E+00 -0.62587315570E+02  0.14177080117E+03  0.00000000000E+00 0. -1.
         -3    1    6    6    0  503  0.53254418400E+02  0.30697327269E+02 -0.10969249928E+03  0.12574101709E+03  0.00000000000E+00 0.  1.
<mgrwt>
<rscale>  0 0.89980041E+03</rscale>
<asrwt>0</asrwt>
<pdfrwt beam="1">  1        2 0.33460399E+00 0.89980041E+03</pdfrwt>
<pdfrwt beam="2">  1       -2 0.10648814E+00 0.89980041E+03</pdfrwt>
<totfact> 0.38524338E+00</totfact>
</mgrwt>
</event>
<event>
12    1  0.7781383E-008  0.1992901E+04  0.7818608E-02  0.8609947E-01
         -2   -1    0    0    0  501 -0.00000000000E+00  0.00000000000E+00  0.18298875701E+04  0.18298875701E+04  0.00000000000E+00 0.  1.
          2   -1    0    0  501    0  0.00000000000E+00 -0.00000000000E+00 -0.23843091976E+04  0.23843091976E+04  0.00000000000E+00 0. -1.
         23    2    1    2    0    0  0.17306031430E+04 -0.90630498927E+03 -0.88031877768E+03  0.21447261309E+04  0.92266214110E+02 0.  0.
    5000000    2    1    2    0    0 -0.17306031430E+04  0.90630498927E+03  0.32589715014E+03  0.20694706367E+04  0.60010315102E+03 0.  0.
         23    2    4    4    0    0 -0.38250640968E+03 -0.31479604972E+02  0.63802283484E+01  0.39395897243E+03  0.88661410228E+02 0.  0.
         23    2    4    4    0    0 -0.13480967333E+04  0.93778459424E+03  0.31951692180E+03  0.16755116643E+04  0.91888663460E+02 0.  0.
          1    1    3    3  502    0  0.89636010794E+03 -0.51557003269E+03 -0.44229803716E+03  0.11246783786E+04  0.00000000000E+00 0. -1.
         -1    1    3    3    0  502  0.83424303501E+03 -0.39073495658E+03 -0.43802074053E+03  0.10200477523E+04  0.00000000000E+00 0.  1.
         15    1    5    5    0    0 -0.16083554878E+03 -0.32540854823E+02  0.42102034475E+02  0.16941877115E+03  0.17770000000E+01 0.  1.
        -15    1    5    5    0    0 -0.22167086091E+03  0.10612498514E+01 -0.35721806126E+02  0.22454020127E+03  0.17770000000E+01 0. -1.
          4    1    6    6  503    0 -0.23743185143E+03  0.20909881759E+03  0.58473940857E+02  0.32173809434E+03  0.00000000000E+00 0.  1.
         -4    1    6    6    0  503 -0.11106648818E+04  0.72868577665E+03  0.26104298094E+03  0.13537735700E+04  0.00000000000E+00 0. -1.
<mgrwt>
<rscale>  0 0.19929013E+04</rscale>
<asrwt>0</asrwt>
<pdfrwt beam="1">  1        2 0.36681680E+00 0.19929013E+04</pdfrwt>
<pdfrwt beam="2">  1       -2 0.28152117E+00 0.19929013E+04</pdfrwt>
<totfact> 0.14874667E-01</totfact>
</mgrwt>
</event>
<event>
12    1  0.7781383E-008  0.1216713E+04  0.7818608E-02  0.9098352E-01
          1   -1    0    0  501    0  0.00000000000E+00  0.00000000000E+00  0.14111924073E+04  0.14111924073E+04  0.00000000000E+00 0. -1.
         -1   -1    0    0    0  501 -0.00000000000E+00 -0.00000000000E+00 -0.11165692608E+04  0.11165692608E+04  0.00000000000E+00 0.  1.
         23    2    1    2    0    0  0.11167124122E+04  0.38642802375E+03  0.12672748518E+03  0.11918947823E+04  0.90443836309E+02 0.  0.
    5000000    2    1    2    0    0 -0.11167124122E+04 -0.38642802375E+03  0.16789566128E+03  0.13358668858E+04  0.59998179504E+03 0.  0.
         23    2    4    4    0    0 -0.25765032723E+03 -0.26147119701E+03  0.25834623759E+03  0.45843458219E+03  0.93105368695E+02 0.  0.
         23    2    4    4    0    0 -0.85906208494E+03 -0.12495682674E+03 -0.90450576311E+02  0.87743230358E+03  0.90023698443E+02 0.  0.
          2    1    3    3  502    0  0.58496968834E+03  0.23737792323E+03  0.98496749097E+02  0.63893616605E+03  0.00000000000E+00 0. -1.
         -2    1    3    3    0  502  0.53174272383E+03  0.14905010053E+03  0.28230736085E+02  0.55295861624E+03  0.00000000000E+00 0.  1.
         15    1    5    5    0    0 -0.88800042578E+02 -0.36207786888E+02  0.82401444708E+02  0.12645001863E+03  0.17770000000E+01 0. -1.
        -15    1    5    5    0    0 -0.16885028465E+03 -0.22526341012E+03  0.17594479288E+03  0.33198456356E+03  0.17770000000E+01 0.  1.
          3    1    6    6  503    0 -0.15579784507E+03  0.10913440386E+02 -0.72579765901E+01  0.15634816895E+03  0.00000000000E+00 0. -1.
         -3    1    6    6    0  503 -0.70326423986E+03 -0.13587026713E+03 -0.83192599721E+02  0.72108413463E+03  0.00000000000E+00 0.  1.
<mgrwt>
<rscale>  0 0.12167129E+04</rscale>
<asrwt>0</asrwt>
<pdfrwt beam="1">  1        1 0.21710652E+00 0.12167129E+04</pdfrwt>
<pdfrwt beam="2">  1       -1 0.17177989E+00 0.12167129E+04</pdfrwt>
<totfact> 0.17624905E+00</totfact>
</mgrwt>
</event>
<event>
12    1  0.7781383E-008  0.6184040E+03  0.7818608E-02  0.9867942E-01
         -2   -1    0    0    0  501 -0.00000000000E+00  0.00000000000E+00  0.29762816002E+03  0.29762816002E+03  0.00000000000E+00 0.  1.
          2   -1    0    0  501    0  0.00000000000E+00 -0.00000000000E+00 -0.18057062521E+04  0.18057062521E+04  0.00000000000E+00 0. -1.
         23    2    1    2    0    0 -0.41182738087E+03  0.36157801847E+03 -0.10043019485E+04  0.11473798175E+04  0.86704018520E+02 0.  0.
    5000000    2    1    2    0    0  0.41182738087E+03 -0.36157801847E+03 -0.50377614361E+03  0.95595459461E+03  0.59976522825E+03 0.  0.
         23    2    4    4    0    0  0.47490391821E+03 -0.38602939944E+03 -0.23089072901E+03  0.66047130217E+03  0.91429664169E+02 0.  0.
         23    2    4    4    0    0 -0.63076537335E+02  0.24451380977E+02 -0.27288541460E+03  0.29548329244E+03  0.90925282591E+02 0.  0.
          3    1    3    3  502    0 -0.37724722686E+03  0.35734673462E+03 -0.95097897797E+03  0.10836849983E+04  0.00000000000E+00 0. -1.
         -3    1    3    3    0  502 -0.34580154012E+02  0.42312838435E+01 -0.53322970495E+02  0.63694819231E+02  0.00000000000E+00 0.  1.
         15    1    5    5    0    0  0.13020867210E+03 -0.77325703812E+02 -0.22982382944E+02  0.15318260481E+03  0.17770000000E+01 0. -1.
        -15    1    5    5    0    0  0.34469524610E+03 -0.30870369563E+03 -0.20790834606E+03  0.50728869737E+03  0.17770000000E+01 0.  1.
          1    1    6    6  503    0 -0.12308515155E+02  0.13227277040E+01  0.40186013783E+01  0.13015310635E+02  0.00000000000E+00 0. -1.
         -1    1    6    6    0  503 -0.50768022180E+02  0.23128653273E+02 -0.27690401598E+03  0.28246798180E+03  0.00000000000E+00 0.  1.
<mgrwt>
<rscale>  0 0.61840400E+03</rscale>
<asrwt>0</asrwt>
<pdfrwt beam="1">  1        2 0.27780097E+00 0.61840400E+03</pdfrwt>
<pdfrwt beam="2">  1       -2 0.45788947E-01 0.61840400E+03</pdfrwt>
<totfact> 0.40503256E+01</totfact>
</mgrwt>
</event>
<event>
12    1  0.7781383E-008  0.4459468E+03  0.7818608E-02  0.1028938E+00
         -1   -1    0    0    0  501 -0.00000000000E+00  0.00000000000E+00  0.64270162784E+03  0.64270162784E+03  0.00000000000E+00 0.  1.
          1   -1    0    0  501    0  0.00000000000E+00 -0.00000000000E+00 -0.54737492539E+03  0.54737492539E+03  0.00000000000E+00 0. -1.
         23    2    1    2    0    0  0.24357539831E+03 -0.32780587109E+03 -0.11626289319E+03  0.43406221453E+03  0.90040446280E+02 0.  0.
    5000000    2    1    2    0    0 -0.24357539831E+03  0.32780587109E+03  0.21158959564E+03  0.75601433869E+03  0.60000154962E+03 0.  0.
         23    2    4    4    0    0 -0.66131584294E+02  0.98516730838E+01  0.34073252816E+03  0.35926412627E+03  0.92204201523E+02 0.  0.
         23    2    4    4    0    0 -0.17744381401E+03  0.31795419801E+03 -0.12914293252E+03  0.39675021242E+03  0.90286515444E+02 0.  0.
          3    1    3    3  502    0  0.10737414787E+03 -0.11143375801E+03 -0.39173344196E+01  0.15479675566E+03  0.00000000000E+00 0. -1.
         -3    1    3    3    0  502  0.13620125044E+03 -0.21637211309E+03 -0.11234555877E+03  0.27926545887E+03  0.00000000000E+00 0.  1.
         15    1    5    5    0    0 -0.37252228389E+02 -0.39471658817E+02  0.20287689899E+03  0.21001889020E+03  0.17770000000E+01 0. -1.
        -15    1    5    5    0    0 -0.28879355905E+02  0.49323331901E+02  0.13785562917E+03  0.14924523607E+03  0.17770000000E+01 0.  1.
          3    1    6    6  503    0 -0.29490664634E+02  0.15570779032E+02 -0.32375291993E+02  0.46479113502E+02  0.00000000000E+00 0. -1.
         -3    1    6    6    0  503 -0.14795314938E+03  0.30238341898E+03 -0.96767640528E+02  0.35027109892E+03  0.00000000000E+00 0.  1.
<mgrwt>
<rscale>  0 0.44594677E+03</rscale>
<asrwt>0</asrwt>
<pdfrwt beam="1">  1        1 0.84211527E-01 0.44594677E+03</pdfrwt>
<pdfrwt beam="2">  1       -1 0.98877173E-01 0.44594677E+03</pdfrwt>
<totfact> 0.40489833E+01</totfact>
</mgrwt>
</event>
<event>
12    1  0.7781383E-008  0.1191338E+04  0.7818608E-02  0.9120472E-01
          2   -1    0    0  501    0  0.00000000000E+00  0.00000000000E+00  0.24978641615E+04  0.24978641615E+04  0.00000000000E+00 0. -1.
         -2   -1    0    0    0  501 -0.00000000000E+00 -0.00000000000E+00 -0.65835548676E+03  0.65835548676E+03  0.00000000000E+00 0.  1.
         23    2    1    2    0    0  0.10536663510E+04  0.41778393054E+03  0.13932776861E+04  0.17983189975E+04  0.89287817546E+02 0.  0.
    5000000    2    1    2    0    0 -0.10536663510E+04 -0.41778393054E+03  0.44623098857E+03  0.13579006507E+04  0.60001324151E+03 0.  0.
         23    2    4    4    0    0 -0.12164151401E+03  0.10176346590E+03  0.18060126502E+03  0.25434906538E+03  0.83211593011E+02 0.  0.
         23    2    4    4    0    0 -0.93202483702E+03 -0.51954739644E+03  0.26562972355E+03  0.11035515853E+04  0.93097569091E+02 0.  0.
          4    1    3    3  502    0  0.43054049006E+03  0.20813210347E+03  0.54411438559E+03  0.72439253908E+03  0.00000000000E+00 0. -1.
         -4    1    3    3    0  502  0.62312586098E+03  0.20965182708E+03  0.84916330053E+03  0.10739264585E+04  0.00000000000E+00 0.  1.
         15    1    5    5    0    0 -0.24057710840E+02  0.72840907206E+02  0.67641817779E+02  0.10228951293E+03  0.17770000000E+01 0.  1.
        -15    1    5    5    0    0 -0.97583803174E+02  0.28922558693E+02  0.11295944724E+03  0.15205955246E+03  0.17770000000E+01 0. -1.
          1    1    6    6  503    0 -0.63098624476E+02 -0.19943332757E+02 -0.17034963865E+01  0.66197241877E+02  0.00000000000E+00 0. -1.
         -1    1    6    6    0  503 -0.86892621254E+03 -0.49960406368E+03  0.26733321994E+03  0.10373543434E+04  0.00000000000E+00 0.  1.
<mgrwt>
<rscale>  0 0.11913383E+04</rscale>
<asrwt>0</asrwt>
<pdfrwt beam="1">  1        2 0.38428679E+00 0.11913383E+04</pdfrwt>
<pdfrwt beam="2">  1       -2 0.10128546E+00 0.11913383E+04</pdfrwt>
<totfact> 0.27529979E+00</totfact>
</mgrwt>
</event>
<event>
12    1  0.7781383E-008  0.8142031E+03  0.7818608E-02  0.9539683E-01
         -1   -1    0    0    0  501 -0.00000000000E+00  0.00000000000E+00  0.92130421111E+03  0.92130421111E+03  0.00000000000E+00 0.  1.
          1   -1    0    0  501    0  0.00000000000E+00 -0.00000000000E+00 -0.94940076093E+03  0.94940076093E+03  0.00000000000E+00 0. -1.
         23    2    1    2    0    0  0.17028258254E+03  0.68754809452E+03  0.43193723030E+03  0.83471425910E+03  0.91975992746E+02 0.  0.
    5000000    2    1    2    0    0 -0.17028258254E+03 -0.68754809452E+03 -0.46003378012E+03  0.10359907129E+04  0.59993927881E+03 0.  0.
         23    2    4    4    0    0 -0.24866433833E+03 -0.39567690054E+02 -0.11201680631E+03  0.29012578739E+03  0.90695382242E+02 0.  0.
         23    2    4    4    0    0  0.78381755792E+02 -0.64798040446E+03 -0.34801697381E+03  0.74586492555E+03  0.95793365584E+02 0.  0.
          4    1    3    3  502    0  0.24052134814E+02  0.27264330473E+03  0.18301096958E+03  0.32925050006E+03  0.00000000000E+00 0. -1.
         -4    1    3    3    0  502  0.14623044773E+03  0.41490478978E+03  0.24892626071E+03  0.50546375904E+03  0.00000000000E+00 0.  1.
         15    1    5    5    0    0 -0.16244892073E+03 -0.54410876588E+02 -0.10800894946E+03  0.20253218566E+03  0.17770000000E+01 0. -1.
        -15    1    5    5    0    0 -0.86215417601E+02  0.14843186534E+02 -0.40078568561E+01  0.87593601731E+02  0.17770000000E+01 0.  1.
          2    1    6    6  503    0  0.86569656459E+02 -0.47794456926E+03 -0.22191987002E+03  0.53401661529E+03  0.00000000000E+00 0.  1.
         -2    1    6    6    0  503 -0.81879006669E+01 -0.17003583521E+03 -0.12609710379E+03  0.21184831025E+03  0.00000000000E+00 0. -1.
<mgrwt>
<rscale>  0 0.81420311E+03</rscale>
<asrwt>0</asrwt>
<pdfrwt beam="1">  1        1 0.14606166E+00 0.81420311E+03</pdfrwt>
<pdfrwt beam="2">  1       -1 0.14173911E+00 0.81420311E+03</pdfrwt>
<totfact> 0.69014087E+00</totfact>
</mgrwt>
</event>
<event>
12    1  0.7781383E-008  0.8675767E+03  0.7818608E-02  0.9467045E-01
          2   -1    0    0  501    0  0.00000000000E+00  0.00000000000E+00  0.16513817364E+04  0.16513817364E+04  0.00000000000E+00 0. -1.
         -2   -1    0    0    0  501 -0.00000000000E+00 -0.00000000000E+00 -0.84665211438E+03  0.84665211438E+03  0.00000000000E+00 0.  1.
         23    2    1    2    0    0  0.59444706250E+03 -0.49712319785E+03 -0.45408057598E+03  0.90276936920E+03  0.91129471254E+02 0.  0.
    5000000    2    1    2    0    0 -0.59444706250E+03  0.49712319785E+03  0.12588101980E+04  0.15952644816E+04  0.59980569156E+03 0.  0.
         23    2    4    4    0    0 -0.47615045140E+03  0.61353834971E+03  0.90572729867E+03  0.11963454819E+04  0.88045520006E+02 0.  0.
         23    2    4    4    0    0 -0.11829661110E+03 -0.11641515186E+03  0.35308289934E+03  0.39891899967E+03  0.83200112464E+02 0.  0.
          1    1    3    3  502    0  0.45328170135E+03 -0.33531652590E+03 -0.30175977751E+03  0.63950014593E+03  0.00000000000E+00 0. -1.
         -1    1    3    3    0  502  0.14116536115E+03 -0.16180667195E+03 -0.15232079847E+03  0.26326922327E+03  0.00000000000E+00 0.  1.
         15    1    5    5    0    0 -0.54245483688E+02  0.11811858502E+03  0.13030726457E+03  0.18405899477E+03  0.17770000000E+01 0.  1.
        -15    1    5    5    0    0 -0.42190496771E+03  0.49541976469E+03  0.77542003410E+03  0.10122864871E+04  0.17770000000E+01 0. -1.
          1    1    6    6  503    0 -0.11719808511E+03 -0.85817767064E+02  0.22955561919E+03  0.27165393904E+03  0.00000000000E+00 0. -1.
         -1    1    6    6    0  503 -0.10985259930E+01 -0.30597384795E+02  0.12352728015E+03  0.12726506063E+03  0.00000000000E+00 0.  1.
<mgrwt>
<rscale>  0 0.86757667E+03</rscale>
<asrwt>0</asrwt>
<pdfrwt beam="1">  1        2 0.25405873E+00 0.86757667E+03</pdfrwt>
<pdfrwt beam="2">  1       -2 0.13025417E+00 0.86757667E+03</pdfrwt>
<totfact> 0.45612713E+00</totfact>
</mgrwt>
</event>
<event>
12    1  0.7781383E-008  0.9574902E+03  0.7818608E-02  0.9356438E-01
         -1   -1    0    0    0  501 -0.00000000000E+00  0.00000000000E+00  0.65932140714E+03  0.65932140714E+03  0.00000000000E+00 0.  1.
          1   -1    0    0  501    0  0.00000000000E+00 -0.00000000000E+00 -0.20794826322E+04  0.20794826322E+04  0.00000000000E+00 0. -1.
         23    2    1    2    0    0 -0.49327270435E+03 -0.80321873937E+03 -0.13095089583E+04  0.16159866095E+04  0.90114960596E+02 0.  0.
    5000000    2    1    2    0    0  0.49327270435E+03  0.80321873937E+03 -0.11065226673E+03  0.11228174298E+04  0.59999729368E+03 0.  0.
         23    2    4    4    0    0  0.95776895482E+02  0.13486112103E+03 -0.26436485992E+03  0.32503474269E+03  0.91640979498E+02 0.  0.
         23    2    4    4    0    0  0.39749580887E+03  0.66835761833E+03  0.15371259318E+03  0.79778268712E+03  0.90137841734E+02 0.  0.
          3    1    3    3  502    0 -0.32843039122E+03 -0.61092118035E+03 -0.95843492205E+03  0.11830844054E+04  0.00000000000E+00 0. -1.
         -3    1    3    3    0  502 -0.16484231313E+03 -0.19229755902E+03 -0.35107403624E+03  0.43290220411E+03  0.00000000000E+00 0.  1.
         15    1    5    5    0    0 -0.92850645008E+01  0.49436944905E+02 -0.10094756441E+03  0.11279978915E+03  0.17770000000E+01 0. -1.
        -15    1    5    5    0    0  0.10506195998E+03  0.85424176128E+02 -0.16341729551E+03  0.21223495354E+03  0.17770000000E+01 0.  1.
          4    1    6    6  503    0  0.15842459864E+03  0.35022793706E+03  0.89703686326E+02  0.39472105682E+03  0.00000000000E+00 0. -1.
         -4    1    6    6    0  503  0.23907121023E+03  0.31812968127E+03  0.64008906855E+02  0.40306163030E+03  0.00000000000E+00 0.  1.
<mgrwt>
<rscale>  0 0.95749023E+03</rscale>
<asrwt>0</asrwt>
<pdfrwt beam="1">  1        1 0.31992040E+00 0.95749023E+03</pdfrwt>
<pdfrwt beam="2">  1       -1 0.10143406E+00 0.95749023E+03</pdfrwt>
<totfact> 0.24723017E+00</totfact>
</mgrwt>
</event>
<event>
12    1  0.7781383E-008  0.1622142E+04  0.7818608E-02  0.8807059E-01
         -2   -1    0    0    0  501 -0.00000000000E+00  0.00000000000E+00  0.94139486318E+03  0.94139486318E+03  0.00000000000E+00 0.  1.
          2   -1    0    0  501    0  0.00000000000E+00 -0.00000000000E+00 -0.28066340781E+04  0.28066340781E+04  0.00000000000E+00 0. -1.
         23    2    1    2    0    0  0.11254292917E+04 -0.10893077450E+04 -0.10027099739E+04  0.18620070437E+04  0.91980894596E+02 0.  0.
    5000000    2    1    2    0    0 -0.11254292917E+04  0.10893077450E+04 -0.86252924098E+03  0.18860218976E+04  0.59994954171E+03 0.  0.
         23    2    4    4    0    0 -0.85082863923E+02  0.42008477070E+03 -0.19090228544E+03  0.47602195717E+03  0.80267757038E+02 0.  0.
         23    2    4    4    0    0 -0.10403464278E+04  0.66922297433E+03 -0.67162695554E+03  0.14099999404E+04  0.82686065181E+02 0.  0.
          3    1    3    3  502    0  0.76791434329E+03 -0.68539819740E+03 -0.67376178035E+03  0.12302105772E+04  0.00000000000E+00 0. -1.
         -3    1    3    3    0  502  0.35751494840E+03 -0.40390954763E+03 -0.32894819356E+03  0.63179646646E+03  0.00000000000E+00 0.  1.
         15    1    5    5    0    0 -0.10021415016E+03  0.34102042701E+03 -0.15161977132E+03  0.38643177965E+03  0.17770000000E+01 0. -1.
        -15    1    5    5    0    0  0.15131286242E+02  0.79064343681E+02 -0.39282514113E+02  0.89590177526E+02  0.17770000000E+01 0.  1.
          2    1    6    6  503    0 -0.83705191693E+03  0.57516147478E+03 -0.55873252421E+03  0.11591586032E+04  0.00000000000E+00 0. -1.
         -2    1    6    6    0  503 -0.20329451083E+03  0.94061499550E+02 -0.11289443133E+03  0.25084133721E+03  0.00000000000E+00 0.  1.
<mgrwt>
<rscale>  0 0.16221424E+04</rscale>
<asrwt>0</asrwt>
<pdfrwt beam="1">  1        2 0.43178986E+00 0.16221424E+04</pdfrwt>
<pdfrwt beam="2">  1       -2 0.14482998E+00 0.16221424E+04</pdfrwt>
<totfact> 0.70430706E-01</totfact>
</mgrwt>
</event>
<event>
12    1  0.1038324E-007  0.5050092E+03  0.7818608E-02  0.1012480E+00
          2   -1    0    0  501    0  0.00000000000E+00  0.00000000000E+00  0.20525047766E+04  0.20525047766E+04  0.00000000000E+00 0. -1.
         -2   -1    0    0    0  501 -0.00000000000E+00 -0.00000000000E+00 -0.16824195696E+03  0.16824195696E+03  0.00000000000E+00 0.  1.
         23    2    1    2    0    0 -0.19142368019E+03  0.37710858681E+03  0.57415416295E+03  0.71898131537E+03  0.91799877087E+02 0.  0.
    5000000    2    1    2    0    0  0.19142368019E+03 -0.37710858681E+03  0.13101086567E+04  0.15017654182E+04  0.60005063729E+03 0.  0.
         23    2    4    4    0    0 -0.17443246539E+02  0.56280198740E+02  0.74980436285E+03  0.75757879449E+03  0.90814754785E+02 0.  0.
         23    2    4    4    0    0  0.20886692673E+03 -0.43338878555E+03  0.56030429381E+03  0.74418662367E+03  0.91769257680E+02 0.  0.
          4    1    3    3  502    0 -0.12733415436E+03  0.16953472070E+03  0.23809313606E+03  0.31881711031E+03  0.00000000000E+00 0. -1.
         -4    1    3    3    0  502 -0.64089525827E+02  0.20757386612E+03  0.33606102689E+03  0.40016420506E+03  0.00000000000E+00 0.  1.
         15    1    5    5    0    0 -0.29985113259E+02 -0.96357917751E+01  0.40979626076E+03  0.41100862346E+03  0.17770000000E+01 0.  1.
        -15    1    5    5    0    0  0.12541866720E+02  0.65915990515E+02  0.34000810209E+03  0.34657017102E+03  0.17770000000E+01 0. -1.
          3    1    6    6  503    0  0.12194599587E+03 -0.21756098693E+03  0.22394055928E+03  0.33519096503E+03  0.00000000000E+00 0. -1.
         -3    1    6    6    0  503  0.86920930854E+02 -0.21582779862E+03  0.33636373453E+03  0.40899565864E+03  0.00000000000E+00 0.  1.
<mgrwt>
<rscale>  0 0.50500917E+03</rscale>
<asrwt>0</asrwt>
<pdfrwt beam="1">  1        2 0.31576995E+00 0.50500917E+03</pdfrwt>
<pdfrwt beam="2">  1       -2 0.25883379E-01 0.50500917E+03</pdfrwt>
<totfact> 0.89268941E+01</totfact>
</mgrwt>
</event>
<event>
12    1  0.7781383E-008  0.8244258E+03  0.7818608E-02  0.9525320E-01
          1   -1    0    0  501    0  0.00000000000E+00  0.00000000000E+00  0.25217189654E+04  0.25217189654E+04  0.00000000000E+00 0. -1.
         -1   -1    0    0    0  501 -0.00000000000E+00 -0.00000000000E+00 -0.53059238899E+03  0.53059238899E+03  0.00000000000E+00 0.  1.
         23    2    1    2    0    0  0.57354750837E+03 -0.57196224694E+03  0.18662444781E+04  0.20365324663E+04  0.92187191613E+02 0.  0.
    5000000    2    1    2    0    0 -0.57354750837E+03  0.57196224694E+03  0.12488209834E+03  0.10157788880E+04  0.60009470468E+03 0.  0.
         23    2    4    4    0    0 -0.27402292665E+03  0.16494365498E+03 -0.21825121710E+03  0.39801706327E+03  0.92135852079E+02 0.  0.
         23    2    4    4    0    0 -0.29952458173E+03  0.40701859196E+03  0.34313331545E+03  0.61776182476E+03  0.92250152846E+02 0.  0.
          1    1    3    3  502    0  0.10629025689E+03 -0.68346730058E+02  0.24288250018E+03  0.27378970601E+03  0.00000000000E+00 0. -1.
         -1    1    3    3    0  502  0.46725725148E+03 -0.50361551688E+03  0.16233619779E+04  0.17627427603E+04  0.00000000000E+00 0.  1.
         15    1    5    5    0    0  0.19124482914E+00 -0.78701334550E+00 -0.22409628742E+02  0.22494558319E+02  0.17770000000E+01 0.  1.
        -15    1    5    5    0    0 -0.27421417148E+03  0.16573066832E+03 -0.19584158836E+03  0.37552250495E+03  0.17770000000E+01 0. -1.
          2    1    6    6  503    0 -0.19931854837E+02  0.74756389498E+00  0.80131825391E+01  0.21495320036E+02  0.00000000000E+00 0. -1.
         -2    1    6    6    0  503 -0.27959272689E+03  0.40627102807E+03  0.33512013291E+03  0.59626650473E+03  0.00000000000E+00 0.  1.
<mgrwt>
<rscale>  0 0.82442577E+03</rscale>
<asrwt>0</asrwt>
<pdfrwt beam="1">  1        1 0.38795676E+00 0.82442577E+03</pdfrwt>
<pdfrwt beam="2">  1       -1 0.81629599E-01 0.82442577E+03</pdfrwt>
<totfact> 0.20509865E+00</totfact>
</mgrwt>
</event>
<event>
12    1  0.7781383E-008  0.4324841E+03  0.7818608E-02  0.1033078E+00
          2   -1    0    0  501    0  0.00000000000E+00  0.00000000000E+00  0.20296989883E+04  0.20296989883E+04  0.00000000000E+00 0. -1.
         -2   -1    0    0    0  501 -0.00000000000E+00 -0.00000000000E+00 -0.56924558469E+03  0.56924558469E+03  0.00000000000E+00 0.  1.
         23    2    1    2    0    0  0.31381122668E+03  0.21185151009E+03  0.17790375385E+04  0.18213423427E+04  0.94629897689E+02 0.  0.
    5000000    2    1    2    0    0 -0.31381122668E+03 -0.21185151009E+03 -0.31858413491E+03  0.77760223029E+03  0.59984233697E+03 0.  0.
         23    2    4    4    0    0 -0.27500507726E+03 -0.23426876035E+03  0.66937262592E+02  0.37856669591E+03  0.91227745422E+02 0.  0.
         23    2    4    4    0    0 -0.38806149422E+02  0.22417250256E+02 -0.38552139750E+03  0.39903553439E+03  0.92704689368E+02 0.  0.
          1    1    3    3  502    0  0.29188213274E+03  0.15823674886E+03  0.14869506781E+04  0.15235669881E+04  0.00000000000E+00 0. -1.
         -1    1    3    3    0  502  0.21929093944E+02  0.53614761234E+02  0.29208686042E+03  0.29777535461E+03  0.00000000000E+00 0.  1.
         15    1    5    5    0    0 -0.14487031427E+03 -0.64360594107E+02  0.31318970911E+02  0.16159743098E+03  0.17770000000E+01 0.  1.
        -15    1    5    5    0    0 -0.13013476299E+03 -0.16990816624E+03  0.35618291681E+02  0.21696926493E+03  0.17770000000E+01 0. -1.
          3    1    6    6  503    0 -0.31467172144E+02 -0.33563826374E+02 -0.19284766439E+03  0.19825976653E+03  0.00000000000E+00 0. -1.
         -3    1    6    6    0  503 -0.73389772782E+01  0.55981076630E+02 -0.19267373311E+03  0.20077576786E+03  0.00000000000E+00 0.  1.
<mgrwt>
<rscale>  0 0.43248408E+03</rscale>
<asrwt>0</asrwt>
<pdfrwt beam="1">  1        2 0.31226138E+00 0.43248408E+03</pdfrwt>
<pdfrwt beam="2">  1       -2 0.87576245E-01 0.43248408E+03</pdfrwt>
<totfact> 0.80150001E+00</totfact>
</mgrwt>
</event>
<event>
12    1  0.7781383E-008  0.5723196E+03  0.7818608E-02  0.9964559E-01
         -2   -1    0    0    0  501 -0.00000000000E+00  0.00000000000E+00  0.38488848286E+03  0.38488848286E+03  0.00000000000E+00 0.  1.
          2   -1    0    0  501    0  0.00000000000E+00 -0.00000000000E+00 -0.10539472816E+04  0.10539472816E+04  0.00000000000E+00 0. -1.
         23    2    1    2    0    0 -0.31763523070E+03 -0.28016118882E+03 -0.54140948858E+03  0.69335482317E+03  0.90742740689E+02 0.  0.
    5000000    2    1    2    0    0  0.31763523070E+03  0.28016118882E+03 -0.12764931018E+03  0.74548094131E+03  0.60005421086E+03 0.  0.
         23    2    4    4    0    0  0.11183991562E+03  0.43070661121E+03 -0.13650972742E+03  0.47416995507E+03  0.90475902562E+02 0.  0.
         23    2    4    4    0    0  0.20579531508E+03 -0.15054542239E+03  0.88604172448E+01  0.27131098624E+03  0.92279512077E+02 0.  0.
          1    1    3    3  502    0 -0.30143943117E+03 -0.22756697674E+03 -0.46195095397E+03  0.59670021237E+03  0.00000000000E+00 0. -1.
         -1    1    3    3    0  502 -0.16195799524E+02 -0.52594212081E+02 -0.79458534609E+02  0.96654610800E+02  0.00000000000E+00 0.  1.
         15    1    5    5    0    0  0.10476907065E+03  0.25719515314E+03 -0.58630979416E+02  0.28384265789E+03  0.17770000000E+01 0. -1.
        -15    1    5    5    0    0  0.70708449664E+01  0.17351145808E+03 -0.77878748007E+02  0.19032729718E+03  0.17770000000E+01 0.  1.
          1    1    6    6  503    0  0.43364852697E+02 -0.61618945513E+02 -0.31693103084E+02  0.81742630730E+02  0.00000000000E+00 0. -1.
         -1    1    6    6    0  503  0.16243046238E+03 -0.88926476877E+02  0.40553520329E+02  0.18956835551E+03  0.00000000000E+00 0.  1.
<mgrwt>
<rscale>  0 0.57231958E+03</rscale>
<asrwt>0</asrwt>
<pdfrwt beam="1">  1        2 0.16214573E+00 0.57231958E+03</pdfrwt>
<pdfrwt beam="2">  1       -2 0.59213614E-01 0.57231958E+03</pdfrwt>
<totfact> 0.64033333E+01</totfact>
</mgrwt>
</event>
<event>
12    1  0.7781383E-008  0.8580385E+03  0.7818608E-02  0.9479611E-01
         -2   -1    0    0    0  501 -0.00000000000E+00  0.00000000000E+00  0.22931424993E+03  0.22931424993E+03  0.00000000000E+00 0. -1.
          2   -1    0    0  501    0  0.00000000000E+00 -0.00000000000E+00 -0.34910835324E+04  0.34910835324E+04  0.00000000000E+00 0.  1.
         23    2    1    2    0    0  0.38566013482E+03  0.65492715284E+03 -0.19079069378E+04  0.20560915573E+04  0.98692925932E+02 0.  0.
    5000000    2    1    2    0    0 -0.38566013482E+03 -0.65492715284E+03 -0.13538623447E+04  0.16643062250E+04  0.59942359583E+03 0.  0.
         23    2    4    4    0    0 -0.13152371530E+03 -0.67269187916E+03 -0.88320997701E+03  0.11216835077E+04  0.91110789139E+02 0.  0.
         23    2    4    4    0    0 -0.25413641951E+03  0.17764726324E+02 -0.47065236769E+03  0.54262271738E+03  0.89581566120E+02 0.  0.
          3    1    3    3  502    0  0.15847894124E+03  0.30261586265E+03 -0.98162722298E+03  0.10393670863E+04  0.00000000000E+00 0. -1.
         -3    1    3    3    0  502  0.22718119357E+03  0.35231129019E+03 -0.92627971479E+03  0.10167244710E+04  0.00000000000E+00 0.  1.
         15    1    5    5    0    0 -0.92728330302E+02 -0.44664118743E+03 -0.65443352001E+03  0.79773008178E+03  0.17770000000E+01 0. -1.
        -15    1    5    5    0    0 -0.38795385001E+02 -0.22605069173E+03 -0.22877645701E+03  0.32395342588E+03  0.17770000000E+01 0.  1.
          1    1    6    6  503    0 -0.16140946748E+03  0.53967981063E+02 -0.30938864976E+03  0.35311031672E+03  0.00000000000E+00 0.  1.
         -1    1    6    6    0  503 -0.92726952029E+02 -0.36203254739E+02 -0.16126371793E+03  0.18951240066E+03  0.00000000000E+00 0. -1.
<mgrwt>
<rscale>  0 0.85803846E+03</rscale>
<asrwt>0</asrwt>
<pdfrwt beam="1">  1        2 0.53708976E+00 0.85803846E+03</pdfrwt>
<pdfrwt beam="2">  1       -2 0.35279116E-01 0.85803846E+03</pdfrwt>
<totfact> 0.65970370E+00</totfact>
</mgrwt>
</event>
<event>
12    1  0.7781383E-008  0.1000055E+04  0.7818608E-02  0.9308484E-01
         -1   -1    0    0    0  501 -0.00000000000E+00  0.00000000000E+00  0.91499478655E+03  0.91499478655E+03  0.00000000000E+00 0. -1.
          1   -1    0    0  501    0  0.00000000000E+00 -0.00000000000E+00 -0.12942679893E+04  0.12942679893E+04  0.00000000000E+00 0.  1.
         23    2    1    2    0    0  0.26588633548E+03  0.89923644029E+03 -0.53820588373E+03  0.10848210465E+04  0.88596900138E+02 0.  0.
    5000000    2    1    2    0    0 -0.26588633548E+03 -0.89923644029E+03  0.15893268094E+03  0.11244417294E+04  0.59982321296E+03 0.  0.
         23    2    4    4    0    0  0.24374781716E+02 -0.68746281365E+03  0.25964400986E+03  0.74064462059E+03  0.89107755100E+02 0.  0.
         23    2    4    4    0    0 -0.29026111720E+03 -0.21177362663E+03 -0.10071132892E+03  0.38379710880E+03  0.89765605097E+02 0.  0.
          1    1    3    3  502    0  0.13092105129E+03  0.37633256629E+03 -0.27433091879E+03  0.48376024550E+03  0.00000000000E+00 0. -1.
         -1    1    3    3    0  502  0.13496528419E+03  0.52290387400E+03 -0.26387496493E+03  0.60106080100E+03  0.00000000000E+00 0.  1.
         15    1    5    5    0    0 -0.15902459553E+02 -0.53911222318E+03  0.21431604381E+03  0.58037005589E+03  0.17770000000E+01 0. -1.
        -15    1    5    5    0    0  0.40277241269E+02 -0.14835059047E+03  0.45327966042E+02  0.16027456471E+03  0.17770000000E+01 0.  1.
          1    1    6    6  503    0 -0.29469767559E+03 -0.20055017416E+03 -0.10393043527E+03  0.37130664918E+03  0.00000000000E+00 0. -1.
         -1    1    6    6    0  503  0.44365583898E+01 -0.11223452476E+02  0.32191063519E+01  0.12490459620E+02  0.00000000000E+00 0.  1.
<mgrwt>
<rscale>  0 0.10000551E+04</rscale>
<asrwt>0</asrwt>
<pdfrwt beam="1">  1        1 0.19911815E+00 0.10000551E+04</pdfrwt>
<pdfrwt beam="2">  1       -1 0.14076843E+00 0.10000551E+04</pdfrwt>
<totfact> 0.37876424E+00</totfact>
</mgrwt>
</event>
<event>
12    1  0.7781383E-008  0.6088480E+03  0.7818608E-02  0.9887217E-01
         -1   -1    0    0    0  501 -0.00000000000E+00  0.00000000000E+00  0.26969560541E+03  0.26969560541E+03  0.00000000000E+00 0.  1.
          1   -1    0    0  501    0  0.00000000000E+00 -0.00000000000E+00 -0.19995012504E+04  0.19995012504E+04  0.00000000000E+00 0. -1.
         23    2    1    2    0    0  0.11880509851E+03  0.58836421448E+03 -0.87199279601E+03  0.10624606193E+04  0.90355027595E+02 0.  0.
    5000000    2    1    2    0    0 -0.11880509851E+03 -0.58836421448E+03 -0.85781284893E+03  0.12067362364E+04  0.60006862960E+03 0.  0.
         23    2    4    4    0    0 -0.11183006404E+03 -0.31351080218E+03 -0.84963021183E+03  0.91695330182E+03  0.90204626035E+02 0.  0.
         23    2    4    4    0    0 -0.69750344694E+01 -0.27485341229E+03 -0.81826371005E+01  0.28978293461E+03  0.91181929620E+02 0.  0.
          3    1    3    3  502    0  0.65397973371E+02  0.24615985462E+03 -0.44419769676E+03  0.51203824345E+03  0.00000000000E+00 0. -1.
         -3    1    3    3    0  502  0.53407125137E+02  0.34220435986E+03 -0.42779509925E+03  0.55042237588E+03  0.00000000000E+00 0.  1.
         15    1    5    5    0    0 -0.11730277414E+03 -0.27984191204E+03 -0.80803352473E+03  0.86312963764E+03  0.17770000000E+01 0. -1.
        -15    1    5    5    0    0  0.54727100999E+01 -0.33668890141E+02 -0.41596687099E+02  0.53823664180E+02  0.17770000000E+01 0.  1.
          3    1    6    6  503    0 -0.26803748160E+02 -0.19201297408E+03  0.30449480030E+02  0.19625135404E+03  0.00000000000E+00 0. -1.
         -3    1    6    6    0  503  0.19828713690E+02 -0.82840438212E+02 -0.38632117130E+02  0.93531580569E+02  0.00000000000E+00 0.  1.
<mgrwt>
<rscale>  0 0.60884804E+03</rscale>
<asrwt>0</asrwt>
<pdfrwt beam="1">  1        1 0.30761558E+00 0.60884804E+03</pdfrwt>
<pdfrwt beam="2">  1       -1 0.41491631E-01 0.60884804E+03</pdfrwt>
<totfact> 0.18094703E+01</totfact>
</mgrwt>
</event>
<event>
12    1  0.7781383E-008  0.8353919E+03  0.7818608E-02  0.9510156E-01
          1   -1    0    0  501    0  0.00000000000E+00  0.00000000000E+00  0.14465214632E+04  0.14465214632E+04  0.00000000000E+00 0. -1.
         -1   -1    0    0    0  501 -0.00000000000E+00 -0.00000000000E+00 -0.11945871261E+04  0.11945871261E+04  0.00000000000E+00 0.  1.
         23    2    1    2    0    0  0.37670771193E+03  0.62802492374E+03  0.11300336056E+04  0.13497854504E+04  0.92848302813E+02 0.  0.
    5000000    2    1    2    0    0 -0.37670771193E+03 -0.62802492374E+03 -0.87809926854E+03  0.12913231389E+04  0.60011092184E+03 0.  0.
         23    2    4    4    0    0 -0.21933293226E+03 -0.70568449810E+03 -0.74260032254E+03  0.10515477705E+04  0.90553457238E+02 0.  0.
         23    2    4    4    0    0 -0.15737477966E+03  0.77659574360E+02 -0.13549894600E+03  0.23977536835E+03  0.91293111116E+02 0.  0.
          1    1    3    3  502    0  0.24961075845E+03  0.41390342467E+03  0.66249086675E+03  0.82007056051E+03  0.00000000000E+00 0. -1.
         -1    1    3    3    0  502  0.12709695347E+03  0.21412149907E+03  0.46754273888E+03  0.52971488994E+03  0.00000000000E+00 0.  1.
         15    1    5    5    0    0 -0.89840961368E+02 -0.43761374944E+03 -0.43941319015E+03  0.62662931742E+03  0.17770000000E+01 0. -1.
        -15    1    5    5    0    0 -0.12949197089E+03 -0.26807074866E+03 -0.30318713238E+03  0.42491845310E+03  0.17770000000E+01 0.  1.
          3    1    6    6  503    0 -0.11895447247E+03  0.94606797987E+02 -0.12422343231E+03  0.19629588351E+03  0.00000000000E+00 0. -1.
         -3    1    6    6    0  503 -0.38420307190E+02 -0.16947223627E+02 -0.11275513685E+02  0.43479484842E+02  0.00000000000E+00 0.  1.
<mgrwt>
<rscale>  0 0.83539194E+03</rscale>
<asrwt>0</asrwt>
<pdfrwt beam="1">  1        1 0.22254176E+00 0.83539194E+03</pdfrwt>
<pdfrwt beam="2">  1       -1 0.18378264E+00 0.83539194E+03</pdfrwt>
<totfact> 0.14391405E+00</totfact>
</mgrwt>
</event>
<event>
12    1  0.7781383E-008  0.1065791E+04  0.7818608E-02  0.9239191E-01
         -2   -1    0    0    0  501 -0.00000000000E+00  0.00000000000E+00  0.41050209462E+03  0.41050209462E+03  0.00000000000E+00 0.  1.
          2   -1    0    0  501    0  0.00000000000E+00 -0.00000000000E+00 -0.30326846948E+04  0.30326846948E+04  0.00000000000E+00 0. -1.
         23    2    1    2    0    0 -0.63674405784E+03 -0.79330933533E+03 -0.14955192775E+04  0.18109741881E+04  0.90922515304E+02 0.  0.
    5000000    2    1    2    0    0  0.63674405784E+03  0.79330933533E+03 -0.11266633227E+04  0.16322126014E+04  0.59997086314E+03 0.  0.
         23    2    4    4    0    0  0.19151564390E+03  0.18618720996E+02 -0.31166879298E+02  0.21567103903E+03  0.92291516839E+02 0.  0.
         23    2    4    4    0    0  0.44522841394E+03  0.77469061434E+03 -0.10954964434E+04  0.14165415624E+04  0.90020285477E+02 0.  0.
          1    1    3    3  502    0 -0.44998531508E+03 -0.50029279514E+03 -0.94906396066E+03  0.11634010771E+04  0.00000000000E+00 0. -1.
         -1    1    3    3    0  502 -0.18675874276E+03 -0.29301654019E+03 -0.54645531683E+03  0.64757311102E+03  0.00000000000E+00 0.  1.
         15    1    5    5    0    0  0.95790462225E+02  0.55425465574E+02 -0.20217922764E+02  0.11251540791E+03  0.17770000000E+01 0. -1.
        -15    1    5    5    0    0  0.95725181671E+02 -0.36806744578E+02 -0.10948956534E+02  0.10315563111E+03  0.17770000000E+01 0.  1.
          3    1    6    6  503    0  0.21590156852E+03  0.46431394139E+03 -0.61544107698E+03  0.80060517279E+03  0.00000000000E+00 0. -1.
         -3    1    6    6    0  503  0.22932684543E+03  0.31037667295E+03 -0.48005536645E+03  0.61593638958E+03  0.00000000000E+00 0.  1.
<mgrwt>
<rscale>  0 0.10657910E+04</rscale>
<asrwt>0</asrwt>
<pdfrwt beam="1">  1        2 0.46656689E+00 0.10657910E+04</pdfrwt>
<pdfrwt beam="2">  1       -2 0.63154167E-01 0.10657910E+04</pdfrwt>
<totfact> 0.39100267E+00</totfact>
</mgrwt>
</event>
<event>
12    1  0.8573793E-008  0.7252441E+03  0.7818608E-02  0.9675009E-01
          1   -1    0    0  501    0  0.00000000000E+00  0.00000000000E+00  0.18152208211E+04  0.18152208211E+04  0.00000000000E+00 0. -1.
         -1   -1    0    0    0  501 -0.00000000000E+00 -0.00000000000E+00 -0.31294228136E+03  0.31294228136E+03  0.00000000000E+00 0.  1.
         23    2    1    2    0    0  0.15698715971E+02 -0.63013003922E+03  0.65309214650E+03  0.91224610396E+03  0.91396314871E+02 0.  0.
    5000000    2    1    2    0    0 -0.15698715971E+02  0.63013003922E+03  0.84918639322E+03  0.12159169985E+04  0.60002191689E+03 0.  0.
         23    2    4    4    0    0 -0.23680116181E+03  0.13918263389E+03  0.13781472431E+03  0.31909601122E+03  0.85923048895E+02 0.  0.
         23    2    4    4    0    0  0.22110244584E+03  0.49094740533E+03  0.71137166892E+03  0.89682098726E+03  0.91228205589E+02 0.  0.
          1    1    3    3  502    0 -0.26044496618E+02 -0.46335356741E+03  0.45445186310E+03  0.64953932915E+03  0.00000000000E+00 0. -1.
         -1    1    3    3    0  502  0.41743212588E+02 -0.16677647181E+03  0.19864028339E+03  0.26270677482E+03  0.00000000000E+00 0.  1.
         15    1    5    5    0    0 -0.11236384477E+03  0.56044825362E+02  0.10984326875E+03  0.16683931635E+03  0.17770000000E+01 0. -1.
        -15    1    5    5    0    0 -0.12443731704E+03  0.83137808528E+02  0.27971455558E+02  0.15225669487E+03  0.17770000000E+01 0.  1.
          1    1    6    6  503    0  0.17331593500E+03  0.35307267251E+03  0.45156489653E+03  0.59884019669E+03  0.00000000000E+00 0. -1.
         -1    1    6    6    0  503  0.47786510841E+02  0.13787473283E+03  0.25980677239E+03  0.29798079057E+03  0.00000000000E+00 0.  1.
<mgrwt>
<rscale>  0 0.72524405E+03</rscale>
<asrwt>0</asrwt>
<pdfrwt beam="1">  1        1 0.27926474E+00 0.72524405E+03</pdfrwt>
<pdfrwt beam="2">  1       -1 0.48144967E-01 0.72524405E+03</pdfrwt>
<totfact> 0.17894192E+01</totfact>
</mgrwt>
</event>
<event>
12    1  0.7781383E-008  0.7073028E+03  0.7818608E-02  0.9704824E-01
          2   -1    0    0  501    0  0.00000000000E+00  0.00000000000E+00  0.20096364058E+04  0.20096364058E+04  0.00000000000E+00 0. -1.
         -2   -1    0    0    0  501 -0.00000000000E+00 -0.00000000000E+00 -0.27831623801E+03  0.27831623801E+03  0.00000000000E+00 0.  1.
         23    2    1    2    0    0  0.36921160384E+03 -0.50130129937E+03  0.78902978155E+03  0.10090842537E+04  0.89793283172E+02 0.  0.
    5000000    2    1    2    0    0 -0.36921160384E+03  0.50130129937E+03  0.94229038627E+03  0.12788683902E+04  0.59997748801E+03 0.  0.
         23    2    4    4    0    0  0.11208953233E+03  0.11224265059E+03  0.44019793141E+03  0.47649038307E+03  0.90035495592E+02 0.  0.
         23    2    4    4    0    0 -0.48130113617E+03  0.38905864877E+03  0.50209245486E+03  0.80237800709E+03  0.93253510213E+02 0.  0.
          3    1    3    3  502    0  0.32547533277E+03 -0.38302107737E+03  0.61820455882E+03  0.79675354690E+03  0.00000000000E+00 0. -1.
         -3    1    3    3    0  502  0.43736271071E+02 -0.11828022200E+03  0.17082522273E+03  0.21233070679E+03  0.00000000000E+00 0.  1.
         15    1    5    5    0    0  0.62368355917E+02  0.38434251373E+02  0.31153957359E+03  0.32004228961E+03  0.17770000000E+01 0. -1.
        -15    1    5    5    0    0  0.49721176416E+02  0.73808399221E+02  0.12865835782E+03  0.15644809346E+03  0.17770000000E+01 0.  1.
          2    1    6    6  503    0 -0.27613473720E+03  0.17419560272E+03  0.22849200808E+03  0.39850106506E+03  0.00000000000E+00 0. -1.
         -2    1    6    6    0  503 -0.20516639897E+03  0.21486304605E+03  0.27360044678E+03  0.40387694203E+03  0.00000000000E+00 0.  1.
<mgrwt>
<rscale>  0 0.70730277E+03</rscale>
<asrwt>0</asrwt>
<pdfrwt beam="1">  1        2 0.30917482E+00 0.70730277E+03</pdfrwt>
<pdfrwt beam="2">  1       -2 0.42817884E-01 0.70730277E+03</pdfrwt>
<totfact> 0.35413471E+01</totfact>
</mgrwt>
</event>
<event>
12    1  0.7781383E-008  0.4481660E+03  0.7818608E-02  0.1028270E+00
         -2   -1    0    0    0  501 -0.00000000000E+00  0.00000000000E+00  0.66733839751E+03  0.66733839751E+03  0.00000000000E+00 0. -1.
          2   -1    0    0  501    0  0.00000000000E+00 -0.00000000000E+00 -0.93892891631E+03  0.93892891631E+03  0.00000000000E+00 0.  1.
         23    2    1    2    0    0  0.29348317471E+03  0.54410413199E+01  0.49938345622E+03  0.58619211909E+03  0.89863147975E+02 0.  0.
    5000000    2    1    2    0    0 -0.29348317471E+03 -0.54410413199E+01 -0.77097397503E+03  0.10200751947E+04  0.59999212826E+03 0.  0.
         23    2    4    4    0    0  0.63450659652E+01 -0.21991818381E+03 -0.12482042113E+03  0.27061576209E+03  0.96169047678E+02 0.  0.
         23    2    4    4    0    0 -0.29982824068E+03  0.21447714249E+03 -0.64615355390E+03  0.74945943264E+03  0.90981357455E+02 0.  0.
          1    1    3    3  502    0  0.21209671177E+03  0.25069491624E+02  0.28578391530E+03  0.35677155268E+03  0.00000000000E+00 0. -1.
         -1    1    3    3    0  502  0.81386462939E+02 -0.19628450304E+02  0.21359954092E+03  0.22942056641E+03  0.00000000000E+00 0.  1.
         15    1    5    5    0    0 -0.87454349086E+01 -0.12019179749E+03 -0.11930783474E+03  0.16958793581E+03  0.17770000000E+01 0. -1.
        -15    1    5    5    0    0  0.15090500874E+02 -0.99726386321E+02 -0.55125863929E+01  0.10102782628E+03  0.17770000000E+01 0.  1.
          3    1    6    6  503    0 -0.30180945732E+03  0.19781574564E+03 -0.63075579301E+03  0.72668623777E+03  0.00000000000E+00 0. -1.
         -3    1    6    6    0  503  0.19812166437E+01  0.16661396845E+02 -0.15397760889E+02  0.22773194870E+02  0.00000000000E+00 0.  1.
<mgrwt>
<rscale>  0 0.44816599E+03</rscale>
<asrwt>0</asrwt>
<pdfrwt beam="1">  1        2 0.14445060E+00 0.44816599E+03</pdfrwt>
<pdfrwt beam="2">  1       -2 0.10266745E+00 0.44816599E+03</pdfrwt>
<totfact> 0.22623289E+01</totfact>
</mgrwt>
</event>
<event>
12    1  0.7781383E-008  0.3775417E+03  0.7818608E-02  0.1051846E+00
         -1   -1    0    0    0  501 -0.00000000000E+00  0.00000000000E+00  0.17646276438E+03  0.17646276438E+03  0.00000000000E+00 0.  1.
          1   -1    0    0  501    0  0.00000000000E+00 -0.00000000000E+00 -0.11238419531E+04  0.11238419531E+04  0.00000000000E+00 0. -1.
         23    2    1    2    0    0  0.17594185363E+03  0.83771730072E+02 -0.83331750972E+02  0.23044567036E+03  0.90486394830E+02 0.  0.
    5000000    2    1    2    0    0 -0.17594185363E+03 -0.83771730072E+02 -0.86404743778E+03  0.10698590472E+04  0.60003930490E+03 0.  0.
         23    2    4    4    0    0  0.52429692665E+02 -0.25492873755E+03 -0.19502114181E+03  0.33661444255E+03  0.86824554568E+02 0.  0.
         23    2    4    4    0    0 -0.22837154629E+03  0.17115700748E+03 -0.66902629597E+03  0.73324460460E+03  0.92753334786E+02 0.  0.
          1    1    3    3  502    0  0.10580267477E+03  0.46236014718E+02 -0.95662430510E+02  0.14994424183E+03  0.00000000000E+00 0. -1.
         -1    1    3    3    0  502  0.70139178854E+02  0.37535715353E+02  0.12330679538E+02  0.80501428529E+02  0.00000000000E+00 0.  1.
         15    1    5    5    0    0  0.42302879931E+02 -0.21911800285E+03 -0.12128222518E+03  0.25399757616E+03  0.17770000000E+01 0.  1.
        -15    1    5    5    0    0  0.10126812734E+02 -0.35810734702E+02 -0.73738916633E+02  0.82616866384E+02  0.17770000000E+01 0. -1.
          1    1    6    6  503    0  0.96052111411E+00  0.30695211488E+02 -0.57199529667E+02  0.64922298197E+02  0.00000000000E+00 0. -1.
         -1    1    6    6    0  503 -0.22933206740E+03  0.14046179600E+03 -0.61182676631E+03  0.66832230641E+03  0.00000000000E+00 0.  1.
<mgrwt>
<rscale>  0 0.37754169E+03</rscale>
<asrwt>0</asrwt>
<pdfrwt beam="1">  1        1 0.17289876E+00 0.37754169E+03</pdfrwt>
<pdfrwt beam="2">  1       -1 0.27148119E-01 0.37754169E+03</pdfrwt>
<totfact> 0.15595360E+02</totfact>
</mgrwt>
</event>
<event>
12    1  0.7781383E-008  0.1003274E+04  0.7818608E-02  0.9304962E-01
         -2   -1    0    0    0  501 -0.00000000000E+00  0.00000000000E+00  0.37427904180E+03  0.37427904180E+03  0.00000000000E+00 0.  1.
          2   -1    0    0  501    0  0.00000000000E+00 -0.00000000000E+00 -0.27313851662E+04  0.27313851662E+04  0.00000000000E+00 0. -1.
         23    2    1    2    0    0  0.32497148857E+03  0.86010782758E+03 -0.11047699294E+04  0.14402484771E+04  0.91690432158E+02 0.  0.
    5000000    2    1    2    0    0 -0.32497148857E+03 -0.86010782758E+03 -0.12523361950E+04  0.16654157310E+04  0.59989304719E+03 0.  0.
         23    2    4    4    0    0 -0.29389868440E+03 -0.92704712547E+03 -0.11093742598E+04  0.14780559696E+04  0.90251822694E+02 0.  0.
         23    2    4    4    0    0 -0.31072804168E+02  0.66939297888E+02 -0.14296193525E+03  0.18735976134E+03  0.96016542734E+02 0.  0.
          1    1    3    3  502    0  0.15998483052E+03  0.36179961787E+03 -0.53744440874E+03  0.66733844634E+03  0.00000000000E+00 0. -1.
         -1    1    3    3    0  502  0.16498665805E+03  0.49830820971E+03 -0.56732552065E+03  0.77291003072E+03  0.00000000000E+00 0.  1.
         15    1    5    5    0    0 -0.14659144563E+03 -0.37560821423E+03 -0.40553105992E+03  0.57186465254E+03  0.17770000000E+01 0. -1.
        -15    1    5    5    0    0 -0.14730723877E+03 -0.55143891124E+03 -0.70384319986E+03  0.90619131708E+03  0.17770000000E+01 0.  1.
          4    1    6    6  503    0  0.25701518866E+02  0.19652513079E+01 -0.69197678596E+02  0.73842731584E+02  0.00000000000E+00 0. -1.
         -4    1    6    6    0  503 -0.56774323034E+02  0.64974046580E+02 -0.73764256652E+02  0.11351702975E+03  0.00000000000E+00 0.  1.
<mgrwt>
<rscale>  0 0.10032737E+04</rscale>
<asrwt>0</asrwt>
<pdfrwt beam="1">  1        2 0.42021310E+00 0.10032737E+04</pdfrwt>
<pdfrwt beam="2">  1       -2 0.57581392E-01 0.10032737E+04</pdfrwt>
<totfact> 0.73000884E+00</totfact>
</mgrwt>
</event>
<event>
12    1  0.7781383E-008  0.1341451E+04  0.7818608E-02  0.8997325E-01
         -1   -1    0    0    0  501 -0.00000000000E+00  0.00000000000E+00  0.17583900612E+04  0.17583900612E+04  0.00000000000E+00 0.  1.
          1   -1    0    0  501    0  0.00000000000E+00 -0.00000000000E+00 -0.10956852170E+04  0.10956852170E+04  0.00000000000E+00 0. -1.
         23    2    1    2    0    0 -0.55761279652E+03  0.11540139673E+04  0.64734994427E+03  0.14388109594E+04  0.91840942988E+02 0.  0.
    5000000    2    1    2    0    0  0.55761279652E+03 -0.11540139673E+04  0.15354899989E+02  0.14152643188E+04  0.60004754115E+03 0.  0.
         23    2    4    4    0    0  0.30604924823E+03 -0.10915458186E+04 -0.26197117655E+02  0.11375482418E+04  0.90505784615E+02 0.  0.
         23    2    4    4    0    0  0.25156354829E+03 -0.62468148719E+02  0.41552017644E+02  0.27771607703E+03  0.90626490798E+02 0.  0.
          4    1    3    3  502    0 -0.16651415249E+03  0.32891009797E+03  0.14093136978E+03  0.39467767421E+03  0.00000000000E+00 0.  1.
         -4    1    3    3    0  502 -0.39109864402E+03  0.82510386935E+03  0.50641857450E+03  0.10441332852E+04  0.00000000000E+00 0. -1.
         15    1    5    5    0    0  0.25292770584E+03 -0.95105855857E+03 -0.50388606868E+02  0.98540701014E+03  0.17770000000E+01 0.  1.
        -15    1    5    5    0    0  0.53121542384E+02 -0.14048726004E+03  0.24191489213E+02  0.15214123168E+03  0.17770000000E+01 0. -1.
          4    1    6    6  503    0  0.36696144521E+02 -0.34087697355E+02  0.34592986392E+02  0.60870788077E+02  0.00000000000E+00 0. -1.
         -4    1    6    6    0  503  0.21486740377E+03 -0.28380451364E+02  0.69590312525E+01  0.21684528895E+03  0.00000000000E+00 0.  1.
<mgrwt>
<rscale>  0 0.13414513E+04</rscale>
<asrwt>0</asrwt>
<pdfrwt beam="1">  1        1 0.16856696E+00 0.13414513E+04</pdfrwt>
<pdfrwt beam="2">  1       -1 0.27052155E+00 0.13414513E+04</pdfrwt>
<totfact> 0.63278740E-01</totfact>
</mgrwt>
</event>
<event>
12    1  0.7781383E-008  0.5841754E+03  0.7818608E-02  0.9938792E-01
          2   -1    0    0  501    0  0.00000000000E+00  0.00000000000E+00  0.52787857632E+03  0.52787857632E+03  0.00000000000E+00 0.  1.
         -2   -1    0    0    0  501 -0.00000000000E+00 -0.00000000000E+00 -0.70065424407E+03  0.70065424407E+03  0.00000000000E+00 0. -1.
         23    2    1    2    0    0 -0.45391554593E+03 -0.12663779065E+02 -0.49726151923E+02  0.46592503677E+03  0.91726525949E+02 0.  0.
    5000000    2    1    2    0    0  0.45391554593E+03  0.12663779065E+02 -0.12304951583E+03  0.76260778363E+03  0.60019143126E+03 0.  0.
         23    2    4    4    0    0  0.44676110365E+03  0.21149346441E+03  0.14609744472E+02  0.50420286341E+03  0.98397731762E+02 0.  0.
         23    2    4    4    0    0  0.71544422812E+01 -0.19882968534E+03 -0.13765926030E+03  0.25840492021E+03  0.90766739635E+02 0.  0.
          4    1    3    3  502    0 -0.31409787320E+03 -0.51015542494E+02 -0.30461256413E+02  0.31966849652E+03  0.00000000000E+00 0. -1.
         -4    1    3    3    0  502 -0.13981767274E+03  0.38351763429E+02 -0.19264895510E+02  0.14625654025E+03  0.00000000000E+00 0.  1.
         15    1    5    5    0    0  0.80209592386E+02  0.51876349937E+02 -0.34105426386E+02  0.10144492216E+03  0.17770000000E+01 0. -1.
        -15    1    5    5    0    0  0.36655151127E+03  0.15961711447E+03  0.48715170857E+02  0.40275794126E+03  0.17770000000E+01 0.  1.
          3    1    6    6  503    0 -0.19512350435E+02 -0.16526496721E+02 -0.45980506296E+02  0.52612392766E+02  0.00000000000E+00 0. -1.
         -3    1    6    6    0  503  0.26666792717E+02 -0.18230318862E+03 -0.91678754008E+02  0.20579252745E+03  0.00000000000E+00 0.  1.
<mgrwt>
<rscale>  0 0.58417543E+03</rscale>
<asrwt>0</asrwt>
<pdfrwt beam="1">  1        2 0.81212089E-01 0.58417543E+03</pdfrwt>
<pdfrwt beam="2">  1       -2 0.10779296E+00 0.58417543E+03</pdfrwt>
<totfact> 0.40907217E+01</totfact>
</mgrwt>
</event>
<event>
12    1  0.7781383E-008  0.7943586E+03  0.7818608E-02  0.9568219E-01
          1   -1    0    0  501    0  0.00000000000E+00  0.00000000000E+00  0.16968241027E+04  0.16968241027E+04  0.00000000000E+00 0. -1.
         -1   -1    0    0    0  501 -0.00000000000E+00 -0.00000000000E+00 -0.39814214096E+03  0.39814214096E+03  0.00000000000E+00 0.  1.
         23    2    1    2    0    0 -0.41955791942E+03 -0.57136464253E+03  0.54365856943E+03  0.89798742836E+03  0.91270909323E+02 0.  0.
    5000000    2    1    2    0    0  0.41955791942E+03  0.57136464253E+03  0.75502339227E+03  0.11969788153E+04  0.60017627311E+03 0.  0.
         23    2    4    4    0    0  0.33812470409E+03  0.64618489613E+03  0.45315551423E+03  0.86363998588E+03  0.92956278137E+02 0.  0.
         23    2    4    4    0    0  0.81433215335E+02 -0.74820253594E+02  0.30186787804E+03  0.33333882937E+03  0.88097221671E+02 0.  0.
          2    1    3    3  502    0 -0.20719614776E+03 -0.20734707755E+03  0.23222386914E+03  0.37396654879E+03  0.00000000000E+00 0. -1.
         -2    1    3    3    0  502 -0.21236177166E+03 -0.36401756499E+03  0.31143470030E+03  0.52402087958E+03  0.00000000000E+00 0.  1.
         15    1    5    5    0    0  0.13454047593E+03  0.17684370247E+03  0.16200975651E+03  0.27500027946E+03  0.17770000000E+01 0.  1.
        -15    1    5    5    0    0  0.20358422815E+03  0.46934119366E+03  0.29114575772E+03  0.58863970642E+03  0.17770000000E+01 0. -1.
          1    1    6    6  503    0  0.26273905915E+02 -0.80707721537E+02  0.20181689670E+03  0.21893860839E+03  0.00000000000E+00 0. -1.
         -1    1    6    6    0  503  0.55159309420E+02  0.58874679432E+01  0.10005098134E+03  0.11440022098E+03  0.00000000000E+00 0.  1.
<mgrwt>
<rscale>  0 0.79435864E+03</rscale>
<asrwt>0</asrwt>
<pdfrwt beam="1">  1        1 0.26104986E+00 0.79435864E+03</pdfrwt>
<pdfrwt beam="2">  1       -1 0.61252638E-01 0.79435864E+03</pdfrwt>
<totfact> 0.13376694E+01</totfact>
</mgrwt>
</event>
<event>
12    1  0.7781383E-008  0.5518583E+03  0.7818608E-02  0.1001065E+00
          1   -1    0    0  501    0  0.00000000000E+00  0.00000000000E+00  0.33626729451E+03  0.33626729451E+03  0.00000000000E+00 0. -1.
         -1   -1    0    0    0  501 -0.00000000000E+00 -0.00000000000E+00 -0.10470970767E+04  0.10470970767E+04  0.00000000000E+00 0.  1.
         23    2    1    2    0    0  0.50038785257E+02 -0.42911321735E+03 -0.20741306023E+03  0.48884588211E+03  0.96478420246E+02 0.  0.
    5000000    2    1    2    0    0 -0.50038785257E+02  0.42911321735E+03 -0.50341672195E+03  0.89451848910E+03  0.60007741006E+03 0.  0.
         23    2    4    4    0    0  0.42025691275E+02 -0.94043674483E+02  0.17303571173E+02  0.14472126637E+03  0.10017215145E+03 0.  0.
         23    2    4    4    0    0 -0.92064476532E+02  0.52315689183E+03 -0.52072029313E+03  0.74979722273E+03  0.94219160654E+02 0.  0.
          2    1    3    3  502    0  0.46018674335E+02 -0.36836547804E+03 -0.21251135224E+03  0.42775216964E+03  0.00000000000E+00 0. -1.
         -2    1    3    3    0  502  0.40201109217E+01 -0.60747739304E+02  0.50982920077E+01  0.61093712473E+02  0.00000000000E+00 0.  1.
         15    1    5    5    0    0  0.37437236739E+02  0.34894428982E+01  0.27379236350E+02  0.46545711064E+02  0.17770000000E+01 0.  1.
        -15    1    5    5    0    0  0.45884545366E+01 -0.97533117381E+02 -0.10075665177E+02  0.98175555302E+02  0.17770000000E+01 0. -1.
          4    1    6    6  503    0 -0.90977855257E+02  0.30816457717E+03 -0.27152931120E+03  0.42067867026E+03  0.00000000000E+00 0. -1.
         -4    1    6    6    0  503 -0.10866212751E+01  0.21499231466E+03 -0.24919098193E+03  0.32911855247E+03  0.00000000000E+00 0.  1.
<mgrwt>
<rscale>  0 0.55185833E+03</rscale>
<asrwt>0</asrwt>
<pdfrwt beam="1">  1        1 0.51733429E-01 0.55185833E+03</pdfrwt>
<pdfrwt beam="2">  1       -1 0.16109186E+00 0.55185833E+03</pdfrwt>
<totfact> 0.22705753E+01</totfact>
</mgrwt>
</event>
<event>
12    1  0.7781383E-008  0.4984674E+03  0.7818608E-02  0.1014180E+00
         -3   -1    0    0    0  501 -0.00000000000E+00  0.00000000000E+00  0.42514548477E+03  0.42514548477E+03  0.00000000000E+00 0.  1.
          3   -1    0    0  501    0  0.00000000000E+00 -0.00000000000E+00 -0.79152768140E+03  0.79152768140E+03  0.00000000000E+00 0. -1.
         23    2    1    2    0    0  0.13839662911E+03  0.35891993330E+03 -0.31114547814E+03  0.50179316078E+03  0.83712138704E+02 0.  0.
    5000000    2    1    2    0    0 -0.13839662911E+03 -0.35891993330E+03 -0.55236718487E+02  0.71488000540E+03  0.60002098429E+03 0.  0.
         23    2    4    4    0    0 -0.30799054161E+03 -0.18198360034E+03 -0.19574124286E+03  0.41820368831E+03  0.92754979633E+02 0.  0.
         23    2    4    4    0    0  0.16959391250E+03 -0.17693633296E+03  0.14050452437E+03  0.29667631709E+03  0.90591140158E+02 0.  0.
          1    1    3    3  502    0  0.64351465290E+02  0.27194706681E+03 -0.22044721770E+03  0.35594001464E+03  0.00000000000E+00 0. -1.
         -1    1    3    3    0  502  0.74045163819E+02  0.86972866487E+02 -0.90698260445E+02  0.14585314614E+03  0.00000000000E+00 0.  1.
         15    1    5    5    0    0 -0.11000346296E+03 -0.74302450423E+02 -0.12404621246E+03  0.18169269813E+03  0.17770000000E+01 0.  1.
        -15    1    5    5    0    0 -0.19798707865E+03 -0.10768114992E+03 -0.71695030404E+02  0.23651099018E+03  0.17770000000E+01 0. -1.
          1    1    6    6  503    0  0.15166772718E+03 -0.15666373462E+03  0.15349375634E+03  0.26665888031E+03  0.00000000000E+00 0. -1.
         -1    1    6    6    0  503  0.17926185325E+02 -0.20272598338E+02 -0.12989231971E+02  0.30017436781E+02  0.00000000000E+00 0.  1.
<mgrwt>
<rscale>  0 0.49846737E+03</rscale>
<asrwt>0</asrwt>
<pdfrwt beam="1">  1        3 0.12177349E+00 0.49846737E+03</pdfrwt>
<pdfrwt beam="2">  1       -3 0.65406998E-01 0.49846737E+03</pdfrwt>
<totfact> 0.32324725E+00</totfact>
</mgrwt>
</event>
<event>
12    1  0.7781383E-008  0.7405902E+03  0.7818608E-02  0.9650230E-01
          1   -1    0    0  501    0  0.00000000000E+00  0.00000000000E+00  0.19636330319E+04  0.19636330319E+04  0.00000000000E+00 0. -1.
         -1   -1    0    0    0  501 -0.00000000000E+00 -0.00000000000E+00 -0.39908872244E+03  0.39908872244E+03  0.00000000000E+00 0.  1.
         23    2    1    2    0    0  0.69313682549E+03  0.21532675280E+03  0.10726902331E+04  0.13001442485E+04  0.11360660859E+03 0.  0.
    5000000    2    1    2    0    0 -0.69313682549E+03 -0.21532675280E+03  0.49185407632E+03  0.10625775058E+04  0.60028847568E+03 0.  0.
         23    2    4    4    0    0 -0.25876287983E+03 -0.69617452665E+02  0.52330500903E+03  0.59505923792E+03  0.91883330663E+02 0.  0.
         23    2    4    4    0    0 -0.43437394566E+03 -0.14570930014E+03 -0.31450932713E+02  0.46751826785E+03  0.87591351111E+02 0.  0.
          3    1    3    3  502    0  0.10327987435E+03  0.76152900260E+02  0.17414068280E+03  0.21631221433E+03  0.00000000000E+00 0. -1.
         -3    1    3    3    0  502  0.58985695114E+03  0.13917385254E+03  0.89854955029E+03  0.10838320342E+04  0.00000000000E+00 0.  1.
         15    1    5    5    0    0 -0.14554481538E+03 -0.82356844833E+02  0.34597477576E+03  0.38427548239E+03  0.17770000000E+01 0. -1.
        -15    1    5    5    0    0 -0.11321806446E+03  0.12739392168E+02  0.17733023327E+03  0.21078375553E+03  0.17770000000E+01 0.  1.
          3    1    6    6  503    0 -0.25076664735E+03 -0.12691644868E+03 -0.52695629487E+01  0.28110401040E+03  0.00000000000E+00 0. -1.
         -3    1    6    6    0  503 -0.18360729831E+03 -0.18792851462E+02 -0.26181369764E+02  0.18641425745E+03  0.00000000000E+00 0.  1.
<mgrwt>
<rscale>  0 0.74059020E+03</rscale>
<asrwt>0</asrwt>
<pdfrwt beam="1">  1        1 0.30209738E+00 0.74059020E+03</pdfrwt>
<pdfrwt beam="2">  1       -1 0.61398266E-01 0.74059020E+03</pdfrwt>
<totfact> 0.88906053E+00</totfact>
</mgrwt>
</event>
<event>
12    1  0.7781383E-008  0.5690319E+03  0.7818608E-02  0.9971823E-01
          1   -1    0    0  501    0  0.00000000000E+00  0.00000000000E+00  0.31903376992E+03  0.31903376992E+03  0.00000000000E+00 0. -1.
         -1   -1    0    0    0  501 -0.00000000000E+00 -0.00000000000E+00 -0.14524528553E+04  0.14524528553E+04  0.00000000000E+00 0.  1.
         23    2    1    2    0    0 -0.36691030166E+03  0.40137390642E+03 -0.44705984299E+03  0.70989469491E+03  0.91453772057E+02 0.  0.
    5000000    2    1    2    0    0  0.36691030166E+03 -0.40137390642E+03 -0.68635924238E+03  0.10615919303E+04  0.60013684662E+03 0.  0.
         23    2    4    4    0    0  0.45252172365E+02 -0.23105325436E+02  0.87958312205E+02  0.13696932032E+03  0.91882070370E+02 0.  0.
         23    2    4    4    0    0  0.32165812930E+03 -0.37826858099E+03 -0.77431755459E+03  0.92462260999E+03  0.93852139329E+02 0.  0.
          1    1    3    3  502    0 -0.28753083543E+03  0.32668422824E+03 -0.30776341246E+03  0.53302428121E+03  0.00000000000E+00 0. -1.
         -1    1    3    3    0  502 -0.79379466231E+02  0.74689678180E+02 -0.13929643052E+03  0.17687041370E+03  0.00000000000E+00 0.  1.
         15    1    5    5    0    0  0.13584790332E+02 -0.52167419896E+02  0.74342676171E+02  0.91847577302E+02  0.17770000000E+01 0.  1.
        -15    1    5    5    0    0  0.31667382034E+02  0.29062094460E+02  0.13615636034E+02  0.45121743017E+02  0.17770000000E+01 0. -1.
          4    1    6    6  503    0  0.89041015203E+02 -0.11840991459E+03 -0.15891427311E+03  0.21726241382E+03  0.00000000000E+00 0. -1.
         -4    1    6    6    0  503  0.23261711409E+03 -0.25985866640E+03 -0.61540328147E+03  0.70736019617E+03  0.00000000000E+00 0.  1.
<mgrwt>
<rscale>  0 0.56903193E+03</rscale>
<asrwt>0</asrwt>
<pdfrwt beam="1">  1        1 0.49082119E-01 0.56903193E+03</pdfrwt>
<pdfrwt beam="2">  1       -1 0.22345428E+00 0.56903193E+03</pdfrwt>
<totfact> 0.89528283E+00</totfact>
</mgrwt>
</event>
<event>
12    1  0.7781383E-008  0.1573571E+04  0.7818608E-02  0.8836951E-01
          3   -1    0    0  501    0  0.00000000000E+00  0.00000000000E+00  0.38217908477E+04  0.38217908477E+04  0.00000000000E+00 0. -1.
         -3   -1    0    0    0  501 -0.00000000000E+00 -0.00000000000E+00 -0.10102173791E+04  0.10102173791E+04  0.00000000000E+00 0.  1.
         23    2    1    2    0    0 -0.14074319026E+04 -0.56888470889E+03  0.28152425660E+04  0.31997396253E+04  0.90821760422E+02 0.  0.
    5000000    2    1    2    0    0  0.14074319026E+04  0.56888470889E+03 -0.36690973924E+01  0.16322686014E+04  0.59982743550E+03 0.  0.
         23    2    4    4    0    0  0.10984993846E+04  0.16452093657E+03  0.25999702502E+02  0.11145788853E+04  0.88555466054E+02 0.  0.
         23    2    4    4    0    0  0.30893251806E+03  0.40436377232E+03 -0.29668799894E+02  0.51768971612E+03  0.90404885986E+02 0.  0.
          1    1    3    3  502    0 -0.84446859194E+03 -0.34987469225E+03  0.17861178410E+04  0.20064287789E+04  0.00000000000E+00 0. -1.
         -1    1    3    3    0  502 -0.56296331069E+03 -0.21901001664E+03  0.10291247250E+04  0.11933108464E+04  0.00000000000E+00 0.  1.
         15    1    5    5    0    0  0.54964465750E+03  0.41335677460E+02  0.30601928075E+02  0.55204847929E+03  0.17770000000E+01 0. -1.
        -15    1    5    5    0    0  0.54885472707E+03  0.12318525911E+03 -0.46022255736E+01  0.56253040602E+03  0.17770000000E+01 0.  1.
          3    1    6    6  503    0  0.97807225280E+00  0.32283270745E+02  0.78684587853E+01  0.33242726106E+02  0.00000000000E+00 0. -1.
         -3    1    6    6    0  503  0.30795444581E+03  0.37208050158E+03 -0.37537258680E+02  0.48444699002E+03  0.00000000000E+00 0.  1.
<mgrwt>
<rscale>  0 0.15735711E+04</rscale>
<asrwt>0</asrwt>
<pdfrwt beam="1">  1        3 0.58796782E+00 0.15735711E+04</pdfrwt>
<pdfrwt beam="2">  1       -3 0.15541806E+00 0.15735711E+04</pdfrwt>
<totfact> 0.90739784E-04</totfact>
</mgrwt>
</event>
<event>
12    1  0.7781383E-008  0.6374104E+03  0.7818608E-02  0.9830694E-01
         -1   -1    0    0    0  501 -0.00000000000E+00  0.00000000000E+00  0.49923259846E+03  0.49923259846E+03  0.00000000000E+00 0.  1.
          1   -1    0    0  501    0  0.00000000000E+00 -0.00000000000E+00 -0.88422408911E+03  0.88422408911E+03  0.00000000000E+00 0. -1.
         23    2    1    2    0    0 -0.15765295880E+03 -0.49800781997E+03 -0.19836174571E+03  0.56631074343E+03  0.92164156753E+02 0.  0.
    5000000    2    1    2    0    0  0.15765295880E+03  0.49800781997E+03 -0.18662974493E+03  0.81714594414E+03  0.60002548959E+03 0.  0.
         23    2    4    4    0    0  0.29899968738E+03  0.94363977932E+02  0.32462413830E+02  0.32829070038E+03  0.91736591713E+02 0.  0.
         23    2    4    4    0    0 -0.14134672858E+03  0.40364384204E+03 -0.21909215876E+03  0.48885524376E+03  0.89837778381E+02 0.  0.
          1    1    3    3  502    0 -0.96056185888E+02 -0.15864962623E+03 -0.73703536421E+02  0.19957130563E+03  0.00000000000E+00 0. -1.
         -1    1    3    3    0  502 -0.61596772914E+02 -0.33935819374E+03 -0.12465820929E+03  0.36673943780E+03  0.00000000000E+00 0.  1.
         15    1    5    5    0    0  0.13524123606E+03  0.42430629487E+02 -0.31065319933E+02  0.14511637427E+03  0.17770000000E+01 0. -1.
        -15    1    5    5    0    0  0.16375845132E+03  0.51933348445E+02  0.63527733763E+02  0.18317432611E+03  0.17770000000E+01 0.  1.
          4    1    6    6  503    0 -0.43580777878E+02  0.20396577439E+03 -0.65425055624E+02  0.21859039144E+03  0.00000000000E+00 0.  1.
         -4    1    6    6    0  503 -0.97765950702E+02  0.19967806764E+03 -0.15366710314E+03  0.27026485232E+03  0.00000000000E+00 0. -1.
<mgrwt>
<rscale>  0 0.63741039E+03</rscale>
<asrwt>0</asrwt>
<pdfrwt beam="1">  1        1 0.13603447E+00 0.63741039E+03</pdfrwt>
<pdfrwt beam="2">  1       -1 0.76805016E-01 0.63741039E+03</pdfrwt>
<totfact> 0.33132746E+01</totfact>
</mgrwt>
</event>
<event>
12    1  0.7781383E-008  0.7022369E+03  0.7818608E-02  0.9713414E-01
         -2   -1    0    0    0  501 -0.00000000000E+00  0.00000000000E+00  0.54476945718E+03  0.54476945718E+03  0.00000000000E+00 0.  1.
          2   -1    0    0  501    0  0.00000000000E+00 -0.00000000000E+00 -0.11783405683E+04  0.11783405683E+04  0.00000000000E+00 0. -1.
         23    2    1    2    0    0 -0.11719081006E+03 -0.58257291308E+03 -0.64070855345E+03  0.87863469372E+03  0.91469063210E+02 0.  0.
    5000000    2    1    2    0    0  0.11719081006E+03  0.58257291308E+03  0.71374423579E+01  0.84447533173E+03  0.59996896403E+03 0.  0.
         23    2    4    4    0    0  0.21787486230E+03  0.64401745443E+01  0.83383317133E+02  0.24784232131E+03  0.83439242486E+02 0.  0.
         23    2    4    4    0    0 -0.10068405223E+03  0.57613273854E+03 -0.76245874775E+02  0.59663301042E+03  0.89951681004E+02 0.  0.
          4    1    3    3  502    0 -0.97119835046E+02 -0.26047778671E+03 -0.31488773733E+03  0.42004193463E+03  0.00000000000E+00 0. -1.
         -4    1    3    3    0  502 -0.20070975019E+02 -0.32209512638E+03 -0.32582081612E+03  0.45859275909E+03  0.00000000000E+00 0.  1.
         15    1    5    5    0    0  0.14762193190E+03  0.33121204626E+00  0.96113066109E+02  0.17616249228E+03  0.17770000000E+01 0.  1.
        -15    1    5    5    0    0  0.70252930394E+02  0.61089624980E+01 -0.12729748976E+02  0.71679829030E+02  0.17770000000E+01 0. -1.
          3    1    6    6  503    0 -0.59337836784E+02  0.25558443052E+03  0.84427552718E+01  0.26251792342E+03  0.00000000000E+00 0. -1.
         -3    1    6    6    0  503 -0.41346215447E+02  0.32054830802E+03 -0.84688630047E+02  0.33411508701E+03  0.00000000000E+00 0.  1.
<mgrwt>
<rscale>  0 0.70223688E+03</rscale>
<asrwt>0</asrwt>
<pdfrwt beam="1">  1        2 0.18128316E+00 0.70223688E+03</pdfrwt>
<pdfrwt beam="2">  1       -2 0.83810687E-01 0.70223688E+03</pdfrwt>
<totfact> 0.24864359E+01</totfact>
</mgrwt>
</event>
<event>
12    1  0.7781383E-008  0.6209543E+03  0.7818608E-02  0.9862862E-01
         -2   -1    0    0    0  501 -0.00000000000E+00  0.00000000000E+00  0.60678166211E+03  0.60678166211E+03  0.00000000000E+00 0.  1.
          2   -1    0    0  501    0  0.00000000000E+00 -0.00000000000E+00 -0.69368263238E+03  0.69368263238E+03  0.00000000000E+00 0. -1.
         23    2    1    2    0    0 -0.39531113253E+03  0.30862279983E+03 -0.96746768202E+02  0.51837276793E+03  0.88495566491E+02 0.  0.
    5000000    2    1    2    0    0  0.39531113253E+03 -0.30862279983E+03  0.98457979362E+01  0.78209152657E+03  0.60004274190E+03 0.  0.
         23    2    4    4    0    0  0.46391844919E+03 -0.70606497177E+02 -0.11514888631E+03  0.49187450165E+03  0.92063317397E+02 0.  0.
         23    2    4    4    0    0 -0.68607316660E+02 -0.23801630266E+03  0.12499468424E+03  0.29021702492E+03  0.85108908076E+02 0.  0.
          1    1    3    3  502    0 -0.11120564866E+03  0.41467275323E+02 -0.33229268268E+02  0.12324940360E+03  0.00000000000E+00 0. -1.
         -1    1    3    3    0  502 -0.28410548387E+03  0.26715552451E+03 -0.63517499933E+02  0.39512336433E+03  0.00000000000E+00 0.  1.
         15    1    5    5    0    0  0.17428747388E+03 -0.21621885675E+01 -0.81315577160E+02  0.19234390926E+03  0.17770000000E+01 0.  1.
        -15    1    5    5    0    0  0.28963097531E+03 -0.68444308609E+02 -0.33833309148E+02  0.29953059239E+03  0.17770000000E+01 0. -1.
          2    1    6    6  503    0  0.19620244132E+02 -0.41813775345E+02  0.29814661006E+02  0.54975083441E+02  0.00000000000E+00 0. -1.
         -2    1    6    6    0  503 -0.88227560792E+02 -0.19620252731E+03  0.95180023239E+02  0.23524194148E+03  0.00000000000E+00 0.  1.
<mgrwt>
<rscale>  0 0.62095429E+03</rscale>
<asrwt>0</asrwt>
<pdfrwt beam="1">  1        2 0.10672041E+00 0.62095429E+03</pdfrwt>
<pdfrwt beam="2">  1       -2 0.93351025E-01 0.62095429E+03</pdfrwt>
<totfact> 0.41222925E+01</totfact>
</mgrwt>
</event>
<event>
12    1  0.7781383E-008  0.8557253E+03  0.7818608E-02  0.9482685E-01
          2   -1    0    0  501    0  0.00000000000E+00  0.00000000000E+00  0.10831497751E+04  0.10831497751E+04  0.00000000000E+00 0. -1.
         -2   -1    0    0    0  501 -0.00000000000E+00 -0.00000000000E+00 -0.87603347635E+03  0.87603347635E+03  0.00000000000E+00 0.  1.
         23    2    1    2    0    0  0.58000197783E+03 -0.53633178662E+03 -0.29398523542E+03  0.84783152241E+03  0.91306583119E+02 0.  0.
    5000000    2    1    2    0    0 -0.58000197783E+03  0.53633178662E+03  0.50110153422E+03  0.11113517291E+04  0.59995486372E+03 0.  0.
         23    2    4    4    0    0 -0.51585327664E+03  0.61549767057E+03  0.54132282927E+03  0.97240057595E+03  0.87123413166E+02 0.  0.
         23    2    4    4    0    0 -0.64148701190E+02 -0.79165883944E+02 -0.40221295047E+02  0.13895115313E+03  0.85483199151E+02 0.  0.
          2    1    3    3  502    0  0.37640371740E+03 -0.34434817375E+03 -0.14278781895E+03  0.52975823210E+03  0.00000000000E+00 0.  1.
         -2    1    3    3    0  502  0.20359826043E+03 -0.19198361287E+03 -0.15119741647E+03  0.31807329031E+03  0.00000000000E+00 0. -1.
         15    1    5    5    0    0 -0.24794516611E+03  0.24894085870E+03  0.27358485650E+03  0.44530909261E+03  0.17770000000E+01 0.  1.
        -15    1    5    5    0    0 -0.26790811053E+03  0.36655681187E+03  0.26773797277E+03  0.52709148334E+03  0.17770000000E+01 0. -1.
          3    1    6    6  503    0  0.71431944886E+01 -0.26480647745E+02  0.18080430654E+02  0.32850447564E+02  0.00000000000E+00 0. -1.
         -3    1    6    6    0  503 -0.71291895678E+02 -0.52685236199E+02 -0.58301725701E+02  0.10610070557E+03  0.00000000000E+00 0.  1.
<mgrwt>
<rscale>  0 0.85572534E+03</rscale>
<asrwt>0</asrwt>
<pdfrwt beam="1">  1        2 0.16663843E+00 0.85572534E+03</pdfrwt>
<pdfrwt beam="2">  1       -2 0.13477438E+00 0.85572534E+03</pdfrwt>
<totfact> 0.88965736E+00</totfact>
</mgrwt>
</event>
<event>
12    1  0.7781383E-008  0.6652114E+03  0.7818608E-02  0.9778647E-01
          2   -1    0    0  501    0  0.00000000000E+00  0.00000000000E+00  0.26988715507E+04  0.26988715507E+04  0.00000000000E+00 0.  1.
         -2   -1    0    0    0  501 -0.00000000000E+00 -0.00000000000E+00 -0.19299766405E+03  0.19299766405E+03  0.00000000000E+00 0. -1.
         23    2    1    2    0    0  0.48558515776E+03 -0.25603244391E+03  0.59255749855E+03  0.81291759026E+03  0.91460711219E+02 0.  0.
    5000000    2    1    2    0    0 -0.48558515776E+03  0.25603244391E+03  0.19133163881E+04  0.20789516245E+04  0.59992891097E+03 0.  0.
         23    2    4    4    0    0  0.44794837121E+02 -0.10900498016E+03  0.52640441160E+03  0.54706953126E+03  0.91075816452E+02 0.  0.
         23    2    4    4    0    0 -0.53037999488E+03  0.36503742407E+03  0.13869119765E+04  0.15318820932E+04  0.92642630972E+02 0.  0.
          1    1    3    3  502    0  0.35802290651E+03 -0.15068989569E+03  0.37822874445E+03  0.54216679110E+03  0.00000000000E+00 0. -1.
         -1    1    3    3    0  502  0.12756225125E+03 -0.10534254823E+03  0.21432875410E+03  0.27075079916E+03  0.00000000000E+00 0.  1.
         15    1    5    5    0    0  0.72352762616E+00 -0.67151672558E+02  0.41266577899E+03  0.41809816252E+03  0.17770000000E+01 0. -1.
        -15    1    5    5    0    0  0.44071309495E+02 -0.41853307598E+02  0.11373863261E+03  0.12897136874E+03  0.17770000000E+01 0.  1.
          1    1    6    6  503    0 -0.18281730510E+03  0.82155692722E+02  0.48469383257E+03  0.52449960555E+03  0.00000000000E+00 0. -1.
         -1    1    6    6    0  503 -0.34756268978E+03  0.28288173135E+03  0.90221814394E+03  0.10073824877E+04  0.00000000000E+00 0.  1.
<mgrwt>
<rscale>  0 0.66521138E+03</rscale>
<asrwt>0</asrwt>
<pdfrwt beam="1">  1        2 0.41521098E+00 0.66521138E+03</pdfrwt>
<pdfrwt beam="2">  1       -2 0.29691950E-01 0.66521138E+03</pdfrwt>
<totfact> 0.29544978E+01</totfact>
</mgrwt>
</event>
<event>
12    1  0.7781383E-008  0.1138181E+04  0.7818608E-02  0.9168757E-01
         -2   -1    0    0    0  501 -0.00000000000E+00  0.00000000000E+00  0.12709962682E+04  0.12709962682E+04  0.00000000000E+00 0.  1.
          2   -1    0    0  501    0  0.00000000000E+00 -0.00000000000E+00 -0.17717517900E+04  0.17717517900E+04  0.00000000000E+00 0. -1.
         23    2    1    2    0    0 -0.98067668034E+03 -0.45480523233E+03  0.72251698405E+03  0.13034856083E+04  0.92029278309E+02 0.  0.
    5000000    2    1    2    0    0  0.98067668034E+03  0.45480523233E+03 -0.12232725059E+04  0.17392624500E+04  0.60005307723E+03 0.  0.
         23    2    4    4    0    0  0.46850518054E+03  0.47601900672E+03 -0.46249854506E+03  0.81732391568E+03  0.89567181546E+02 0.  0.
         23    2    4    4    0    0  0.51217149980E+03 -0.21213774382E+02 -0.76077396082E+03  0.92193853429E+03  0.91782199302E+02 0.  0.
          4    1    3    3  502    0 -0.36796347733E+03 -0.12825343519E+03  0.23385712399E+03  0.45446146012E+03  0.00000000000E+00 0. -1.
         -4    1    3    3    0  502 -0.61271320301E+03 -0.32655179714E+03  0.48865986005E+03  0.84902414817E+03  0.00000000000E+00 0.  1.
         15    1    5    5    0    0  0.16713423229E+03  0.11156990130E+03 -0.13694443110E+03  0.24318435274E+03  0.17770000000E+01 0.  1.
        -15    1    5    5    0    0  0.30137094825E+03  0.36444910541E+03 -0.32555411397E+03  0.57413956294E+03  0.17770000000E+01 0. -1.
          4    1    6    6  503    0  0.50583615315E+02  0.21472553017E+02 -0.56662713523E+02  0.78933109499E+02  0.00000000000E+00 0. -1.
         -4    1    6    6    0  503  0.46158788448E+03 -0.42686327399E+02 -0.70411124730E+03  0.84300542479E+03  0.00000000000E+00 0.  1.
<mgrwt>
<rscale>  0 0.11381810E+04</rscale>
<asrwt>0</asrwt>
<pdfrwt beam="1">  1        2 0.27257720E+00 0.11381810E+04</pdfrwt>
<pdfrwt beam="2">  1       -2 0.19553789E+00 0.11381810E+04</pdfrwt>
<totfact> 0.12449565E+00</totfact>
</mgrwt>
</event>
<event>
12    1  0.7781383E-008  0.7132381E+03  0.7818608E-02  0.9694857E-01
          1   -1    0    0  501    0  0.00000000000E+00  0.00000000000E+00  0.82098418701E+03  0.82098418701E+03  0.00000000000E+00 0. -1.
         -1   -1    0    0    0  501 -0.00000000000E+00 -0.00000000000E+00 -0.82070574495E+03  0.82070574495E+03  0.00000000000E+00 0.  1.
         23    2    1    2    0    0  0.51242862902E+03 -0.48446126571E+03 -0.66400330335E+02  0.71349185584E+03  0.85882516693E+02 0.  0.
    5000000    2    1    2    0    0 -0.51242862902E+03  0.48446126571E+03  0.66678772392E+02  0.92819807612E+03  0.59984980788E+03 0.  0.
         23    2    4    4    0    0 -0.16475543749E+03  0.13360831860E+03 -0.24539802935E+03  0.33645259044E+03  0.89356677544E+02 0.  0.
         23    2    4    4    0    0 -0.34767319153E+03  0.35085294711E+03  0.31207680174E+03  0.59174548568E+03  0.93788864105E+02 0.  0.
          4    1    3    3  502    0  0.42026256527E+03 -0.37253801868E+03 -0.82407682306E+02  0.56762331279E+03  0.00000000000E+00 0. -1.
         -4    1    3    3    0  502  0.92166063750E+02 -0.11192324703E+03  0.16007351971E+02  0.14586854305E+03  0.00000000000E+00 0.  1.
         15    1    5    5    0    0 -0.36729224810E+02  0.77825209143E+02 -0.12664993397E+03  0.15313119420E+03  0.17770000000E+01 0. -1.
        -15    1    5    5    0    0 -0.12802621268E+03  0.55783109455E+02 -0.11874809539E+03  0.18332139624E+03  0.17770000000E+01 0.  1.
          2    1    6    6  503    0 -0.30873439772E+03  0.31769217356E+03  0.30975139784E+03  0.54054710612E+03  0.00000000000E+00 0.  1.
         -2    1    6    6    0  503 -0.38938793813E+02  0.33160773547E+02  0.23254039090E+01  0.51198379556E+02  0.00000000000E+00 0. -1.
<mgrwt>
<rscale>  0 0.71323809E+03</rscale>
<asrwt>0</asrwt>
<pdfrwt beam="1">  1        1 0.12630526E+00 0.71323809E+03</pdfrwt>
<pdfrwt beam="2">  1       -1 0.12626242E+00 0.71323809E+03</pdfrwt>
<totfact> 0.11980036E+01</totfact>
</mgrwt>
</event>
<event>
12    1  0.7781383E-008  0.8840914E+03  0.7818608E-02  0.9445689E-01
          2   -1    0    0  501    0  0.00000000000E+00  0.00000000000E+00  0.11327373284E+04  0.11327373284E+04  0.00000000000E+00 0. -1.
         -2   -1    0    0    0  501 -0.00000000000E+00 -0.00000000000E+00 -0.76454209476E+03  0.76454209476E+03  0.00000000000E+00 0.  1.
         23    2    1    2    0    0  0.70007916850E+03  0.36905919497E+03 -0.94024070109E+02  0.80190754673E+03  0.88880010007E+02 0.  0.
    5000000    2    1    2    0    0 -0.70007916850E+03 -0.36905919497E+03  0.46221930378E+03  0.10953718765E+04  0.59989776746E+03 0.  0.
         23    2    4    4    0    0 -0.13526058823E+03  0.14833133132E+03  0.84279392297E+02  0.23647168564E+03  0.92294266145E+02 0.  0.
         23    2    4    4    0    0 -0.56481858027E+03 -0.51739052629E+03  0.37793991148E+03  0.85890019083E+03  0.90321513453E+02 0.  0.
          1    1    3    3  502    0  0.30950994549E+03  0.16870442532E+03  0.22698305921E+01  0.35250920784E+03  0.00000000000E+00 0. -1.
         -1    1    3    3    0  502  0.39056922301E+03  0.20035476965E+03 -0.96293900701E+02  0.44939833889E+03  0.00000000000E+00 0.  1.
         15    1    5    5    0    0  0.37228204587E+01  0.37100865241E+01 -0.12561288343E+02  0.13732000147E+02  0.17770000000E+01 0. -1.
        -15    1    5    5    0    0 -0.13898340869E+03  0.14462124480E+03  0.96840680640E+02  0.22273968549E+03  0.17770000000E+01 0.  1.
          3    1    6    6  503    0 -0.48613445219E+03 -0.40145248926E+03  0.29495452595E+03  0.69605242555E+03  0.00000000000E+00 0. -1.
         -3    1    6    6    0  503 -0.78684128084E+02 -0.11593803703E+03  0.82985385528E+02  0.16284776527E+03  0.00000000000E+00 0.  1.
<mgrwt>
<rscale>  0 0.88409136E+03</rscale>
<asrwt>0</asrwt>
<pdfrwt beam="1">  1        2 0.17426728E+00 0.88409136E+03</pdfrwt>
<pdfrwt beam="2">  1       -2 0.11762186E+00 0.88409136E+03</pdfrwt>
<totfact> 0.11649199E+01</totfact>
</mgrwt>
</event>
<event>
12    1  0.7781383E-008  0.4970572E+03  0.7818608E-02  0.1014550E+00
          2   -1    0    0  501    0  0.00000000000E+00  0.00000000000E+00  0.96770166573E+03  0.96770166573E+03  0.00000000000E+00 0. -1.
         -2   -1    0    0    0  501 -0.00000000000E+00 -0.00000000000E+00 -0.31754255371E+03  0.31754255371E+03  0.00000000000E+00 0.  1.
         23    2    1    2    0    0  0.33605746574E+03 -0.14694839597E+03  0.36743319443E+03  0.52700895891E+03  0.90569526050E+02 0.  0.
    5000000    2    1    2    0    0 -0.33605746574E+03  0.14694839597E+03  0.28272591759E+03  0.75823526052E+03  0.60038180725E+03 0.  0.
         23    2    4    4    0    0 -0.22342501092E+03  0.32654144736E+03  0.32927569954E+03  0.52278674944E+03  0.91298667776E+02 0.  0.
         23    2    4    4    0    0 -0.11263245482E+03 -0.17959305140E+03 -0.46549781951E+02  0.23544851108E+03  0.91265465435E+02 0.  0.
          3    1    3    3  502    0  0.19164197553E+03 -0.64408662190E+02  0.14292283822E+03  0.24759252864E+03  0.00000000000E+00 0. -1.
         -3    1    3    3    0  502  0.14441549021E+03 -0.82539733776E+02  0.22451035621E+03  0.27941643028E+03  0.00000000000E+00 0.  1.
         15    1    5    5    0    0 -0.22279759043E+03  0.28284054193E+03  0.27490455963E+03  0.45300465019E+03  0.17770000000E+01 0. -1.
        -15    1    5    5    0    0 -0.62742048713E+00  0.43700905435E+02  0.54371139905E+02  0.69782099251E+02  0.17770000000E+01 0.  1.
          2    1    6    6  503    0 -0.96470131963E+02 -0.93993547453E+02 -0.59739949705E+02  0.14734359475E+03  0.00000000000E+00 0. -1.
         -2    1    6    6    0  503 -0.16162322857E+02 -0.85599503945E+02  0.13190167755E+02  0.88104916328E+02  0.00000000000E+00 0.  1.
<mgrwt>
<rscale>  0 0.49705723E+03</rscale>
<asrwt>0</asrwt>
<pdfrwt beam="1">  1        2 0.14887718E+00 0.49705723E+03</pdfrwt>
<pdfrwt beam="2">  1       -2 0.48852701E-01 0.49705723E+03</pdfrwt>
<totfact> 0.10858573E+02</totfact>
</mgrwt>
</event>
<event>
12    1  0.7781383E-008  0.5802434E+03  0.7818608E-02  0.9947264E-01
         -1   -1    0    0    0  501 -0.00000000000E+00  0.00000000000E+00  0.89462578014E+03  0.89462578014E+03  0.00000000000E+00 0.  1.
          1   -1    0    0  501    0  0.00000000000E+00 -0.00000000000E+00 -0.39024406456E+03  0.39024406456E+03  0.00000000000E+00 0. -1.
         23    2    1    2    0    0  0.12251585362E+03 -0.40973608292E+03  0.11676141540E+03  0.45199842302E+03  0.88179103250E+02 0.  0.
    5000000    2    1    2    0    0 -0.12251585362E+03  0.40973608292E+03  0.38762030017E+03  0.83287142169E+03  0.60044276657E+03 0.  0.
         23    2    4    4    0    0 -0.34796132076E+03  0.29098061229E+03  0.20601056819E+03  0.50526643284E+03  0.84303122536E+02 0.  0.
         23    2    4    4    0    0  0.22544546714E+03  0.11875547062E+03  0.18160973198E+03  0.32760498885E+03  0.97027900682E+02 0.  0.
          4    1    3    3  502    0  0.35787854472E+02 -0.22781151789E+03  0.29894265786E+02  0.23253499809E+03  0.00000000000E+00 0. -1.
         -4    1    3    3    0  502  0.86727999153E+02 -0.18192456503E+03  0.86867149616E+02  0.21946342493E+03  0.00000000000E+00 0.  1.
         15    1    5    5    0    0 -0.94432834920E+02  0.11118275962E+03  0.10000067215E+03  0.17686847799E+03  0.17770000000E+01 0.  1.
        -15    1    5    5    0    0 -0.25352848584E+03  0.17979785267E+03  0.10600989604E+03  0.32839795485E+03  0.17770000000E+01 0. -1.
          3    1    6    6  503    0  0.14311807267E+03  0.22329033055E+02  0.11091345713E+03  0.18243673812E+03  0.00000000000E+00 0. -1.
         -3    1    6    6    0  503  0.82327394465E+02  0.96426437570E+02  0.70696274856E+02  0.14516825073E+03  0.00000000000E+00 0.  1.
<mgrwt>
<rscale>  0 0.58024339E+03</rscale>
<asrwt>0</asrwt>
<pdfrwt beam="1">  1        1 0.60037549E-01 0.58024339E+03</pdfrwt>
<pdfrwt beam="2">  1       -1 0.13763473E+00 0.58024339E+03</pdfrwt>
<totfact> 0.28333974E+01</totfact>
</mgrwt>
</event>
<event>
12    1  0.7781383E-008  0.5655587E+03  0.7818608E-02  0.9979555E-01
          1   -1    0    0  501    0  0.00000000000E+00  0.00000000000E+00  0.97655221147E+03  0.97655221147E+03  0.00000000000E+00 0. -1.
         -1   -1    0    0    0  501 -0.00000000000E+00 -0.00000000000E+00 -0.37713943521E+03  0.37713943521E+03  0.00000000000E+00 0.  1.
         23    2    1    2    0    0  0.15274417140E+03 -0.40458287074E+03  0.37835590857E+03  0.58182187821E+03  0.91353287918E+02 0.  0.
    5000000    2    1    2    0    0 -0.15274417140E+03  0.40458287074E+03  0.22105686769E+03  0.77186976848E+03  0.59991559368E+03 0.  0.
         23    2    4    4    0    0 -0.35159493236E+03  0.31988680183E+03  0.23376745743E+03  0.53749609778E+03  0.91149703918E+02 0.  0.
         23    2    4    4    0    0  0.19885076096E+03  0.84696068909E+02 -0.12710589746E+02  0.23437367070E+03  0.89746360379E+02 0.  0.
          4    1    3    3  502    0  0.13277089689E+03 -0.30918182893E+03  0.33609406818E+03  0.47558462661E+03  0.00000000000E+00 0. -1.
         -4    1    3    3    0  502  0.19973274514E+02 -0.95401041815E+02  0.42261840393E+02  0.10623725160E+03  0.00000000000E+00 0.  1.
         15    1    5    5    0    0 -0.20350050694E+03  0.15477078232E+03  0.81107171120E+02  0.26823121056E+03  0.17770000000E+01 0. -1.
        -15    1    5    5    0    0 -0.14809442542E+03  0.16511601952E+03  0.15266028631E+03  0.26926488722E+03  0.17770000000E+01 0.  1.
          3    1    6    6  503    0  0.95431679657E+02  0.19427087963E+02 -0.45890748486E+02  0.10765954684E+03  0.00000000000E+00 0. -1.
         -3    1    6    6    0  503  0.10341908130E+03  0.65268980946E+02  0.33180158739E+02  0.12671412386E+03  0.00000000000E+00 0.  1.
<mgrwt>
<rscale>  0 0.56555866E+03</rscale>
<asrwt>0</asrwt>
<pdfrwt beam="1">  1        1 0.15023880E+00 0.56555866E+03</pdfrwt>
<pdfrwt beam="2">  1       -1 0.58021452E-01 0.56555866E+03</pdfrwt>
<totfact> 0.49678924E+01</totfact>
</mgrwt>
</event>
<event>
12    1  0.7781383E-008  0.1615772E+04  0.7818608E-02  0.8810917E-01
         -2   -1    0    0    0  501 -0.00000000000E+00  0.00000000000E+00  0.14553062232E+04  0.14553062232E+04  0.00000000000E+00 0.  1.
          2   -1    0    0  501    0  0.00000000000E+00 -0.00000000000E+00 -0.19671972165E+04  0.19671972165E+04  0.00000000000E+00 0. -1.
         23    2    1    2    0    0  0.59454220912E+03 -0.14491843835E+04  0.23411390866E+03  0.15865583075E+04  0.93499331717E+02 0.  0.
    5000000    2    1    2    0    0 -0.59454220912E+03  0.14491843835E+04 -0.74600490195E+03  0.18359451323E+04  0.60046265425E+03 0.  0.
         23    2    4    4    0    0 -0.81754230149E+01  0.72564497491E+03 -0.22422076421E+03  0.76461863963E+03  0.87972983393E+02 0.  0.
         23    2    4    4    0    0 -0.58636678610E+03  0.72353940861E+03 -0.52178413774E+03  0.10713264927E+04  0.90257873940E+02 0.  0.
          1    1    3    3  502    0  0.18637116950E+03 -0.50293405442E+03  0.12103651739E+03  0.54984244513E+03  0.00000000000E+00 0. -1.
         -1    1    3    3    0  502  0.40817103961E+03 -0.94625032910E+03  0.11307739127E+03  0.10367158624E+04  0.00000000000E+00 0.  1.
         15    1    5    5    0    0  0.80609035854E+01  0.70159017585E+03 -0.21943041300E+03  0.73515074433E+03  0.17770000000E+01 0. -1.
        -15    1    5    5    0    0 -0.16236326600E+02  0.24054799060E+02 -0.47903512140E+01  0.29467895294E+02  0.17770000000E+01 0.  1.
          4    1    6    6  503    0 -0.50724973034E+03  0.58400398139E+03 -0.45611557637E+03  0.89800019945E+03  0.00000000000E+00 0. -1.
         -4    1    6    6    0  503 -0.79117055758E+02  0.13953542723E+03 -0.65668561373E+02  0.17332629320E+03  0.00000000000E+00 0.  1.
<mgrwt>
<rscale>  0 0.16157721E+04</rscale>
<asrwt>0</asrwt>
<pdfrwt beam="1">  1        2 0.30264573E+00 0.16157721E+04</pdfrwt>
<pdfrwt beam="2">  1       -2 0.22389326E+00 0.16157721E+04</pdfrwt>
<totfact> 0.60358957E-01</totfact>
</mgrwt>
</event>
<event>
12    1  0.7781383E-008  0.1205927E+04  0.7818608E-02  0.9107684E-01
          2   -1    0    0  501    0  0.00000000000E+00  0.00000000000E+00  0.22592023523E+04  0.22592023523E+04  0.00000000000E+00 0. -1.
         -2   -1    0    0    0  501 -0.00000000000E+00 -0.00000000000E+00 -0.67345888040E+03  0.67345888040E+03  0.00000000000E+00 0.  1.
         23    2    1    2    0    0  0.11048697607E+04  0.34820798180E+03  0.72475747186E+03  0.13695577873E+04  0.91810419107E+02 0.  0.
    5000000    2    1    2    0    0 -0.11048697607E+04 -0.34820798180E+03  0.86098600005E+03  0.15631034454E+04  0.60000791818E+03 0.  0.
         23    2    4    4    0    0 -0.10839522226E+04 -0.20287941440E+03  0.84044948573E+03  0.13896001031E+04  0.92307264080E+02 0.  0.
         23    2    4    4    0    0 -0.20917538165E+02 -0.14532856739E+03  0.20536514319E+02  0.17350334222E+03  0.90131711618E+02 0.  0.
          2    1    3    3  502    0  0.20453222228E+03  0.54250659556E+02  0.17395931169E+03  0.27393138947E+03  0.00000000000E+00 0. -1.
         -2    1    3    3    0  502  0.90033753845E+03  0.29395732224E+03  0.55079816017E+03  0.10956263979E+04  0.00000000000E+00 0.  1.
         15    1    5    5    0    0 -0.31868286113E+02  0.64928377921E+01  0.14041906116E+02  0.35469387629E+02  0.17770000000E+01 0. -1.
        -15    1    5    5    0    0 -0.10520839365E+04 -0.20937225220E+03  0.82640757961E+03  0.13541307155E+04  0.17770000000E+01 0.  1.
          2    1    6    6  503    0  0.20248267460E+01 -0.26231931745E+01 -0.22462144180E+02  0.22705263420E+02  0.00000000000E+00 0. -1.
         -2    1    6    6    0  503 -0.22942364911E+02 -0.14270537422E+03  0.42998658499E+02  0.15079807880E+03  0.00000000000E+00 0.  1.
<mgrwt>
<rscale>  0 0.12059274E+04</rscale>
<asrwt>0</asrwt>
<pdfrwt beam="1">  1        2 0.34756959E+00 0.12059274E+04</pdfrwt>
<pdfrwt beam="2">  1       -2 0.10360906E+00 0.12059274E+04</pdfrwt>
<totfact> 0.35555574E+00</totfact>
</mgrwt>
</event>
<event>
12    1  0.7781383E-008  0.3091555E+03  0.7818608E-02  0.1080751E+00
         -2   -1    0    0    0  501 -0.00000000000E+00  0.00000000000E+00  0.19939584746E+03  0.19939584746E+03  0.00000000000E+00 0.  1.
          2   -1    0    0  501    0  0.00000000000E+00 -0.00000000000E+00 -0.90630558866E+03  0.90630558866E+03  0.00000000000E+00 0. -1.
         23    2    1    2    0    0  0.73688664528E+02  0.17776908285E+03 -0.24706311190E+03  0.32556452462E+03  0.88995574809E+02 0.  0.
    5000000    2    1    2    0    0 -0.73688664528E+02 -0.17776908285E+03 -0.45984662931E+03  0.78013691149E+03  0.60010233468E+03 0.  0.
         23    2    4    4    0    0 -0.15756936453E+03 -0.22825942989E+03  0.94938395587E+01  0.29193498464E+03  0.90583830193E+02 0.  0.
         23    2    4    4    0    0  0.83880700003E+02  0.50490347046E+02 -0.46934046886E+03  0.48820192685E+03  0.92061928564E+02 0.  0.
          2    1    3    3  502    0  0.87437113088E+02  0.15000824813E+03 -0.23530037451E+03  0.29242775090E+03  0.00000000000E+00 0. -1.
         -2    1    3    3    0  502 -0.13748448560E+02  0.27760834717E+02 -0.11762737394E+02  0.33136773726E+02  0.00000000000E+00 0.  1.
         15    1    5    5    0    0 -0.48871634144E+02 -0.13268110603E+03 -0.23816269991E+02  0.14339834367E+03  0.17770000000E+01 0. -1.
        -15    1    5    5    0    0 -0.10869773039E+03 -0.95578323865E+02  0.33310109550E+02  0.14853664097E+03  0.17770000000E+01 0.  1.
          3    1    6    6  503    0  0.35553078089E+02  0.67513740769E+02 -0.20062570630E+03  0.21464575603E+03  0.00000000000E+00 0. -1.
         -3    1    6    6    0  503  0.48327621914E+02 -0.17023393723E+02 -0.26871476257E+03  0.27355617082E+03  0.00000000000E+00 0.  1.
<mgrwt>
<rscale>  0 0.30915554E+03</rscale>
<asrwt>0</asrwt>
<pdfrwt beam="1">  1        2 0.13943163E+00 0.30915554E+03</pdfrwt>
<pdfrwt beam="2">  1       -2 0.30676284E-01 0.30915554E+03</pdfrwt>
<totfact> 0.29657060E+02</totfact>
</mgrwt>
</event>
<event>
12    1  0.7781383E-008  0.8096483E+03  0.7818608E-02  0.9546156E-01
         -1   -1    0    0    0  501 -0.00000000000E+00  0.00000000000E+00  0.14201993272E+04  0.14201993272E+04  0.00000000000E+00 0.  1.
          1   -1    0    0  501    0  0.00000000000E+00 -0.00000000000E+00 -0.64496352429E+03  0.64496352429E+03  0.00000000000E+00 0. -1.
         23    2    1    2    0    0  0.13976683724E+03  0.78820501415E+03  0.97984010004E+01  0.80570254490E+03  0.90877219792E+02 0.  0.
    5000000    2    1    2    0    0 -0.13976683724E+03 -0.78820501415E+03  0.76543740194E+03  0.12594603066E+04  0.59961982500E+03 0.  0.
         23    2    4    4    0    0 -0.68750132130E+02 -0.57913283301E+03  0.16489256391E+03  0.61293703979E+03  0.91546917891E+02 0.  0.
         23    2    4    4    0    0 -0.71016705112E+02 -0.20907218114E+03  0.60054483804E+03  0.64652326683E+03  0.92648166347E+02 0.  0.
          3    1    3    3  502    0  0.83294569106E+02  0.48978842114E+03 -0.37911904262E+02  0.49826498494E+03  0.00000000000E+00 0. -1.
         -3    1    3    3    0  502  0.56472268135E+02  0.29841659300E+03  0.47710305262E+02  0.30743755996E+03  0.00000000000E+00 0.  1.
         15    1    5    5    0    0  0.11459169846E+02 -0.95233730905E+02  0.15495744218E+01  0.95949648179E+02  0.17770000000E+01 0. -1.
        -15    1    5    5    0    0 -0.80209301976E+02 -0.48389910211E+03  0.16334298948E+03  0.51698739161E+03  0.17770000000E+01 0.  1.
          3    1    6    6  503    0 -0.25758091324E+02 -0.91422655718E+01  0.13663830252E+03  0.13934520445E+03  0.00000000000E+00 0. -1.
         -3    1    6    6    0  503 -0.45258613787E+02 -0.19992991556E+03  0.46390653552E+03  0.50717806238E+03  0.00000000000E+00 0.  1.
<mgrwt>
<rscale>  0 0.80964827E+03</rscale>
<asrwt>0</asrwt>
<pdfrwt beam="1">  1        1 0.99225158E-01 0.80964827E+03</pdfrwt>
<pdfrwt beam="2">  1       -1 0.21849220E+00 0.80964827E+03</pdfrwt>
<totfact> 0.35755524E+00</totfact>
</mgrwt>
</event>
<event>
12    1  0.7781383E-008  0.1373126E+04  0.7818608E-02  0.8973504E-01
          1   -1    0    0  501    0  0.00000000000E+00  0.00000000000E+00  0.26321976633E+04  0.26321976633E+04  0.00000000000E+00 0. -1.
         -1   -1    0    0    0  501 -0.00000000000E+00 -0.00000000000E+00 -0.79990587149E+03  0.79990587149E+03  0.00000000000E+00 0.  1.
         23    2    1    2    0    0  0.11907042749E+04 -0.67389036008E+03  0.11559064619E+04  0.17921707100E+04  0.62058177297E+02 0.  0.
    5000000    2    1    2    0    0 -0.11907042749E+04  0.67389036008E+03  0.67638532996E+03  0.16399328248E+04  0.59998138940E+03 0.  0.
         23    2    4    4    0    0 -0.92812564402E+03  0.51000132715E+03  0.22448948832E+03  0.10863063297E+04  0.90262654992E+02 0.  0.
         23    2    4    4    0    0 -0.26257863091E+03  0.16388903293E+03  0.45189584165E+03  0.55362649509E+03  0.80531309705E+02 0.  0.
          1    1    3    3  502    0  0.47895984190E+03 -0.26181179714E+03  0.49969173033E+03  0.74002687292E+03  0.00000000000E+00 0.  1.
         -1    1    3    3    0  502  0.71174443302E+03 -0.41207856294E+03  0.65621473152E+03  0.10521438370E+04  0.00000000000E+00 0. -1.
         15    1    5    5    0    0 -0.49498398593E+03  0.29277716778E+03  0.79796559727E+02  0.58060164052E+03  0.17770000000E+01 0. -1.
        -15    1    5    5    0    0 -0.43314165809E+03  0.21722415937E+03  0.14469292859E+03  0.50570468922E+03  0.17770000000E+01 0.  1.
          2    1    6    6  503    0 -0.33432323942E+02  0.55600376148E+02  0.11505450226E+03  0.13208580773E+03  0.00000000000E+00 0. -1.
         -2    1    6    6    0  503 -0.22914630696E+03  0.10828865678E+03  0.33684133938E+03  0.42154068736E+03  0.00000000000E+00 0.  1.
<mgrwt>
<rscale>  0 0.13731263E+04</rscale>
<asrwt>0</asrwt>
<pdfrwt beam="1">  1        1 0.40495348E+00 0.13731263E+04</pdfrwt>
<pdfrwt beam="2">  1       -1 0.12306244E+00 0.13731263E+04</pdfrwt>
<totfact> 0.61679389E-01</totfact>
</mgrwt>
</event>
<event>
12    1  0.7781383E-008  0.8383631E+03  0.7818608E-02  0.9506090E-01
         -2   -1    0    0    0  501 -0.00000000000E+00  0.00000000000E+00  0.21663922616E+04  0.21663922616E+04  0.00000000000E+00 0. -1.
          2   -1    0    0  501    0  0.00000000000E+00 -0.00000000000E+00 -0.69036332080E+03  0.69036332080E+03  0.00000000000E+00 0.  1.
         23    2    1    2    0    0 -0.52519192411E+03  0.58821305558E+03  0.16681622887E+04  0.18474376968E+04  0.91866566410E+02 0.  0.
    5000000    2    1    2    0    0  0.52519192411E+03 -0.58821305558E+03 -0.19213334786E+03  0.10093178857E+04  0.59998851249E+03 0.  0.
         23    2    4    4    0    0  0.33937001414E+03 -0.60161322143E+03  0.41455398227E+02  0.69839392245E+03  0.94472462567E+02 0.  0.
         23    2    4    4    0    0  0.18582190997E+03  0.13400165843E+02 -0.23358874609E+03  0.31092396324E+03  0.86027100100E+02 0.  0.
          1    1    3    3  502    0 -0.27096952173E+03  0.36806686647E+03  0.99461921026E+03  0.10946072690E+04  0.00000000000E+00 0. -1.
         -1    1    3    3    0  502 -0.25422240238E+03  0.22014618912E+03  0.67354307844E+03  0.75283042777E+03  0.00000000000E+00 0.  1.
         15    1    5    5    0    0  0.78558949270E+02 -0.71358304296E+02  0.10347000314E+02  0.10664771093E+03  0.17770000000E+01 0. -1.
        -15    1    5    5    0    0  0.26081106487E+03 -0.53025491713E+03  0.31108397913E+02  0.59174621152E+03  0.17770000000E+01 0.  1.
          2    1    6    6  503    0  0.12051959651E+03  0.82339385871E+01 -0.82608217920E+02  0.14634510089E+03  0.00000000000E+00 0. -1.
         -2    1    6    6    0  503  0.65302313460E+02  0.51662272561E+01 -0.15098052817E+03  0.16457886235E+03  0.00000000000E+00 0.  1.
<mgrwt>
<rscale>  0 0.83836315E+03</rscale>
<asrwt>0</asrwt>
<pdfrwt beam="1">  1        2 0.10620974E+00 0.83836315E+03</pdfrwt>
<pdfrwt beam="2">  1       -2 0.33329111E+00 0.83836315E+03</pdfrwt>
<totfact> 0.85488262E-01</totfact>
</mgrwt>
</event>
<event>
12    1  0.7781383E-008  0.5804168E+03  0.7818608E-02  0.9946889E-01
          1   -1    0    0  501    0  0.00000000000E+00  0.00000000000E+00  0.34231764900E+04  0.34231764900E+04  0.00000000000E+00 0. -1.
         -1   -1    0    0    0  501 -0.00000000000E+00 -0.00000000000E+00 -0.19271221791E+03  0.19271221791E+03  0.00000000000E+00 0.  1.
         23    2    1    2    0    0 -0.15829402579E+03 -0.46720804999E+03  0.24990918063E+04  0.25489889650E+04  0.92436610421E+02 0.  0.
    5000000    2    1    2    0    0  0.15829402579E+03  0.46720804999E+03  0.73137246579E+03  0.10668997429E+04  0.60002418039E+03 0.  0.
         23    2    4    4    0    0  0.63381478028E+01  0.49639795267E+03  0.72888723603E+03  0.88689756111E+03  0.94125350056E+02 0.  0.
         23    2    4    4    0    0  0.15195587799E+03 -0.29189902680E+02  0.24852297625E+01  0.18000218177E+03  0.91934595230E+02 0.  0.
          3    1    3    3  502    0 -0.33417879201E+02 -0.11790228851E+03  0.84290604007E+03  0.85176774808E+03  0.00000000000E+00 0. -1.
         -3    1    3    3    0  502 -0.12487614659E+03 -0.34930576149E+03  0.16561857662E+04  0.16972212170E+04  0.00000000000E+00 0.  1.
         15    1    5    5    0    0  0.23259264989E+02  0.82652815985E+02  0.81465797576E+02  0.11837362587E+03  0.17770000000E+01 0.  1.
        -15    1    5    5    0    0 -0.16921117186E+02  0.41374513669E+03  0.64742143845E+03  0.76852393524E+03  0.17770000000E+01 0. -1.
          2    1    6    6  503    0  0.22592074172E+02 -0.30534306322E+02  0.29189813912E+02  0.47903975974E+02  0.00000000000E+00 0. -1.
         -2    1    6    6    0  503  0.12936380382E+03  0.13444036419E+01 -0.26704584149E+02  0.13209820579E+03  0.00000000000E+00 0.  1.
<mgrwt>
<rscale>  0 0.58041684E+03</rscale>
<asrwt>0</asrwt>
<pdfrwt beam="1">  1        1 0.52664249E+00 0.58041684E+03</pdfrwt>
<pdfrwt beam="2">  1       -1 0.29648036E-01 0.58041684E+03</pdfrwt>
<totfact> 0.33560692E+00</totfact>
</mgrwt>
</event>
<event>
12    1  0.7781383E-008  0.5227306E+03  0.7818608E-02  0.1008010E+00
          2   -1    0    0  501    0  0.00000000000E+00  0.00000000000E+00  0.35828005661E+03  0.35828005661E+03  0.00000000000E+00 0. -1.
         -2   -1    0    0    0  501 -0.00000000000E+00 -0.00000000000E+00 -0.79670063854E+03  0.79670063854E+03  0.00000000000E+00 0.  1.
         23    2    1    2    0    0  0.29425583087E+03  0.18636316320E+03 -0.52680246049E+02  0.36112557532E+03  0.79490566938E+02 0.  0.
    5000000    2    1    2    0    0 -0.29425583087E+03 -0.18636316320E+03 -0.38574033589E+03  0.79385511983E+03  0.60007718001E+03 0.  0.
         23    2    4    4    0    0  0.16353777899E+03 -0.11565506960E+03 -0.91253323419E+02  0.23764627815E+03  0.89598460943E+02 0.  0.
         23    2    4    4    0    0 -0.45779360985E+03 -0.70708093596E+02 -0.29448701247E+03  0.55620884168E+03  0.89839030116E+02 0.  0.
          4    1    3    3  502    0  0.12943545869E+03  0.12537960455E+03 -0.11175954688E+02  0.18055050586E+03  0.00000000000E+00 0. -1.
         -4    1    3    3    0  502  0.16482037218E+03  0.60983558648E+02 -0.41504291361E+02  0.18057506946E+03  0.00000000000E+00 0.  1.
         15    1    5    5    0    0  0.14676164214E+03 -0.55714980625E+02 -0.69496184482E+02  0.17168580622E+03  0.17770000000E+01 0.  1.
        -15    1    5    5    0    0  0.16776136846E+02 -0.59940088976E+02 -0.21757138937E+02  0.65960471933E+02  0.17770000000E+01 0. -1.
          3    1    6    6  503    0 -0.10423958577E+03 -0.51275745484E+02 -0.53506214745E+02  0.12789842975E+03  0.00000000000E+00 0. -1.
         -3    1    6    6    0  503 -0.35355402409E+03 -0.19432348112E+02 -0.24098079772E+03  0.42831041193E+03  0.00000000000E+00 0.  1.
<mgrwt>
<rscale>  0 0.52273057E+03</rscale>
<asrwt>0</asrwt>
<pdfrwt beam="1">  1        2 0.55120009E-01 0.52273057E+03</pdfrwt>
<pdfrwt beam="2">  1       -2 0.12256933E+00 0.52273057E+03</pdfrwt>
<totfact> 0.46617214E+01</totfact>
</mgrwt>
</event>
<event>
12    1  0.7781383E-008  0.1268414E+04  0.7818608E-02  0.9054995E-01
          1   -1    0    0  501    0  0.00000000000E+00  0.00000000000E+00  0.57558516029E+03  0.57558516029E+03  0.00000000000E+00 0. -1.
         -1   -1    0    0    0  501 -0.00000000000E+00 -0.00000000000E+00 -0.31242563844E+04  0.31242563844E+04  0.00000000000E+00 0.  1.
         23    2    1    2    0    0 -0.11142480060E+04  0.58777754981E+03 -0.96783767427E+03  0.15912266466E+04  0.90892300198E+02 0.  0.
    5000000    2    1    2    0    0  0.11142480060E+04 -0.58777754981E+03 -0.15808335499E+04  0.21086148982E+04  0.60015915343E+03 0.  0.
         23    2    4    4    0    0  0.19939346649E+03 -0.65970971771E+02 -0.29060223172E+02  0.23085641192E+03  0.91325039060E+02 0.  0.
         23    2    4    4    0    0  0.91485453946E+03 -0.52180657804E+03 -0.15517733267E+04  0.18777584862E+04  0.93464120694E+02 0.  0.
          2    1    3    3  502    0 -0.37682578452E+03  0.21874554316E+03 -0.28552250899E+03  0.52093222944E+03  0.00000000000E+00 0. -1.
         -2    1    3    3    0  502 -0.73742222143E+03  0.36903200665E+03 -0.68231516528E+03  0.10702944171E+04  0.00000000000E+00 0.  1.
         15    1    5    5    0    0 -0.33813019743E+01  0.62763141568E+01  0.96567973476E+01  0.12134116632E+02  0.17770000000E+01 0. -1.
        -15    1    5    5    0    0  0.20277476847E+03 -0.72247285928E+02 -0.38717020520E+02  0.21872229529E+03  0.17770000000E+01 0.  1.
          1    1    6    6  503    0  0.48304254048E+03 -0.25365321524E+03 -0.87893851290E+03  0.10345061425E+04  0.00000000000E+00 0. -1.
         -1    1    6    6    0  503  0.43181199898E+03 -0.26815336280E+03 -0.67283481382E+03  0.84325234369E+03  0.00000000000E+00 0.  1.
<mgrwt>
<rscale>  0 0.12684137E+04</rscale>
<asrwt>0</asrwt>
<pdfrwt beam="1">  1        1 0.88551565E-01 0.12684137E+04</pdfrwt>
<pdfrwt beam="2">  1       -1 0.48065482E+00 0.12684137E+04</pdfrwt>
<totfact> 0.71486229E-02</totfact>
</mgrwt>
</event>
<event>
12    1  0.7781383E-008  0.7773674E+03  0.7818608E-02  0.9593367E-01
         -2   -1    0    0    0  501 -0.00000000000E+00  0.00000000000E+00  0.41712173816E+03  0.41712173816E+03  0.00000000000E+00 0.  1.
          2   -1    0    0  501    0  0.00000000000E+00 -0.00000000000E+00 -0.17812290120E+04  0.17812290120E+04  0.00000000000E+00 0. -1.
         23    2    1    2    0    0 -0.56231854643E+03 -0.42189135813E+03 -0.95119051224E+03  0.11861384415E+04  0.89255509885E+02 0.  0.
    5000000    2    1    2    0    0  0.56231854643E+03  0.42189135813E+03 -0.41291676162E+03  0.10122123087E+04  0.59989919165E+03 0.  0.
         23    2    4    4    0    0 -0.56665847845E+02  0.12590481930E+03 -0.25124581464E+03  0.30138269852E+03  0.92973274420E+02 0.  0.
         23    2    4    4    0    0  0.61898439428E+03  0.29598653883E+03 -0.16167094698E+03  0.71082961019E+03  0.91605284217E+02 0.  0.
          2    1    3    3  502    0 -0.38414864061E+03 -0.32449780072E+03 -0.72308128209E+03  0.88074714945E+03  0.00000000000E+00 0. -1.
         -2    1    3    3    0  502 -0.17816990582E+03 -0.97393557402E+02 -0.22810923015E+03  0.30539129202E+03  0.00000000000E+00 0.  1.
         15    1    5    5    0    0 -0.71794922955E+02  0.60155422190E+02 -0.10757356588E+03  0.14264787270E+03  0.17770000000E+01 0. -1.
        -15    1    5    5    0    0  0.15129075110E+02  0.65749397109E+02 -0.14367224876E+03  0.15873482582E+03  0.17770000000E+01 0.  1.
          1    1    6    6  503    0  0.47412609918E+03  0.20470921201E+03 -0.15615294974E+03  0.53952308858E+03  0.00000000000E+00 0. -1.
         -1    1    6    6    0  503  0.14485829510E+03  0.91277326820E+02 -0.55179972387E+01  0.17130652161E+03  0.00000000000E+00 0.  1.
<mgrwt>
<rscale>  0 0.77736737E+03</rscale>
<asrwt>0</asrwt>
<pdfrwt beam="1">  1        2 0.27403523E+00 0.77736737E+03</pdfrwt>
<pdfrwt beam="2">  1       -2 0.64172575E-01 0.77736737E+03</pdfrwt>
<totfact> 0.20344600E+01</totfact>
</mgrwt>
</event>
<event>
12    1  0.7781383E-008  0.8169588E+03  0.7818608E-02  0.9535789E-01
         -2   -1    0    0    0  501 -0.00000000000E+00  0.00000000000E+00  0.18363623089E+04  0.18363623089E+04  0.00000000000E+00 0.  1.
          2   -1    0    0  501    0  0.00000000000E+00 -0.00000000000E+00 -0.43680616687E+03  0.43680616687E+03  0.00000000000E+00 0. -1.
         23    2    1    2    0    0 -0.70985810227E+03  0.23839728456E+03  0.95116493646E+03  0.12138016107E+04  0.88700751062E+02 0.  0.
    5000000    2    1    2    0    0  0.70985810227E+03 -0.23839728456E+03  0.44839120558E+03  0.10593668650E+04  0.60039294703E+03 0.  0.
         23    2    4    4    0    0  0.71595775566E+03 -0.31073829018E+03  0.23768536930E+03  0.82104789533E+03  0.92040853863E+02 0.  0.
         23    2    4    4    0    0 -0.60996533863E+01  0.72341005619E+02  0.21070583628E+03  0.23831896970E+03  0.84430770531E+02 0.  0.
          4    1    3    3  502    0 -0.66981537285E+02  0.50303888358E+02  0.11951660905E+03  0.14594940000E+03  0.00000000000E+00 0. -1.
         -4    1    3    3    0  502 -0.64287656499E+03  0.18809339621E+03  0.83164832741E+03  0.10678522107E+04  0.00000000000E+00 0.  1.
         15    1    5    5    0    0  0.66592623671E+03 -0.27537360572E+03  0.19558993665E+03  0.74669066990E+03  0.17770000000E+01 0.  1.
        -15    1    5    5    0    0  0.50031518949E+02 -0.35364684457E+02  0.42095432652E+02  0.74357225434E+02  0.17770000000E+01 0. -1.
          3    1    6    6  503    0  0.26556438746E+02  0.10658628381E+02  0.19117670637E+02  0.34414184989E+02  0.00000000000E+00 0. -1.
         -3    1    6    6    0  503 -0.32656092132E+02  0.61682377238E+02  0.19158816564E+03  0.20390478472E+03  0.00000000000E+00 0.  1.
<mgrwt>
<rscale>  0 0.81695878E+03</rscale>
<asrwt>0</asrwt>
<pdfrwt beam="1">  1        2 0.67200950E-01 0.81695878E+03</pdfrwt>
<pdfrwt beam="2">  1       -2 0.28251727E+00 0.81695878E+03</pdfrwt>
<totfact> 0.30042327E+00</totfact>
</mgrwt>
</event>
<event>
12    1  0.7781383E-008  0.7717092E+03  0.7818608E-02  0.9601894E-01
          1   -1    0    0  501    0  0.00000000000E+00  0.00000000000E+00  0.15659012765E+04  0.15659012765E+04  0.00000000000E+00 0. -1.
         -1   -1    0    0    0  501 -0.00000000000E+00 -0.00000000000E+00 -0.39653488388E+03  0.39653488388E+03  0.00000000000E+00 0.  1.
         23    2    1    2    0    0 -0.55149221743E+03  0.35918066715E+03  0.66059595164E+03  0.93690453685E+03  0.90822256764E+02 0.  0.
    5000000    2    1    2    0    0  0.55149221743E+03 -0.35918066715E+03  0.50877044097E+03  0.10255316235E+04  0.59976106217E+03 0.  0.
         23    2    4    4    0    0 -0.10529714412E+03 -0.12452883415E+03  0.90688549130E+02  0.20729709630E+03  0.90292602673E+02 0.  0.
         23    2    4    4    0    0  0.65678936154E+03 -0.23465183300E+03  0.41808189184E+03  0.81823452721E+03  0.91002884969E+02 0.  0.
          2    1    3    3  502    0 -0.34553498688E+03  0.18419987938E+03  0.34996191431E+03  0.52516413072E+03  0.00000000000E+00 0. -1.
         -2    1    3    3    0  502 -0.20595723055E+03  0.17498078777E+03  0.31063403732E+03  0.41174040614E+03  0.00000000000E+00 0.  1.
         15    1    5    5    0    0 -0.88655320256E+02 -0.13697729573E+03  0.68870080812E+02  0.17711236861E+03  0.17770000000E+01 0.  1.
        -15    1    5    5    0    0 -0.16641823862E+02  0.12448461577E+02  0.21818468317E+02  0.30184727692E+02  0.17770000000E+01 0. -1.
          2    1    6    6  503    0  0.31056405814E+03 -0.10412614555E+03  0.24883041107E+03  0.41135004785E+03  0.00000000000E+00 0. -1.
         -2    1    6    6    0  503  0.34622530340E+03 -0.13052568745E+03  0.16925148077E+03  0.40688447936E+03  0.00000000000E+00 0.  1.
<mgrwt>
<rscale>  0 0.77170918E+03</rscale>
<asrwt>0</asrwt>
<pdfrwt beam="1">  1        1 0.24090789E+00 0.77170918E+03</pdfrwt>
<pdfrwt beam="2">  1       -1 0.61005368E-01 0.77170918E+03</pdfrwt>
<totfact> 0.16588316E+01</totfact>
</mgrwt>
</event>
<event>
12    1  0.7781383E-008  0.5611085E+03  0.7818608E-02  0.9989550E-01
         -2   -1    0    0    0  501 -0.00000000000E+00  0.00000000000E+00  0.20466797931E+04  0.20466797931E+04  0.00000000000E+00 0.  1.
          2   -1    0    0  501    0  0.00000000000E+00 -0.00000000000E+00 -0.25397095599E+03  0.25397095599E+03  0.00000000000E+00 0. -1.
         23    2    1    2    0    0 -0.40674695740E+03 -0.32687506344E+03  0.11908067248E+04  0.13033935880E+04  0.92324400413E+02 0.  0.
    5000000    2    1    2    0    0  0.40674695740E+03  0.32687506344E+03  0.60190211230E+03  0.99725716110E+03  0.59995441337E+03 0.  0.
         23    2    4    4    0    0  0.40632112629E+03  0.19614917127E+03  0.67724848632E+03  0.81885457254E+03  0.91027159081E+02 0.  0.
         23    2    4    4    0    0  0.42583111335E+00  0.13072589217E+03 -0.75346374022E+02  0.17840258856E+03  0.95189113402E+02 0.  0.
          2    1    3    3  502    0 -0.17903104093E+03 -0.20200136201E+03  0.62849194136E+03  0.68400203524E+03  0.00000000000E+00 0. -1.
         -2    1    3    3    0  502 -0.22771591647E+03 -0.12487370143E+03  0.56231478343E+03  0.61939155272E+03  0.00000000000E+00 0.  1.
         15    1    5    5    0    0  0.40440775913E+03  0.18124430534E+03  0.66611921931E+03  0.80007068808E+03  0.17770000000E+01 0.  1.
        -15    1    5    5    0    0  0.19133671566E+01  0.14904865928E+02  0.11129267013E+02  0.18783884462E+02  0.17770000000E+01 0. -1.
          3    1    6    6  503    0  0.14783788366E+02  0.44909723238E+02 -0.78160295381E+02  0.91348100219E+02  0.00000000000E+00 0.  1.
         -3    1    6    6    0  503 -0.14357957252E+02  0.85816168929E+02  0.28139213587E+01  0.87054488336E+02  0.00000000000E+00 0. -1.
<mgrwt>
<rscale>  0 0.56110852E+03</rscale>
<asrwt>0</asrwt>
<pdfrwt beam="1">  1        2 0.39072456E-01 0.56110852E+03</pdfrwt>
<pdfrwt beam="2">  1       -2 0.31487380E+00 0.56110852E+03</pdfrwt>
<totfact> 0.36590703E+00</totfact>
</mgrwt>
</event>
<event>
12    1  0.7781383E-008  0.4559448E+03  0.7818608E-02  0.1025964E+00
         -1   -1    0    0    0  501 -0.00000000000E+00  0.00000000000E+00  0.27241704489E+03  0.27241704489E+03  0.00000000000E+00 0.  1.
          1   -1    0    0  501    0  0.00000000000E+00 -0.00000000000E+00 -0.13433828129E+04  0.13433828129E+04  0.00000000000E+00 0. -1.
         23    2    1    2    0    0 -0.21267337585E+03 -0.33268465262E+03 -0.11773701384E+03  0.42183108148E+03  0.90390342386E+02 0.  0.
    5000000    2    1    2    0    0  0.21267337585E+03  0.33268465262E+03 -0.95322875422E+03  0.11939687763E+04  0.60083886205E+03 0.  0.
         23    2    4    4    0    0  0.15292896384E+03 -0.38143464253E+01 -0.54301384539E+01  0.18200952349E+03  0.98469096752E+02 0.  0.
         23    2    4    4    0    0  0.59744412008E+02  0.33649899904E+03 -0.94779861576E+03  0.10119592529E+04  0.94542806652E+02 0.  0.
          4    1    3    3  502    0 -0.76897491834E+02 -0.64040837386E+02 -0.55592571137E+02  0.11447701546E+03  0.00000000000E+00 0. -1.
         -4    1    3    3    0  502 -0.13577588402E+03 -0.26864381523E+03 -0.62144442700E+02  0.30735406602E+03  0.00000000000E+00 0.  1.
         15    1    5    5    0    0  0.17892563145E+02  0.23111064506E+02  0.27772085642E+02  0.40357299072E+02  0.17770000000E+01 0. -1.
        -15    1    5    5    0    0  0.13503640070E+03 -0.26925410932E+02 -0.33202224095E+02  0.14165222441E+03  0.17770000000E+01 0.  1.
          1    1    6    6  503    0  0.20270016323E+02  0.21761947955E+03 -0.47538360649E+03  0.52321953782E+03  0.00000000000E+00 0. -1.
         -1    1    6    6    0  503  0.39474395685E+02  0.11887951949E+03 -0.47241500928E+03  0.48873971504E+03  0.00000000000E+00 0.  1.
<mgrwt>
<rscale>  0 0.45594476E+03</rscale>
<asrwt>0</asrwt>
<pdfrwt beam="1">  1        1 0.20667428E+00 0.45594476E+03</pdfrwt>
<pdfrwt beam="2">  1       -1 0.41910315E-01 0.45594476E+03</pdfrwt>
<totfact> 0.50331162E+01</totfact>
</mgrwt>
</event>
<event>
12    1  0.7781383E-008  0.4574615E+03  0.7818608E-02  0.1025520E+00
         -2   -1    0    0    0  501 -0.00000000000E+00  0.00000000000E+00  0.26327305620E+03  0.26327305620E+03  0.00000000000E+00 0.  1.
          2   -1    0    0  501    0  0.00000000000E+00 -0.00000000000E+00 -0.14227416952E+04  0.14227416952E+04  0.00000000000E+00 0. -1.
         23    2    1    2    0    0  0.38367348889E+03  0.23561878757E+03 -0.58911371265E+03  0.74368332959E+03  0.57344303598E+02 0.  0.
    5000000    2    1    2    0    0 -0.38367348889E+03 -0.23561878757E+03 -0.57035492634E+03  0.94233142179E+03  0.59996850531E+03 0.  0.
         23    2    4    4    0    0 -0.18590393213E+03 -0.73746795930E+02 -0.62699753067E+03  0.66462677266E+03  0.92757649730E+02 0.  0.
         23    2    4    4    0    0 -0.19776955676E+03 -0.16187199164E+03  0.56642604325E+02  0.27770464913E+03  0.92715415468E+02 0.  0.
          4    1    3    3  502    0  0.85572231346E+02  0.75915415118E+02 -0.17424881033E+03  0.20844280974E+03  0.00000000000E+00 0. -1.
         -4    1    3    3    0  502  0.29810125754E+03  0.15970337245E+03 -0.41486490232E+03  0.53524051986E+03  0.00000000000E+00 0.  1.
         15    1    5    5    0    0 -0.40439581196E+02 -0.27689754922E+00 -0.46335217621E+02  0.61526795143E+02  0.17770000000E+01 0. -1.
        -15    1    5    5    0    0 -0.14546435093E+03 -0.73469898381E+02 -0.58066231305E+03  0.60309997752E+03  0.17770000000E+01 0.  1.
          1    1    6    6  503    0 -0.69284293904E+02 -0.83042148811E+02  0.65959797998E+02  0.12667678088E+03  0.00000000000E+00 0.  1.
         -1    1    6    6    0  503 -0.12848526286E+03 -0.78829842824E+02 -0.93171936734E+01  0.15102786825E+03  0.00000000000E+00 0. -1.
<mgrwt>
<rscale>  0 0.45746145E+03</rscale>
<asrwt>0</asrwt>
<pdfrwt beam="1">  1        2 0.21888334E+00 0.45746145E+03</pdfrwt>
<pdfrwt beam="2">  1       -2 0.40503547E-01 0.45746145E+03</pdfrwt>
<totfact> 0.85394359E+01</totfact>
</mgrwt>
</event>
<event>
12    1  0.7781383E-008  0.2253579E+04  0.7818608E-02  0.8496452E-01
         -2   -1    0    0    0  501 -0.00000000000E+00  0.00000000000E+00  0.23269716253E+04  0.23269716253E+04  0.00000000000E+00 0.  1.
          2   -1    0    0  501    0  0.00000000000E+00 -0.00000000000E+00 -0.22170314042E+04  0.22170314042E+04  0.00000000000E+00 0. -1.
         23    2    1    2    0    0 -0.22145111606E+04  0.24185613506E+03 -0.63070558875E+02  0.22304614814E+04  0.91795719425E+02 0.  0.
    5000000    2    1    2    0    0  0.22145111606E+04 -0.24185613506E+03  0.17301077994E+03  0.23135415481E+04  0.59998974520E+03 0.  0.
         23    2    4    4    0    0  0.10706940255E+04 -0.35043192110E+03  0.25277733401E+03  0.11581046270E+04  0.90120579400E+02 0.  0.
         23    2    4    4    0    0  0.11438171351E+04  0.10857578604E+03 -0.79766554076E+02  0.11554369211E+04  0.92549639307E+02 0.  0.
          2    1    3    3  502    0 -0.52974321335E+03  0.69764034055E+02 -0.52542049053E+02  0.53689436527E+03  0.00000000000E+00 0. -1.
         -2    1    3    3    0  502 -0.16847679472E+04  0.17209210100E+03 -0.10528509822E+02  0.16935671161E+04  0.00000000000E+00 0.  1.
         15    1    5    5    0    0  0.73539551102E+03 -0.28416769684E+03  0.17539811244E+03  0.80766669681E+03  0.17770000000E+01 0. -1.
        -15    1    5    5    0    0  0.33529851448E+03 -0.66264224252E+02  0.77379221568E+02  0.35043793015E+03  0.17770000000E+01 0.  1.
          4    1    6    6  503    0  0.63935639789E+03  0.50887231365E+02 -0.89514776125E+02  0.64759478764E+03  0.00000000000E+00 0. -1.
         -4    1    6    6    0  503  0.50446073721E+03  0.57688554675E+02  0.97482220491E+01  0.50784213350E+03  0.00000000000E+00 0.  1.
<mgrwt>
<rscale>  0 0.22535791E+04</rscale>
<asrwt>0</asrwt>
<pdfrwt beam="1">  1        2 0.34108175E+00 0.22535791E+04</pdfrwt>
<pdfrwt beam="2">  1       -2 0.35799564E+00 0.22535791E+04</pdfrwt>
<totfact> 0.60501593E-02</totfact>
</mgrwt>
</event>
<event>
12    1  0.7781383E-008  0.8177354E+03  0.7818608E-02  0.9534695E-01
          2   -1    0    0  501    0  0.00000000000E+00  0.00000000000E+00  0.32824641463E+04  0.32824641463E+04  0.00000000000E+00 0. -1.
         -2   -1    0    0    0  501 -0.00000000000E+00 -0.00000000000E+00 -0.24530432062E+03  0.24530432062E+03  0.00000000000E+00 0.  1.
         23    2    1    2    0    0  0.63054995679E+03 -0.38855376388E+03  0.78973787792E+03  0.10865511740E+04  0.91325037793E+02 0.  0.
    5000000    2    1    2    0    0 -0.63054995679E+03  0.38855376388E+03  0.22474219478E+04  0.24412172929E+04  0.60005765093E+03 0.  0.
         23    2    4    4    0    0 -0.23740163089E+03 -0.88941659696E+02  0.34449428957E+03  0.43821330277E+03  0.95312276245E+02 0.  0.
         23    2    4    4    0    0 -0.39314832590E+03  0.47749542357E+03  0.19029276582E+04  0.20030039901E+04  0.91235006775E+02 0.  0.
          3    1    3    3  502    0  0.24391332891E+03 -0.99774280990E+02  0.26845987847E+03  0.37619054416E+03  0.00000000000E+00 0.  1.
         -3    1    3    3    0  502  0.38663662788E+03 -0.28877948289E+03  0.52127799945E+03  0.71036062987E+03  0.00000000000E+00 0. -1.
         15    1    5    5    0    0  0.46856993806E+01  0.85037550757E+01  0.12721730039E+02  0.16101856205E+02  0.17770000000E+01 0.  1.
        -15    1    5    5    0    0 -0.24208733027E+03 -0.97445414772E+02  0.33177255953E+03  0.42211144657E+03  0.17770000000E+01 0. -1.
          4    1    6    6  503    0 -0.33025763447E+03  0.40189364520E+03  0.16944153562E+04  0.17724649521E+04  0.00000000000E+00 0. -1.
         -4    1    6    6    0  503 -0.62890691432E+02  0.75601778379E+02  0.20851230200E+03  0.23053903802E+03  0.00000000000E+00 0.  1.
<mgrwt>
<rscale>  0 0.81773543E+03</rscale>
<asrwt>0</asrwt>
<pdfrwt beam="1">  1        2 0.50499445E+00 0.81773543E+03</pdfrwt>
<pdfrwt beam="2">  1       -2 0.37739128E-01 0.81773543E+03</pdfrwt>
<totfact> 0.80370730E+00</totfact>
</mgrwt>
</event>
<event>
12    1  0.7781383E-008  0.6614366E+03  0.7818608E-02  0.9785553E-01
          2   -1    0    0  501    0  0.00000000000E+00  0.00000000000E+00  0.19022378417E+04  0.19022378417E+04  0.00000000000E+00 0. -1.
         -2   -1    0    0    0  501 -0.00000000000E+00 -0.00000000000E+00 -0.27830701421E+03  0.27830701421E+03  0.00000000000E+00 0.  1.
         23    2    1    2    0    0  0.25329576814E+03  0.54368189310E+03  0.70108430007E+03  0.92739282895E+03  0.93752420452E+02 0.  0.
    5000000    2    1    2    0    0 -0.25329576814E+03 -0.54368189310E+03  0.92284652738E+03  0.12531520269E+04  0.59916236734E+03 0.  0.
         23    2    4    4    0    0 -0.28783309655E+03 -0.54619915133E+03  0.95790423055E+03  0.11433640986E+04  0.92301368931E+02 0.  0.
         23    2    4    4    0    0  0.34537328404E+02  0.25172582267E+01 -0.35057703175E+02  0.10978792831E+03  0.98108017043E+02 0.  0.
          1    1    3    3  502    0  0.23872426925E+02  0.22136582061E+02  0.15821712812E+02  0.36197342844E+02  0.00000000000E+00 0. -1.
         -1    1    3    3    0  502  0.22942334122E+03  0.52154531104E+03  0.68526258726E+03  0.89119548611E+03  0.00000000000E+00 0.  1.
         15    1    5    5    0    0 -0.14126191278E+03 -0.26589929149E+03  0.55182623487E+03  0.62862764212E+03  0.17770000000E+01 0. -1.
        -15    1    5    5    0    0 -0.14657118377E+03 -0.28029985984E+03  0.40607799568E+03  0.51473645649E+03  0.17770000000E+01 0.  1.
          3    1    6    6  503    0  0.44083436113E+02  0.42972120434E+02 -0.27984168964E+02  0.67624449623E+02  0.00000000000E+00 0. -1.
         -3    1    6    6    0  503 -0.95461077088E+01 -0.40454862208E+02 -0.70735342108E+01  0.42163478685E+02  0.00000000000E+00 0.  1.
<mgrwt>
<rscale>  0 0.66143663E+03</rscale>
<asrwt>0</asrwt>
<pdfrwt beam="1">  1        2 0.29265197E+00 0.66143663E+03</pdfrwt>
<pdfrwt beam="2">  1       -2 0.42816465E-01 0.66143663E+03</pdfrwt>
<totfact> 0.40768625E+01</totfact>
</mgrwt>
</event>
<event>
12    1  0.7781383E-008  0.5195952E+03  0.7818608E-02  0.1008787E+00
          2   -1    0    0  501    0  0.00000000000E+00  0.00000000000E+00  0.10980267864E+04  0.10980267864E+04  0.00000000000E+00 0. -1.
         -2   -1    0    0    0  501 -0.00000000000E+00 -0.00000000000E+00 -0.48261913225E+03  0.48261913225E+03  0.00000000000E+00 0.  1.
         23    2    1    2    0    0 -0.32216861749E+03  0.27810046326E+03 -0.20269274477E+03  0.48027346085E+03  0.91900830511E+02 0.  0.
    5000000    2    1    2    0    0  0.32216861749E+03 -0.27810046326E+03  0.81810039894E+03  0.11003724578E+04  0.60033223922E+03 0.  0.
         23    2    4    4    0    0  0.30092678050E+03  0.17654073363E+02  0.12113914130E+03  0.33736652833E+03  0.90955425078E+02 0.  0.
         23    2    4    4    0    0  0.21241836992E+02 -0.29575453662E+03  0.69696125763E+03  0.76300592950E+03  0.92201367872E+02 0.  0.
          4    1    3    3  502    0 -0.27385753210E+03  0.22254818640E+03 -0.12795179189E+03  0.37536289668E+03  0.00000000000E+00 0.  1.
         -4    1    3    3    0  502 -0.48311085398E+02  0.55552276862E+02 -0.74740952881E+02  0.10491056417E+03  0.00000000000E+00 0. -1.
         15    1    5    5    0    0  0.26555668424E+03  0.24006403385E+02  0.13492162466E+03  0.29883718389E+03  0.17770000000E+01 0. -1.
        -15    1    5    5    0    0  0.35370096261E+02 -0.63523300224E+01 -0.13782483353E+02  0.38529344435E+02  0.17770000000E+01 0.  1.
          4    1    6    6  503    0  0.41348272523E+01  0.62935052971E+01  0.11436602318E+02  0.13693095994E+02  0.00000000000E+00 0. -1.
         -4    1    6    6    0  503  0.17107009740E+02 -0.30204804192E+03  0.68552465532E+03  0.74931283351E+03  0.00000000000E+00 0.  1.
<mgrwt>
<rscale>  0 0.51959522E+03</rscale>
<asrwt>0</asrwt>
<pdfrwt beam="1">  1        2 0.16892720E+00 0.51959522E+03</pdfrwt>
<pdfrwt beam="2">  1       -2 0.74249097E-01 0.51959522E+03</pdfrwt>
<totfact> 0.37262787E+01</totfact>
</mgrwt>
</event>
<event>
12    1  0.7781383E-008  0.8682235E+03  0.7818608E-02  0.9466199E-01
         -1   -1    0    0    0  501 -0.00000000000E+00  0.00000000000E+00  0.50390402072E+03  0.50390402072E+03  0.00000000000E+00 0. -1.
          1   -1    0    0  501    0  0.00000000000E+00 -0.00000000000E+00 -0.15630683148E+04  0.15630683148E+04  0.00000000000E+00 0.  1.
         23    2    1    2    0    0 -0.10909389154E+03 -0.77200139600E+03 -0.38833811950E+03  0.87621187942E+03  0.95147937396E+02 0.  0.
    5000000    2    1    2    0    0  0.10909389154E+03  0.77200139600E+03 -0.67082617458E+03  0.11907604561E+04  0.60001256211E+03 0.  0.
         23    2    4    4    0    0  0.10480415053E+03  0.84561386641E+03 -0.52854965145E+03  0.10067878829E+04  0.90611180436E+02 0.  0.
         23    2    4    4    0    0  0.42897410109E+01 -0.73612470416E+02 -0.14227652313E+03  0.18397257321E+03  0.90366481523E+02 0.  0.
          2    1    3    3  502    0 -0.40589774485E+02 -0.35481194285E+03 -0.12623222668E+03  0.37877911721E+03  0.00000000000E+00 0. -1.
         -2    1    3    3    0  502 -0.68504117053E+02 -0.41718945315E+03 -0.26210589282E+03  0.49743276221E+03  0.00000000000E+00 0.  1.
         15    1    5    5    0    0  0.72981869519E+02  0.50459271636E+03 -0.36633373799E+03  0.62780867149E+03  0.17770000000E+01 0. -1.
        -15    1    5    5    0    0  0.31822281009E+02  0.34102115005E+03 -0.16221591346E+03  0.37897921138E+03  0.17770000000E+01 0.  1.
          3    1    6    6  503    0 -0.30183617578E+02 -0.99277880103E+01 -0.87743068719E+02  0.93319118369E+02  0.00000000000E+00 0. -1.
         -3    1    6    6    0  503  0.34473358589E+02 -0.63684682405E+02 -0.54533454406E+02  0.90653454843E+02  0.00000000000E+00 0.  1.
<mgrwt>
<rscale>  0 0.86822350E+03</rscale>
<asrwt>0</asrwt>
<pdfrwt beam="1">  1        1 0.24047205E+00 0.86822350E+03</pdfrwt>
<pdfrwt beam="2">  1       -1 0.77523696E-01 0.86822350E+03</pdfrwt>
<totfact> 0.10086367E+01</totfact>
</mgrwt>
</event>
<event>
12    1  0.7781383E-008  0.7257570E+03  0.7818608E-02  0.9674171E-01
          2   -1    0    0  501    0  0.00000000000E+00  0.00000000000E+00  0.38048357973E+04  0.38048357973E+04  0.00000000000E+00 0. -1.
         -2   -1    0    0    0  501 -0.00000000000E+00 -0.00000000000E+00 -0.18436778065E+03  0.18436778065E+03  0.00000000000E+00 0.  1.
         23    2    1    2    0    0 -0.36908502537E+03 -0.58791839264E+03  0.20967628953E+04  0.22106049762E+04  0.92129959549E+02 0.  0.
    5000000    2    1    2    0    0  0.36908502537E+03  0.58791839264E+03  0.15237051213E+04  0.17785986017E+04  0.59988657001E+03 0.  0.
         23    2    4    4    0    0 -0.30578925568E+01  0.27521609698E+02 -0.14377618533E+02  0.97343892867E+02  0.92208068283E+02 0.  0.
         23    2    4    4    0    0  0.37214291793E+03  0.56039678294E+03  0.15380827399E+04  0.16812547088E+04  0.91564052137E+02 0.  0.
          1    1    3    3  502    0 -0.23833390069E+03 -0.37071985361E+03  0.11869216850E+04  0.12661040022E+04  0.00000000000E+00 0. -1.
         -1    1    3    3    0  502 -0.13075112469E+03 -0.21719853903E+03  0.90984121033E+03  0.94450097405E+03  0.00000000000E+00 0.  1.
         15    1    5    5    0    0  0.15808457543E+01  0.53471248842E+02  0.17154465472E+02  0.56205933322E+02  0.17770000000E+01 0.  1.
        -15    1    5    5    0    0 -0.46387383111E+01 -0.25949639144E+02 -0.31532084005E+02  0.41137959545E+02  0.17770000000E+01 0. -1.
          4    1    6    6  503    0  0.17518154007E+03  0.19430075325E+03  0.65072020406E+03  0.70134024458E+03  0.00000000000E+00 0. -1.
         -4    1    6    6    0  503  0.19696137786E+03  0.36609602970E+03  0.88736253581E+03  0.97991446427E+03  0.00000000000E+00 0.  1.
<mgrwt>
<rscale>  0 0.72575704E+03</rscale>
<asrwt>0</asrwt>
<pdfrwt beam="1">  1        2 0.58535929E+00 0.72575704E+03</pdfrwt>
<pdfrwt beam="2">  1       -2 0.28364277E-01 0.72575704E+03</pdfrwt>
<totfact> 0.60954348E+00</totfact>
</mgrwt>
</event>
<event>
12    1  0.7781383E-008  0.9087556E+03  0.7818608E-02  0.9414702E-01
         -2   -1    0    0    0  501 -0.00000000000E+00  0.00000000000E+00  0.83681739554E+03  0.83681739554E+03  0.00000000000E+00 0. -1.
          2   -1    0    0  501    0  0.00000000000E+00 -0.00000000000E+00 -0.10909296888E+04  0.10909296888E+04  0.00000000000E+00 0.  1.
         23    2    1    2    0    0 -0.37695097774E+03 -0.72009931009E+03 -0.39505874830E+03  0.90777791232E+03  0.85757025794E+02 0.  0.
    5000000    2    1    2    0    0  0.37695097774E+03  0.72009931009E+03  0.14094645500E+03  0.10199691721E+04  0.59986344511E+03 0.  0.
         23    2    4    4    0    0 -0.14043647292E+03  0.25190607390E+03  0.87179986141E+02  0.31415149733E+03  0.88947964001E+02 0.  0.
         23    2    4    4    0    0  0.51738745066E+03  0.46819323619E+03  0.53766468858E+02  0.70581767473E+03  0.91613734139E+02 0.  0.
          2    1    3    3  502    0 -0.17448554998E+03 -0.24900039894E+03 -0.16235115184E+03  0.34467999990E+03  0.00000000000E+00 0.  1.
         -2    1    3    3    0  502 -0.20246542775E+03 -0.47109891115E+03 -0.23270759646E+03  0.56309791242E+03  0.00000000000E+00 0. -1.
         15    1    5    5    0    0 -0.19619908143E+02  0.12512640990E+03  0.37722146843E+02  0.13216534092E+03  0.17770000000E+01 0. -1.
        -15    1    5    5    0    0 -0.12081656478E+03  0.12677966400E+03  0.49457839298E+02  0.18198615641E+03  0.17770000000E+01 0.  1.
          4    1    6    6  503    0  0.35667667643E+03  0.34685681850E+03  0.75728390531E+02  0.50325211691E+03  0.00000000000E+00 0. -1.
         -4    1    6    6    0  503  0.16071077423E+03  0.12133641769E+03 -0.21961921672E+02  0.20256555782E+03  0.00000000000E+00 0.  1.
<mgrwt>
<rscale>  0 0.90875564E+03</rscale>
<asrwt>0</asrwt>
<pdfrwt beam="1">  1        2 0.16783534E+00 0.90875564E+03</pdfrwt>
<pdfrwt beam="2">  1       -2 0.12874114E+00 0.90875564E+03</pdfrwt>
<totfact> 0.98312790E+00</totfact>
</mgrwt>
</event>
<event>
12    1  0.7781383E-008  0.1844387E+04  0.7818608E-02  0.8683045E-01
          1   -1    0    0  501    0  0.00000000000E+00  0.00000000000E+00  0.21654486805E+04  0.21654486805E+04  0.00000000000E+00 0. -1.
         -1   -1    0    0    0  501 -0.00000000000E+00 -0.00000000000E+00 -0.21790228685E+04  0.21790228685E+04  0.00000000000E+00 0.  1.
         23    2    1    2    0    0  0.76528142187E+03 -0.16364754139E+04  0.11213605350E+04  0.21282260901E+04  0.90495338500E+02 0.  0.
    5000000    2    1    2    0    0 -0.76528142187E+03  0.16364754139E+04 -0.11349347230E+04  0.22162454589E+04  0.59996639350E+03 0.  0.
         23    2    4    4    0    0 -0.63711925742E+03  0.16209330550E+04 -0.10234529285E+04  0.20221331389E+04  0.90673137901E+02 0.  0.
         23    2    4    4    0    0 -0.12816216445E+03  0.15542358956E+02 -0.11148179457E+03  0.19411231992E+03  0.92651480867E+02 0.  0.
          3    1    3    3  502    0  0.18932436517E+02 -0.85937034565E+02  0.56985503842E+02  0.10483777330E+03  0.00000000000E+00 0. -1.
         -3    1    3    3    0  502  0.74634898535E+03 -0.15505383793E+04  0.10643750311E+04  0.20233883168E+04  0.00000000000E+00 0.  1.
         15    1    5    5    0    0 -0.36623874693E+03  0.99165207142E+03 -0.57618356515E+03  0.12039498781E+04  0.17770000000E+01 0. -1.
        -15    1    5    5    0    0 -0.27088051049E+03  0.62928098354E+03 -0.44726936333E+03  0.81818326083E+03  0.17770000000E+01 0.  1.
          3    1    6    6  503    0 -0.84697336312E+02  0.32986663061E+02 -0.11564807720E+03  0.14709261191E+03  0.00000000000E+00 0. -1.
         -3    1    6    6    0  503 -0.43464828137E+02 -0.17444304106E+02  0.41662826300E+01  0.47019708014E+02  0.00000000000E+00 0.  1.
<mgrwt>
<rscale>  0 0.18443867E+04</rscale>
<asrwt>0</asrwt>
<pdfrwt beam="1">  1        1 0.33314595E+00 0.18443867E+04</pdfrwt>
<pdfrwt beam="2">  1       -1 0.33523429E+00 0.18443867E+04</pdfrwt>
<totfact> 0.40423288E-02</totfact>
</mgrwt>
</event>
<event>
12    1  0.7781383E-008  0.6532513E+03  0.7818608E-02  0.9800697E-01
          4   -1    0    0  501    0  0.00000000000E+00  0.00000000000E+00  0.66024590870E+03  0.66024590870E+03  0.00000000000E+00 0. -1.
         -4   -1    0    0    0  501 -0.00000000000E+00 -0.00000000000E+00 -0.84380010428E+03  0.84380010428E+03  0.00000000000E+00 0.  1.
         23    2    1    2    0    0  0.51235548060E+03 -0.17921530433E+03  0.22857658433E+03  0.59601564416E+03  0.91439211356E+02 0.  0.
    5000000    2    1    2    0    0 -0.51235548060E+03  0.17921530433E+03 -0.41213077991E+03  0.90803036882E+03  0.60003425497E+03 0.  0.
         23    2    4    4    0    0 -0.20766978348E+03 -0.17427435784E+03 -0.31067256859E+03  0.42224992881E+03  0.90990476056E+02 0.  0.
         23    2    4    4    0    0 -0.30468569712E+03  0.35348966217E+03 -0.10145821132E+03  0.48578044001E+03  0.88885049145E+02 0.  0.
          2    1    3    3  502    0  0.28173599014E+03 -0.14529089854E+03  0.12121636056E+03  0.33937887295E+03  0.00000000000E+00 0. -1.
         -2    1    3    3    0  502  0.23061949046E+03 -0.33924405788E+02  0.10736022377E+03  0.25663677121E+03  0.00000000000E+00 0.  1.
         15    1    5    5    0    0 -0.69812610139E+01 -0.39631412058E+02 -0.22460237847E+02  0.46119484388E+02  0.17770000000E+01 0. -1.
        -15    1    5    5    0    0 -0.20068852247E+03 -0.13464294578E+03 -0.28821233074E+03  0.37613044442E+03  0.17770000000E+01 0.  1.
          1    1    6    6  503    0 -0.10198450576E+03  0.18336624041E+03 -0.32592588473E+02  0.21233533470E+03  0.00000000000E+00 0. -1.
         -1    1    6    6    0  503 -0.20270119135E+03  0.17012342176E+03 -0.68865622848E+02  0.27344510531E+03  0.00000000000E+00 0.  1.
<mgrwt>
<rscale>  0 0.65325127E+03</rscale>
<asrwt>0</asrwt>
<pdfrwt beam="1">  1        4 0.10157629E+00 0.65325127E+03</pdfrwt>
<pdfrwt beam="2">  1       -4 0.12981540E+00 0.65325127E+03</pdfrwt>
<totfact> 0.67510105E-01</totfact>
</mgrwt>
</event>
<event>
12    1  0.7781383E-008  0.1402573E+04  0.7818608E-02  0.8951958E-01
          2   -1    0    0  501    0  0.00000000000E+00  0.00000000000E+00  0.24758123315E+04  0.24758123315E+04  0.00000000000E+00 0. -1.
         -2   -1    0    0    0  501 -0.00000000000E+00 -0.00000000000E+00 -0.83474908161E+03  0.83474908161E+03  0.00000000000E+00 0.  1.
         23    2    1    2    0    0 -0.12605066553E+04  0.54497986562E+03  0.80621217397E+03  0.15951020690E+04  0.92154538565E+02 0.  0.
    5000000    2    1    2    0    0  0.12605066553E+04 -0.54497986562E+03  0.83485107592E+03  0.17154593441E+04  0.59995363195E+03 0.  0.
         23    2    4    4    0    0  0.56051789976E+03 -0.44512658710E+03  0.66821061233E+03  0.98359733437E+03  0.92953210012E+02 0.  0.
         23    2    4    4    0    0  0.69998875553E+03 -0.99853278522E+02  0.16664046360E+03  0.73186200978E+03  0.88870817222E+02 0.  0.
          4    1    3    3  502    0 -0.53610537653E+03  0.24842513055E+03  0.39684666542E+03  0.71176632127E+03  0.00000000000E+00 0. -1.
         -4    1    3    3    0  502 -0.72440127876E+03  0.29655473507E+03  0.40936550854E+03  0.88333574769E+03  0.00000000000E+00 0.  1.
         15    1    5    5    0    0  0.32917413952E+03 -0.20592854881E+03  0.38159399535E+03  0.54440730741E+03  0.17770000000E+01 0. -1.
        -15    1    5    5    0    0  0.23134376025E+03 -0.23919803829E+03  0.28661661698E+03  0.43919002696E+03  0.17770000000E+01 0.  1.
          1    1    6    6  503    0  0.54344553306E+03 -0.48008197414E+02  0.10356164579E+03  0.55530428497E+03  0.00000000000E+00 0. -1.
         -1    1    6    6    0  503  0.15654322246E+03 -0.51845081108E+02  0.63078817806E+02  0.17655772481E+03  0.00000000000E+00 0.  1.
<mgrwt>
<rscale>  0 0.14025733E+04</rscale>
<asrwt>0</asrwt>
<pdfrwt beam="1">  1        2 0.38089420E+00 0.14025733E+04</pdfrwt>
<pdfrwt beam="2">  1       -2 0.12842294E+00 0.14025733E+04</pdfrwt>
<totfact> 0.15419621E+00</totfact>
</mgrwt>
</event>
<event>
12    1  0.7781383E-008  0.2303907E+04  0.7818608E-02  0.8476382E-01
         -1   -1    0    0    0  501 -0.00000000000E+00  0.00000000000E+00  0.23138741556E+04  0.23138741556E+04  0.00000000000E+00 0.  1.
          1   -1    0    0  501    0  0.00000000000E+00 -0.00000000000E+00 -0.25928681813E+04  0.25928681813E+04  0.00000000000E+00 0. -1.
         23    2    1    2    0    0  0.20759154105E+04 -0.93316008824E+03  0.66172202510E+03  0.23718981750E+04  0.88387624935E+02 0.  0.
    5000000    2    1    2    0    0 -0.20759154105E+04  0.93316008824E+03 -0.94071605080E+03  0.25348441619E+04  0.60022970189E+03 0.  0.
         23    2    4    4    0    0 -0.95764858331E+02  0.17408486056E+03 -0.13955087441E+02  0.21869482779E+03  0.90311884423E+02 0.  0.
         23    2    4    4    0    0 -0.19801505522E+04  0.75907522768E+03 -0.92676096336E+03  0.23161493341E+04  0.92035015936E+02 0.  0.
          1    1    3    3  502    0  0.17651433099E+04 -0.81501172001E+03  0.53961866008E+03  0.20177123944E+04  0.00000000000E+00 0. -1.
         -1    1    3    3    0  502  0.31077210055E+03 -0.11814836823E+03  0.12210336502E+03  0.35418578055E+03  0.00000000000E+00 0.  1.
         15    1    5    5    0    0 -0.96217674290E+02  0.11113724412E+03  0.17942782646E+02  0.14810276518E+03  0.17770000000E+01 0.  1.
        -15    1    5    5    0    0  0.45281595920E+00  0.62947616443E+02 -0.31897870086E+02  0.70592062608E+02  0.17770000000E+01 0. -1.
          3    1    6    6  503    0 -0.55500773005E+03  0.19111225103E+03 -0.29591033782E+03  0.65735865473E+03  0.00000000000E+00 0. -1.
         -3    1    6    6    0  503 -0.14251428221E+04  0.56796297665E+03 -0.63085062554E+03  0.16587906794E+04  0.00000000000E+00 0.  1.
<mgrwt>
<rscale>  0 0.23039072E+04</rscale>
<asrwt>0</asrwt>
<pdfrwt beam="1">  1        1 0.39890280E+00 0.23039072E+04</pdfrwt>
<pdfrwt beam="2">  1       -1 0.35598064E+00 0.23039072E+04</pdfrwt>
<totfact> 0.14181573E-02</totfact>
</mgrwt>
</event>
<event>
12    1  0.7781383E-008  0.7015244E+03  0.7818608E-02  0.9714629E-01
          2   -1    0    0  501    0  0.00000000000E+00  0.00000000000E+00  0.10113619763E+04  0.10113619763E+04  0.00000000000E+00 0.  1.
         -2   -1    0    0    0  501 -0.00000000000E+00 -0.00000000000E+00 -0.94639082509E+03  0.94639082509E+03  0.00000000000E+00 0. -1.
         23    2    1    2    0    0  0.62354618764E+03 -0.23634992088E+03 -0.55080337913E+03  0.86965275386E+03  0.90776740494E+02 0.  0.
    5000000    2    1    2    0    0 -0.62354618764E+03  0.23634992088E+03  0.61577453029E+03  0.10881000475E+04  0.60009358266E+03 0.  0.
         23    2    4    4    0    0 -0.33466524991E+03 -0.25696754974E+02 -0.71021229058E+01  0.34782429427E+03  0.90940347604E+02 0.  0.
         23    2    4    4    0    0 -0.28888093774E+03  0.26204667585E+03  0.62287665319E+03  0.74027575321E+03  0.88950599714E+02 0.  0.
          4    1    3    3  502    0  0.15349886620E+03 -0.76543800101E+02 -0.18970605747E+03  0.25575230889E+03  0.00000000000E+00 0. -1.
         -4    1    3    3    0  502  0.47004732144E+03 -0.15980612078E+03 -0.36109732165E+03  0.61390044497E+03  0.00000000000E+00 0.  1.
         15    1    5    5    0    0 -0.26338338550E+03 -0.42287893186E+02  0.24908876311E+02  0.26792290592E+03  0.17770000000E+01 0.  1.
        -15    1    5    5    0    0 -0.71281864405E+02  0.16591138212E+02 -0.32010999217E+02  0.79901388349E+02  0.17770000000E+01 0. -1.
          4    1    6    6  503    0 -0.41215769243E+01  0.22769571099E+02  0.71703231195E+02  0.75344502972E+02  0.00000000000E+00 0. -1.
         -4    1    6    6    0  503 -0.28475936081E+03  0.23927710475E+03  0.55117342200E+03  0.66493125024E+03  0.00000000000E+00 0.  1.
<mgrwt>
<rscale>  0 0.70152438E+03</rscale>
<asrwt>0</asrwt>
<pdfrwt beam="1">  1        2 0.15559415E+00 0.70152438E+03</pdfrwt>
<pdfrwt beam="2">  1       -2 0.14559859E+00 0.70152438E+03</pdfrwt>
<totfact> 0.82268939E+00</totfact>
</mgrwt>
</event>
<event>
12    1  0.7781383E-008  0.1060547E+04  0.7818608E-02  0.9244523E-01
         -1   -1    0    0    0  501 -0.00000000000E+00  0.00000000000E+00  0.52123823140E+03  0.52123823140E+03  0.00000000000E+00 0.  1.
          1   -1    0    0  501    0  0.00000000000E+00 -0.00000000000E+00 -0.22278350595E+04  0.22278350595E+04  0.00000000000E+00 0. -1.
         23    2    1    2    0    0 -0.98136687152E+03  0.14270661725E+03 -0.76337993143E+03  0.12547475919E+04  0.90534438349E+02 0.  0.
    5000000    2    1    2    0    0  0.98136687152E+03 -0.14270661725E+03 -0.94321689668E+03  0.14943256990E+04  0.59992088268E+03 0.  0.
         23    2    4    4    0    0  0.10181281221E+04 -0.15459756504E+03 -0.94123929636E+03  0.13982795251E+04  0.93642603626E+02 0.  0.
         23    2    4    4    0    0 -0.36761250560E+02  0.11890947792E+02 -0.19776003260E+01  0.96046173936E+02  0.87910024699E+02 0.  0.
          3    1    3    3  502    0 -0.26578225852E+03  0.17844252788E+01 -0.22489093623E+03  0.34816565930E+03  0.00000000000E+00 0. -1.
         -3    1    3    3    0  502 -0.71558461299E+03  0.14092219197E+03 -0.53848899520E+03  0.90658193259E+03  0.00000000000E+00 0.  1.
         15    1    5    5    0    0  0.75639242135E+03 -0.10657620815E+03 -0.64194328330E+03  0.99778871507E+03  0.17770000000E+01 0.  1.
        -15    1    5    5    0    0  0.26173570072E+03 -0.48021356894E+02 -0.29929601306E+03  0.40049081003E+03  0.17770000000E+01 0. -1.
          3    1    6    6  503    0 -0.24273679707E+02  0.50170902372E+02 -0.22518412214E+01  0.55779940482E+02  0.00000000000E+00 0. -1.
         -3    1    6    6    0  503 -0.12487570854E+02 -0.38279954580E+02  0.27424089539E+00  0.40266233454E+02  0.00000000000E+00 0.  1.
<mgrwt>
<rscale>  0 0.10605466E+04</rscale>
<asrwt>0</asrwt>
<pdfrwt beam="1">  1        1 0.34274386E+00 0.10605466E+04</pdfrwt>
<pdfrwt beam="2">  1       -1 0.80190496E-01 0.10605466E+04</pdfrwt>
<totfact> 0.32568409E+00</totfact>
</mgrwt>
</event>
<event>
12    1  0.7781383E-008  0.5299527E+03  0.7818608E-02  0.1006244E+00
         -2   -1    0    0    0  501 -0.00000000000E+00  0.00000000000E+00  0.24692900526E+03  0.24692900526E+03  0.00000000000E+00 0.  1.
          2   -1    0    0  501    0  0.00000000000E+00 -0.00000000000E+00 -0.17266253555E+04  0.17266253555E+04  0.00000000000E+00 0. -1.
         23    2    1    2    0    0 -0.40719289586E+03  0.15189803709E+03 -0.99087332411E+03  0.10858985387E+04  0.92014259233E+02 0.  0.
    5000000    2    1    2    0    0  0.40719289586E+03 -0.15189803709E+03 -0.48882302614E+03  0.88765582203E+03  0.60008819301E+03 0.  0.
         23    2    4    4    0    0  0.10597594020E+03  0.14626014918E+03  0.37451927049E+02  0.20574117367E+03  0.91125477043E+02 0.  0.
         23    2    4    4    0    0  0.30121695566E+03 -0.29815818627E+03 -0.52627495319E+03  0.68191464836E+03  0.91718606989E+02 0.  0.
          3    1    3    3  502    0 -0.10282725703E+03  0.42377761861E+02 -0.36216618159E+03  0.37885836744E+03  0.00000000000E+00 0. -1.
         -3    1    3    3    0  502 -0.30436563883E+03  0.10952027523E+03 -0.62870714252E+03  0.70704017131E+03  0.00000000000E+00 0.  1.
         15    1    5    5    0    0  0.45057011561E+02  0.12492286478E+03  0.36620110032E+01  0.13286242693E+03  0.17770000000E+01 0. -1.
        -15    1    5    5    0    0  0.60918928637E+02  0.21337284399E+02  0.33789916046E+02  0.72878746746E+02  0.17770000000E+01 0.  1.
          3    1    6    6  503    0  0.16285065366E+03 -0.20134938252E+03 -0.37146415012E+03  0.45282173541E+03  0.00000000000E+00 0. -1.
         -3    1    6    6    0  503  0.13836630200E+03 -0.96808803750E+02 -0.15481080307E+03  0.22909291294E+03  0.00000000000E+00 0.  1.
<mgrwt>
<rscale>  0 0.52995268E+03</rscale>
<asrwt>0</asrwt>
<pdfrwt beam="1">  1        2 0.26563467E+00 0.52995268E+03</pdfrwt>
<pdfrwt beam="2">  1       -2 0.37989078E-01 0.52995268E+03</pdfrwt>
<totfact> 0.65272022E+01</totfact>
</mgrwt>
</event>
<event>
12    1  0.7781383E-008  0.8107622E+03  0.7818608E-02  0.9544569E-01
          1   -1    0    0  501    0  0.00000000000E+00  0.00000000000E+00  0.13084093255E+04  0.13084093255E+04  0.00000000000E+00 0. -1.
         -1   -1    0    0    0  501 -0.00000000000E+00 -0.00000000000E+00 -0.64364709351E+03  0.64364709351E+03  0.00000000000E+00 0.  1.
         23    2    1    2    0    0 -0.79119547495E+02  0.70651658613E+03  0.72569232163E+03  0.10199618033E+04  0.90923842998E+02 0.  0.
    5000000    2    1    2    0    0  0.79119547495E+02 -0.70651658613E+03 -0.60930089654E+02  0.93209461571E+03  0.59971852359E+03 0.  0.
         23    2    4    4    0    0 -0.11044235984E+03  0.32509364803E+02 -0.70743563844E+02  0.16354164384E+03  0.92124067422E+02 0.  0.
         23    2    4    4    0    0  0.18956190734E+03 -0.73902595094E+03  0.98134741903E+01  0.76855297187E+03  0.92110224300E+02 0.  0.
          3    1    3    3  502    0 -0.45415990560E+02  0.35466920236E+03  0.42910038650E+03  0.55855169590E+03  0.00000000000E+00 0. -1.
         -3    1    3    3    0  502 -0.33703556935E+02  0.35184738377E+03  0.29659193514E+03  0.46141010739E+03  0.00000000000E+00 0.  1.
         15    1    5    5    0    0 -0.82676207584E+02  0.61699296630E+02 -0.67046056654E+02  0.12304669824E+03  0.17770000000E+01 0. -1.
        -15    1    5    5    0    0 -0.27766152258E+02 -0.29189931827E+02 -0.36975071902E+01  0.40494945607E+02  0.17770000000E+01 0.  1.
          1    1    6    6  503    0  0.19686115730E+03 -0.72411451056E+03  0.24752642663E+01  0.75040140364E+03  0.00000000000E+00 0. -1.
         -1    1    6    6    0  503 -0.72992499625E+01 -0.14911440376E+02  0.73382099240E+01  0.18151568224E+02  0.00000000000E+00 0.  1.
<mgrwt>
<rscale>  0 0.81076224E+03</rscale>
<asrwt>0</asrwt>
<pdfrwt beam="1">  1        1 0.20129374E+00 0.81076224E+03</pdfrwt>
<pdfrwt beam="2">  1       -1 0.99022630E-01 0.81076224E+03</pdfrwt>
<totfact> 0.89357047E+00</totfact>
</mgrwt>
</event>
<event>
12    1  0.7781383E-008  0.8283784E+03  0.7818608E-02  0.9519825E-01
         -1   -1    0    0    0  501 -0.00000000000E+00  0.00000000000E+00  0.48865012325E+03  0.48865012325E+03  0.00000000000E+00 0.  1.
          1   -1    0    0  501    0  0.00000000000E+00 -0.00000000000E+00 -0.15528661270E+04  0.15528661270E+04  0.00000000000E+00 0. -1.
         23    2    1    2    0    0 -0.70220716234E+03 -0.20553836061E+03 -0.21002239593E+03  0.76677042486E+03  0.92122533231E+02 0.  0.
    5000000    2    1    2    0    0  0.70220716234E+03  0.20553836061E+03 -0.85419360782E+03  0.12747458254E+04  0.59999106924E+03 0.  0.
         23    2    4    4    0    0  0.65519217608E+03 -0.47478076355E+02 -0.51720958276E+03  0.84103532339E+03  0.91124680332E+02 0.  0.
         23    2    4    4    0    0  0.47014986259E+02  0.25301643697E+03 -0.33698402506E+03  0.43371050199E+03  0.91207675567E+02 0.  0.
          1    1    3    3  502    0 -0.12144771001E+03 -0.96768450808E+01 -0.10814341076E+02  0.12231164119E+03  0.00000000000E+00 0. -1.
         -1    1    3    3    0  502 -0.58075945233E+03 -0.19586151553E+03 -0.19920805485E+03  0.64445878367E+03  0.00000000000E+00 0.  1.
         15    1    5    5    0    0  0.18882966115E+03 -0.41957994788E+02 -0.11418780120E+03  0.22463108852E+03  0.17770000000E+01 0.  1.
        -15    1    5    5    0    0  0.46636251493E+03 -0.55200815675E+01 -0.40302178156E+03  0.61640423487E+03  0.17770000000E+01 0. -1.
          3    1    6    6  503    0  0.46334533824E+02  0.11251551088E+03 -0.21771243897E+03  0.24940997433E+03  0.00000000000E+00 0. -1.
         -3    1    6    6    0  503  0.68045243513E+00  0.14050092609E+03 -0.11927158609E+03  0.18430052766E+03  0.00000000000E+00 0.  1.
<mgrwt>
<rscale>  0 0.82837845E+03</rscale>
<asrwt>0</asrwt>
<pdfrwt beam="1">  1        1 0.23890248E+00 0.82837845E+03</pdfrwt>
<pdfrwt beam="2">  1       -1 0.75176942E-01 0.82837845E+03</pdfrwt>
<totfact> 0.10990199E+01</totfact>
</mgrwt>
</event>
<event>
12    1  0.7781383E-008  0.1302408E+04  0.7818608E-02  0.9027658E-01
          1   -1    0    0  501    0  0.00000000000E+00  0.00000000000E+00  0.12615222955E+04  0.12615222955E+04  0.00000000000E+00 0. -1.
         -1   -1    0    0    0  501 -0.00000000000E+00 -0.00000000000E+00 -0.14746549417E+04  0.14746549417E+04  0.00000000000E+00 0.  1.
         23    2    1    2    0    0  0.11112062298E+04  0.66628094521E+03 -0.13959262878E+03  0.13064339874E+04  0.92596319442E+02 0.  0.
    5000000    2    1    2    0    0 -0.11112062298E+04 -0.66628094521E+03 -0.73540017456E+02  0.14297432498E+04  0.60004003448E+03 0.  0.
         23    2    4    4    0    0 -0.60035250936E+03 -0.30954309858E+03 -0.32095209487E+03  0.75331681688E+03  0.90751936684E+02 0.  0.
         23    2    4    4    0    0 -0.51085372045E+03 -0.35673784663E+03  0.24741207742E+03  0.67642643289E+03  0.90036482327E+02 0.  0.
          2    1    3    3  502    0  0.41641509089E+03  0.24624651839E+03 -0.97167613610E+02  0.49343735254E+03  0.00000000000E+00 0. -1.
         -2    1    3    3    0  502  0.69479113892E+03  0.42003442683E+03 -0.42425015173E+02  0.81299663490E+03  0.00000000000E+00 0.  1.
         15    1    5    5    0    0 -0.37872917310E+03 -0.23660193986E+03 -0.18579375606E+03  0.48367214311E+03  0.17770000000E+01 0.  1.
        -15    1    5    5    0    0 -0.22162333627E+03 -0.72941158724E+02 -0.13515833881E+03  0.26964467377E+03  0.17770000000E+01 0. -1.
          3    1    6    6  503    0 -0.35470232813E+03 -0.29501758393E+03  0.19046898958E+03  0.49912678990E+03  0.00000000000E+00 0. -1.
         -3    1    6    6    0  503 -0.15615139232E+03 -0.61720262696E+02  0.56943087839E+02  0.17729964299E+03  0.00000000000E+00 0.  1.
<mgrwt>
<rscale>  0 0.13024079E+04</rscale>
<asrwt>0</asrwt>
<pdfrwt beam="1">  1        1 0.19408035E+00 0.13024079E+04</pdfrwt>
<pdfrwt beam="2">  1       -1 0.22686999E+00 0.13024079E+04</pdfrwt>
<totfact> 0.92456602E-01</totfact>
</mgrwt>
</event>
<event>
12    1  0.7781383E-008  0.7983688E+03  0.7818608E-02  0.9562381E-01
          1   -1    0    0  501    0  0.00000000000E+00  0.00000000000E+00  0.12566418255E+04  0.12566418255E+04  0.00000000000E+00 0. -1.
         -1   -1    0    0    0  501 -0.00000000000E+00 -0.00000000000E+00 -0.68887157262E+03  0.68887157262E+03  0.00000000000E+00 0.  1.
         23    2    1    2    0    0  0.15693332469E+03  0.75424565898E+03  0.58122674247E+03  0.96906194078E+03  0.87988274283E+02 0.  0.
    5000000    2    1    2    0    0 -0.15693332469E+03 -0.75424565898E+03 -0.13456489560E+02  0.97645145737E+03  0.59980145799E+03 0.  0.
         23    2    4    4    0    0 -0.93296096225E+02 -0.71442959730E+03  0.18112974929E+03  0.74886011472E+03  0.94178948197E+02 0.  0.
         23    2    4    4    0    0 -0.63637228465E+02 -0.39816061688E+02 -0.19458623885E+03  0.22759134265E+03  0.91098843476E+02 0.  0.
          3    1    3    3  502    0  0.13981429137E+03  0.73965765186E+03  0.56755875297E+03  0.94274302760E+03  0.00000000000E+00 0. -1.
         -3    1    3    3    0  502  0.17119033322E+02  0.14588007127E+02  0.13667989496E+02  0.26318913175E+02  0.00000000000E+00 0.  1.
         15    1    5    5    0    0 -0.15958849881E+02 -0.41216930397E+03  0.74609468136E+02  0.41917532190E+03  0.17770000000E+01 0. -1.
        -15    1    5    5    0    0 -0.77337246344E+02 -0.30226029332E+03  0.10652028116E+03  0.32968479282E+03  0.17770000000E+01 0.  1.
          4    1    6    6  503    0 -0.19153303608E+02 -0.48085433216E+02 -0.16644653227E+03  0.17430865163E+03  0.00000000000E+00 0. -1.
         -4    1    6    6    0  503 -0.44483924857E+02  0.82693715277E+01 -0.28139706584E+02  0.53282691024E+02  0.00000000000E+00 0.  1.
<mgrwt>
<rscale>  0 0.79836875E+03</rscale>
<asrwt>0</asrwt>
<pdfrwt beam="1">  1        1 0.19332951E+00 0.79836875E+03</pdfrwt>
<pdfrwt beam="2">  1       -1 0.10598024E+00 0.79836875E+03</pdfrwt>
<totfact> 0.83314876E+00</totfact>
</mgrwt>
</event>
<event>
12    1  0.8292223E-008  0.8459798E+03  0.7818608E-02  0.9495749E-01
          1   -1    0    0  501    0  0.00000000000E+00  0.00000000000E+00  0.16935093574E+04  0.16935093574E+04  0.00000000000E+00 0. -1.
         -1   -1    0    0    0  501 -0.00000000000E+00 -0.00000000000E+00 -0.56118161861E+03  0.56118161861E+03  0.00000000000E+00 0.  1.
         23    2    1    2    0    0 -0.81458888852E+03  0.62401346438E+02  0.89173503321E+03  0.12129530832E+04  0.92816093598E+02 0.  0.
    5000000    2    1    2    0    0  0.81458888852E+03 -0.62401346438E+02  0.24059270558E+03  0.10417378928E+04  0.59990332722E+03 0.  0.
         23    2    4    4    0    0  0.65447369559E+03 -0.13719347395E+03  0.40195115173E+03  0.78547629057E+03  0.90831751876E+02 0.  0.
         23    2    4    4    0    0  0.16011519293E+03  0.74792127517E+02 -0.16135844616E+03  0.25626160225E+03  0.91666369487E+02 0.  0.
          1    1    3    3  502    0 -0.45714127326E+03  0.60551877959E+02  0.55842454070E+03  0.72421173789E+03  0.00000000000E+00 0. -1.
         -1    1    3    3    0  502 -0.35744761526E+03  0.18494684790E+01  0.33331049251E+03  0.48874134530E+03  0.00000000000E+00 0.  1.
         15    1    5    5    0    0  0.35856184891E+03 -0.30021791315E+02  0.20287118085E+03  0.41307115754E+03  0.17770000000E+01 0. -1.
        -15    1    5    5    0    0  0.29591184668E+03 -0.10717168264E+03  0.19907997088E+03  0.37240513302E+03  0.17770000000E+01 0.  1.
          4    1    6    6  503    0  0.14429412662E+03  0.24825446494E+02 -0.12444948442E+03  0.19215819510E+03  0.00000000000E+00 0.  1.
         -4    1    6    6    0  503  0.15821066306E+02  0.49966681023E+02 -0.36908961736E+02  0.64103407148E+02  0.00000000000E+00 0. -1.
<mgrwt>
<rscale>  0 0.84597979E+03</rscale>
<asrwt>0</asrwt>
<pdfrwt beam="1">  1        1 0.26053990E+00 0.84597979E+03</pdfrwt>
<pdfrwt beam="2">  1       -1 0.86335635E-01 0.84597979E+03</pdfrwt>
<totfact> 0.65515884E+00</totfact>
</mgrwt>
</event>
<event>
12    1  0.7781383E-008  0.4421968E+03  0.7818608E-02  0.1030075E+00
         -2   -1    0    0    0  501 -0.00000000000E+00  0.00000000000E+00  0.59497377731E+02  0.59497377731E+02  0.00000000000E+00 0.  1.
          2   -1    0    0  501    0  0.00000000000E+00 -0.00000000000E+00 -0.37178630848E+04  0.37178630848E+04  0.00000000000E+00 0. -1.
         23    2    1    2    0    0 -0.14291570343E+03  0.20546867915E+03 -0.69728166916E+03  0.74575724387E+03  0.85497744080E+02 0.  0.
    5000000    2    1    2    0    0  0.14291570343E+03 -0.20546867915E+03 -0.29610840379E+04  0.30316032187E+04  0.59996426513E+03 0.  0.
         23    2    4    4    0    0  0.39510474362E+02 -0.39508104363E+03 -0.21074968371E+04  0.21465002399E+04  0.90940928914E+02 0.  0.
         23    2    4    4    0    0  0.10340522906E+03  0.18961236448E+03 -0.85358720080E+03  0.88510297882E+03  0.90281136471E+02 0.  0.
          3    1    3    3  502    0 -0.21793682684E+02  0.40592067498E+02 -0.24586676490E+03  0.25014625049E+03  0.00000000000E+00 0. -1.
         -3    1    3    3    0  502 -0.12112202074E+03  0.16487661165E+03 -0.45141490426E+03  0.49561099339E+03  0.00000000000E+00 0.  1.
         15    1    5    5    0    0  0.97661476639E+00 -0.23447154329E+03 -0.10253045571E+04  0.10517749051E+04  0.17770000000E+01 0. -1.
        -15    1    5    5    0    0  0.38533859596E+02 -0.16060950034E+03 -0.10821922800E+04  0.10947253348E+04  0.17770000000E+01 0.  1.
          2    1    6    6  503    0  0.71064026222E+00  0.93252192538E+02 -0.33678656587E+03  0.34945910687E+03  0.00000000000E+00 0. -1.
         -2    1    6    6    0  503  0.10269458880E+03  0.96360171940E+02 -0.51680063492E+03  0.53564387196E+03  0.00000000000E+00 0.  1.
<mgrwt>
<rscale>  0 0.44219675E+03</rscale>
<asrwt>0</asrwt>
<pdfrwt beam="1">  1        2 0.57197897E+00 0.44219675E+03</pdfrwt>
<pdfrwt beam="2">  1       -2 0.91534422E-02 0.44219675E+03</pdfrwt>
<totfact> 0.51942265E+01</totfact>
</mgrwt>
</event>
<event>
12    1  0.7781383E-008  0.6402085E+03  0.7818608E-02  0.9825328E-01
         -2   -1    0    0    0  501 -0.00000000000E+00  0.00000000000E+00  0.56721162294E+03  0.56721162294E+03  0.00000000000E+00 0.  1.
          2   -1    0    0  501    0  0.00000000000E+00 -0.00000000000E+00 -0.10112834128E+04  0.10112834128E+04  0.00000000000E+00 0. -1.
         23    2    1    2    0    0 -0.21947931446E+03  0.55719698922E+03  0.31934289512E+02  0.60630109594E+03  0.89115463381E+02 0.  0.
    5000000    2    1    2    0    0  0.21947931446E+03 -0.55719698922E+03 -0.47600607938E+03  0.97219393980E+03  0.59994967681E+03 0.  0.
         23    2    4    4    0    0  0.20256534702E+03 -0.57914506316E+03 -0.56509715947E+03  0.83909114031E+03  0.91090164764E+02 0.  0.
         23    2    4    4    0    0  0.16913967440E+02  0.21948073940E+02  0.89091080093E+02  0.13310279949E+03  0.94928048726E+02 0.  0.
          4    1    3    3  502    0 -0.93162261270E+02  0.35083083465E+03  0.69281122878E+01  0.36305575358E+03  0.00000000000E+00 0. -1.
         -4    1    3    3    0  502 -0.12631705319E+03  0.20636615457E+03  0.25006177225E+02  0.24324534235E+03  0.00000000000E+00 0.  1.
         15    1    5    5    0    0  0.15814217375E+03 -0.32309493723E+03 -0.30878739621E+03  0.47408026680E+03  0.17770000000E+01 0.  1.
        -15    1    5    5    0    0  0.44423173271E+02 -0.25605012593E+03 -0.25630976326E+03  0.36501087352E+03  0.17770000000E+01 0. -1.
          3    1    6    6  503    0 -0.20961169248E+01  0.33535458028E+02 -0.71220958938E+01  0.34347414768E+02  0.00000000000E+00 0. -1.
         -3    1    6    6    0  503  0.19010084365E+02 -0.11587384089E+02  0.96213175986E+02  0.98755384719E+02  0.00000000000E+00 0.  1.
<mgrwt>
<rscale>  0 0.64020853E+03</rscale>
<asrwt>0</asrwt>
<pdfrwt beam="1">  1        2 0.15558206E+00 0.64020853E+03</pdfrwt>
<pdfrwt beam="2">  1       -2 0.87263327E-01 0.64020853E+03</pdfrwt>
<totfact> 0.28900701E+01</totfact>
</mgrwt>
</event>
<event>
12    1  0.7781383E-008  0.7773290E+03  0.7818608E-02  0.9593425E-01
         -1   -1    0    0    0  501 -0.00000000000E+00  0.00000000000E+00  0.61433728080E+03  0.61433728080E+03  0.00000000000E+00 0.  1.
          1   -1    0    0  501    0  0.00000000000E+00 -0.00000000000E+00 -0.12222588424E+04  0.12222588424E+04  0.00000000000E+00 0. -1.
         23    2    1    2    0    0  0.67849674175E+03 -0.15336392011E+03  0.55616435067E+02  0.70334147910E+03  0.87850599409E+02 0.  0.
    5000000    2    1    2    0    0 -0.67849674175E+03  0.15336392011E+03 -0.66353799666E+03  0.11332546441E+04  0.60008757259E+03 0.  0.
         23    2    4    4    0    0  0.56561058829E+02  0.87372653306E+02 -0.24755536997E+03  0.28179013929E+03  0.85374981570E+02 0.  0.
         23    2    4    4    0    0 -0.73505780058E+03  0.65991266802E+02 -0.41598262670E+03  0.85146450480E+03  0.85354787410E+02 0.  0.
          4    1    3    3  502    0  0.45702252536E+03 -0.72095319035E+02  0.84083208181E+01  0.46275049818E+03  0.00000000000E+00 0.  1.
         -4    1    3    3    0  502  0.22147421640E+03 -0.81268601073E+02  0.47208114249E+02  0.24059098092E+03  0.00000000000E+00 0. -1.
         15    1    5    5    0    0  0.45250854415E+02  0.29243056885E+02 -0.43383495062E+02  0.69195965013E+02  0.17770000000E+01 0. -1.
        -15    1    5    5    0    0  0.11310204414E+02  0.58129596421E+02 -0.20417187491E+03  0.21259417427E+03  0.17770000000E+01 0.  1.
          4    1    6    6  503    0 -0.68631056710E+03  0.82946847666E+02 -0.38853353331E+03  0.79300736476E+03  0.00000000000E+00 0. -1.
         -4    1    6    6    0  503 -0.48747233480E+02 -0.16955580864E+02 -0.27449093383E+02  0.58457140042E+02  0.00000000000E+00 0.  1.
<mgrwt>
<rscale>  0 0.77732902E+03</rscale>
<asrwt>0</asrwt>
<pdfrwt beam="1">  1        1 0.18803982E+00 0.77732902E+03</pdfrwt>
<pdfrwt beam="2">  1       -1 0.94513429E-01 0.77732902E+03</pdfrwt>
<totfact> 0.11487514E+01</totfact>
</mgrwt>
</event>
<event>
12    1  0.7781383E-008  0.6468715E+03  0.7818608E-02  0.9812667E-01
          2   -1    0    0  501    0  0.00000000000E+00  0.00000000000E+00  0.23899866856E+04  0.23899866856E+04  0.00000000000E+00 0. -1.
         -2   -1    0    0    0  501 -0.00000000000E+00 -0.00000000000E+00 -0.90753029188E+03  0.90753029188E+03  0.00000000000E+00 0.  1.
         23    2    1    2    0    0  0.95846061002E+02  0.50981550395E+03  0.21791584817E+04  0.22418136599E+04  0.88873402251E+02 0.  0.
    5000000    2    1    2    0    0 -0.95846061002E+02 -0.50981550395E+03 -0.69670208803E+03  0.10557033176E+04  0.60001448301E+03 0.  0.
         23    2    4    4    0    0  0.24929231867E+02 -0.59636870821E+03 -0.60423365201E+03  0.85404423253E+03  0.89532911089E+02 0.  0.
         23    2    4    4    0    0 -0.12077529287E+03  0.86553204258E+02 -0.92468436014E+02  0.20165908505E+03  0.10018905325E+03 0.  0.
          2    1    3    3  502    0 -0.70026096718E+01  0.19476209536E+03  0.80481492605E+03  0.82807510258E+03  0.00000000000E+00 0. -1.
         -2    1    3    3    0  502  0.10284867067E+03  0.31505340859E+03  0.13743435557E+04  0.14137385573E+04  0.00000000000E+00 0.  1.
         15    1    5    5    0    0  0.47865328047E+02 -0.17161350478E+03 -0.17546832130E+03  0.25006913876E+03  0.17770000000E+01 0. -1.
        -15    1    5    5    0    0 -0.22936096180E+02 -0.42475520343E+03 -0.42876533071E+03  0.60397509377E+03  0.17770000000E+01 0.  1.
          2    1    6    6  503    0 -0.68164649974E+02  0.87934199348E+02 -0.98614059744E+02  0.14867271337E+03  0.00000000000E+00 0.  1.
         -2    1    6    6    0  503 -0.52610642895E+02 -0.13809950896E+01  0.61456237300E+01  0.52986371685E+02  0.00000000000E+00 0. -1.
<mgrwt>
<rscale>  0 0.64687154E+03</rscale>
<asrwt>0</asrwt>
<pdfrwt beam="1">  1        2 0.36769026E+00 0.64687154E+03</pdfrwt>
<pdfrwt beam="2">  1       -2 0.13962005E+00 0.64687154E+03</pdfrwt>
<totfact> 0.15621505E+00</totfact>
</mgrwt>
</event>
<event>
12    1  0.7781383E-008  0.1526216E+04  0.7818608E-02  0.8867205E-01
          1   -1    0    0  501    0  0.00000000000E+00  0.00000000000E+00  0.19676442905E+04  0.19676442905E+04  0.00000000000E+00 0. -1.
         -1   -1    0    0    0  501 -0.00000000000E+00 -0.00000000000E+00 -0.13326415565E+04  0.13326415565E+04  0.00000000000E+00 0.  1.
         23    2    1    2    0    0 -0.10455579944E+04  0.11058954685E+04 -0.53024731561E+02  0.15255437059E+04  0.90970705639E+02 0.  0.
    5000000    2    1    2    0    0  0.10455579944E+04 -0.11058954685E+04  0.68802746549E+03  0.17747421411E+04  0.60010962921E+03 0.  0.
         23    2    4    4    0    0  0.71161220557E+03 -0.65644223407E+03  0.13274089157E+03  0.98140606578E+03  0.90715951595E+02 0.  0.
         23    2    4    4    0    0  0.33394578887E+03 -0.44945323446E+03  0.55528657393E+03  0.79333607532E+03  0.86665733385E+02 0.  0.
          2    1    3    3  502    0 -0.80054361450E+03  0.86528885563E+03 -0.76887087447E+02  0.11813155830E+04  0.00000000000E+00 0.  1.
         -2    1    3    3    0  502 -0.24501437994E+03  0.24060661290E+03  0.23862355886E+02  0.34422812288E+03  0.00000000000E+00 0. -1.
         15    1    5    5    0    0  0.24326002401E+03 -0.19982636001E+03  0.82083524424E+02  0.32534116885E+03  0.17770000000E+01 0.  1.
        -15    1    5    5    0    0  0.46835218156E+03 -0.45661587406E+03  0.50657367141E+02  0.65606489693E+03  0.17770000000E+01 0. -1.
          2    1    6    6  503    0  0.12082410069E+03 -0.13208493289E+03  0.12841959030E+03  0.22030997248E+03  0.00000000000E+00 0.  1.
         -2    1    6    6    0  503  0.21312168818E+03 -0.31736830158E+03  0.42686698363E+03  0.57302610284E+03  0.00000000000E+00 0. -1.
<mgrwt>
<rscale>  0 0.15262156E+04</rscale>
<asrwt>0</asrwt>
<pdfrwt beam="1">  1        1 0.30271450E+00 0.15262156E+04</pdfrwt>
<pdfrwt beam="2">  1       -1 0.20502178E+00 0.15262156E+04</pdfrwt>
<totfact> 0.41064272E-01</totfact>
</mgrwt>
</event>
<event>
12    1  0.7781383E-008  0.1286243E+04  0.7818608E-02  0.9040546E-01
          2   -1    0    0  501    0  0.00000000000E+00  0.00000000000E+00  0.18244041911E+04  0.18244041911E+04  0.00000000000E+00 0. -1.
         -2   -1    0    0    0  501 -0.00000000000E+00 -0.00000000000E+00 -0.10149504546E+04  0.10149504546E+04  0.00000000000E+00 0.  1.
         23    2    1    2    0    0  0.86105554423E+03  0.86183459739E+03  0.83770233896E+03  0.14811156812E+04  0.88220909870E+02 0.  0.
    5000000    2    1    2    0    0 -0.86105554423E+03 -0.86183459739E+03 -0.28248602485E+02  0.13582389644E+04  0.59986629961E+03 0.  0.
         23    2    4    4    0    0 -0.68425193526E+03 -0.28355366418E+03 -0.17425624955E+02  0.74631319277E+03  0.89868447884E+02 0.  0.
         23    2    4    4    0    0 -0.17680360897E+03 -0.57828093322E+03 -0.10822977531E+02  0.61192577164E+03  0.93100264737E+02 0.  0.
          4    1    3    3  502    0  0.70341713232E+03  0.73714533071E+03  0.72672182194E+03  0.12515204781E+04  0.00000000000E+00 0.  1.
         -4    1    3    3    0  502  0.15763841191E+03  0.12468926668E+03  0.11098051702E+03  0.22959520311E+03  0.00000000000E+00 0. -1.
         15    1    5    5    0    0 -0.45120792157E+03 -0.22999972947E+03 -0.25021328979E+02  0.50706773579E+03  0.17770000000E+01 0.  1.
        -15    1    5    5    0    0 -0.23304401369E+03 -0.53553934708E+02  0.75957040237E+01  0.23924545698E+03  0.17770000000E+01 0. -1.
          3    1    6    6  503    0 -0.43971116632E+02 -0.23191951502E+03 -0.41613089873E+02  0.23969098814E+03  0.00000000000E+00 0. -1.
         -3    1    6    6    0  503 -0.13283249233E+03 -0.34636141819E+03  0.30790112342E+02  0.37223478350E+03  0.00000000000E+00 0.  1.
<mgrwt>
<rscale>  0 0.12862433E+04</rscale>
<asrwt>0</asrwt>
<pdfrwt beam="1">  1        2 0.28067757E+00 0.12862433E+04</pdfrwt>
<pdfrwt beam="2">  1       -2 0.15614622E+00 0.12862433E+04</pdfrwt>
<totfact> 0.21682914E+00</totfact>
</mgrwt>
</event>
<event>
12    1  0.7781383E-008  0.1420155E+04  0.7818608E-02  0.8939357E-01
          2   -1    0    0  501    0  0.00000000000E+00  0.00000000000E+00  0.35557090173E+04  0.35557090173E+04  0.00000000000E+00 0. -1.
         -2   -1    0    0    0  501 -0.00000000000E+00 -0.00000000000E+00 -0.74314846836E+03  0.74314846836E+03  0.00000000000E+00 0.  1.
         23    2    1    2    0    0  0.60987018880E+02  0.14016311815E+04  0.43100926571E+03  0.14705513042E+04  0.91993292127E+02 0.  0.
    5000000    2    1    2    0    0 -0.60987018880E+02 -0.14016311815E+04  0.23815512833E+04  0.28283061815E+04  0.59936629551E+03 0.  0.
         23    2    4    4    0    0  0.88773887571E+02 -0.35358545435E+03  0.27116241173E+03  0.46552171096E+03  0.10138014200E+03 0.  0.
         23    2    4    4    0    0 -0.14976090645E+03 -0.10480457271E+04  0.21103888715E+04  0.23627844705E+04  0.90449377859E+02 0.  0.
          1    1    3    3  502    0 -0.50329967211E+01  0.61268574272E+03  0.22245344996E+03  0.65183946473E+03  0.00000000000E+00 0. -1.
         -1    1    3    3    0  502  0.66020015601E+02  0.78894543875E+03  0.20855581575E+03  0.81871183946E+03  0.00000000000E+00 0.  1.
         15    1    5    5    0    0  0.55116962698E+02 -0.32989258974E+03  0.25752582615E+03  0.42212522930E+03  0.17770000000E+01 0.  1.
        -15    1    5    5    0    0  0.33656924873E+02 -0.23692864609E+02  0.13636585582E+02  0.43396481662E+02  0.17770000000E+01 0. -1.
          4    1    6    6  503    0 -0.12799175159E+03 -0.70697539953E+03  0.13555759940E+04  0.15342041518E+04  0.00000000000E+00 0. -1.
         -4    1    6    6    0  503 -0.21769154863E+02 -0.34107032759E+03  0.75481287754E+03  0.82858031872E+03  0.00000000000E+00 0.  1.
<mgrwt>
<rscale>  0 0.14201549E+04</rscale>
<asrwt>0</asrwt>
<pdfrwt beam="1">  1        2 0.54703215E+00 0.14201549E+04</pdfrwt>
<pdfrwt beam="2">  1       -2 0.11433054E+00 0.14201549E+04</pdfrwt>
<totfact> 0.43063295E-01</totfact>
</mgrwt>
</event>
<event>
12    1  0.7781383E-008  0.6488349E+03  0.7818608E-02  0.9808968E-01
         -2   -1    0    0    0  501 -0.00000000000E+00  0.00000000000E+00  0.98153662961E+03  0.98153662961E+03  0.00000000000E+00 0. -1.
          2   -1    0    0  501    0  0.00000000000E+00 -0.00000000000E+00 -0.57107802912E+03  0.57107802912E+03  0.00000000000E+00 0.  1.
         23    2    1    2    0    0  0.35285731319E+03  0.49966688595E+03  0.30244988199E+03  0.68895244425E+03  0.94890773693E+02 0.  0.
    5000000    2    1    2    0    0 -0.35285731319E+03 -0.49966688595E+03  0.10800871850E+03  0.86366221448E+03  0.60005937794E+03 0.  0.
         23    2    4    4    0    0 -0.29817541298E+03 -0.19567209905E+03 -0.19956549228E+03  0.41846419351E+03  0.89943028004E+02 0.  0.
         23    2    4    4    0    0 -0.54681900208E+02 -0.30399478690E+03  0.30757421078E+03  0.44519802097E+03  0.90534203851E+02 0.  0.
          1    1    3    3  502    0  0.28599136410E+03  0.33036971789E+03  0.21041003534E+03  0.48498205514E+03  0.00000000000E+00 0. -1.
         -1    1    3    3    0  502  0.66865949096E+02  0.16929716806E+03  0.92039846653E+02  0.20397038911E+03  0.00000000000E+00 0.  1.
         15    1    5    5    0    0 -0.27396042441E+03 -0.14327161151E+03 -0.17845814105E+03  0.35697553788E+03  0.17770000000E+01 0. -1.
        -15    1    5    5    0    0 -0.24214988570E+02 -0.52400487545E+02 -0.21107351230E+02  0.61488655631E+02  0.17770000000E+01 0.  1.
          4    1    6    6  503    0  0.20218843510E+01 -0.10044316580E+03  0.15444046791E+03  0.18424108039E+03  0.00000000000E+00 0. -1.
         -4    1    6    6    0  503 -0.56703784559E+02 -0.20355162110E+03  0.15313374286E+03  0.26095694058E+03  0.00000000000E+00 0.  1.
<mgrwt>
<rscale>  0 0.64883495E+03</rscale>
<asrwt>0</asrwt>
<pdfrwt beam="1">  1        2 0.87858158E-01 0.64883495E+03</pdfrwt>
<pdfrwt beam="2">  1       -2 0.15100564E+00 0.64883495E+03</pdfrwt>
<totfact> 0.15878056E+01</totfact>
</mgrwt>
</event>
<event>
12    1  0.7781383E-008  0.8243567E+03  0.7818608E-02  0.9525416E-01
          2   -1    0    0  501    0  0.00000000000E+00  0.00000000000E+00  0.94662305677E+03  0.94662305677E+03  0.00000000000E+00 0. -1.
         -2   -1    0    0    0  501 -0.00000000000E+00 -0.00000000000E+00 -0.78499698286E+03  0.78499698286E+03  0.00000000000E+00 0.  1.
         23    2    1    2    0    0  0.56001422709E+03  0.47084542906E+03 -0.11375517729E+03  0.74611229037E+03  0.91825687469E+02 0.  0.
    5000000    2    1    2    0    0 -0.56001422709E+03 -0.47084542906E+03  0.27538125119E+03  0.98550774926E+03  0.60006611114E+03 0.  0.
         23    2    4    4    0    0 -0.49087668385E+03 -0.63182447941E+02  0.24593430239E+03  0.56136535310E+03  0.98465415687E+02 0.  0.
         23    2    4    4    0    0 -0.69137543235E+02 -0.40766298111E+03  0.29446948806E+02  0.42414239616E+03  0.89780528928E+02 0.  0.
          4    1    3    3  502    0  0.29484720871E+03  0.19680681291E+03 -0.79091786697E+02  0.36321248439E+03  0.00000000000E+00 0. -1.
         -4    1    3    3    0  502  0.26516701838E+03  0.27403861615E+03 -0.34663390594E+02  0.38289980598E+03  0.00000000000E+00 0.  1.
         15    1    5    5    0    0 -0.11608469556E+03  0.29327383038E+00  0.16251091170E+02  0.11723053461E+03  0.17770000000E+01 0. -1.
        -15    1    5    5    0    0 -0.37479198830E+03 -0.63475721771E+02  0.22968321122E+03  0.44413481848E+03  0.17770000000E+01 0.  1.
          3    1    6    6  503    0 -0.13787474186E+02 -0.16079265133E+02 -0.15319607366E+02  0.26140535218E+02  0.00000000000E+00 0. -1.
         -3    1    6    6    0  503 -0.55350069049E+02 -0.39158371598E+03  0.44766556172E+02  0.39800186095E+03  0.00000000000E+00 0.  1.
<mgrwt>
<rscale>  0 0.82435669E+03</rscale>
<asrwt>0</asrwt>
<pdfrwt beam="1">  1        2 0.14563432E+00 0.82435669E+03</pdfrwt>
<pdfrwt beam="2">  1       -2 0.12076877E+00 0.82435669E+03</pdfrwt>
<totfact> 0.14382860E+01</totfact>
</mgrwt>
</event>
<event>
12    1  0.7781383E-008  0.5199789E+03  0.7818608E-02  0.1008692E+00
         -1   -1    0    0    0  501 -0.00000000000E+00  0.00000000000E+00  0.42486170332E+03  0.42486170332E+03  0.00000000000E+00 0.  1.
          1   -1    0    0  501    0  0.00000000000E+00 -0.00000000000E+00 -0.81809710755E+03  0.81809710755E+03  0.00000000000E+00 0. -1.
         23    2    1    2    0    0 -0.24711400461E+03 -0.32969139002E+03 -0.13524884977E+02  0.42195752953E+03  0.90019388404E+02 0.  0.
    5000000    2    1    2    0    0  0.24711400461E+03  0.32969139002E+03 -0.37971051925E+03  0.82100128133E+03  0.60008439540E+03 0.  0.
         23    2    4    4    0    0 -0.11577517563E+02 -0.10926868666E+03 -0.24874428693E+03  0.28684514682E+03  0.91283805646E+02 0.  0.
         23    2    4    4    0    0  0.25869152218E+03  0.43896007668E+03 -0.13096623232E+03  0.53415613452E+03  0.92538475616E+02 0.  0.
          1    1    3    3  502    0 -0.21657631970E+03 -0.27586087678E+03  0.20524734527E+02  0.35132006820E+03  0.00000000000E+00 0. -1.
         -1    1    3    3    0  502 -0.30537684913E+02 -0.53830513236E+02 -0.34049619503E+02  0.70637461331E+02  0.00000000000E+00 0.  1.
         15    1    5    5    0    0 -0.26842503444E+02 -0.52300450666E+02 -0.20533726402E+03  0.21359402346E+03  0.17770000000E+01 0. -1.
        -15    1    5    5    0    0  0.15264985881E+02 -0.56968235998E+02 -0.43407022906E+02  0.73251123358E+02  0.17770000000E+01 0.  1.
          2    1    6    6  503    0  0.19099919804E+03  0.32082020955E+03 -0.13738635433E+03  0.39784583806E+03  0.00000000000E+00 0. -1.
         -2    1    6    6    0  503  0.67692324135E+02  0.11813986713E+03  0.64201220149E+01  0.13631029646E+03  0.00000000000E+00 0.  1.
<mgrwt>
<rscale>  0 0.51997894E+03</rscale>
<asrwt>0</asrwt>
<pdfrwt beam="1">  1        1 0.12586109E+00 0.51997894E+03</pdfrwt>
<pdfrwt beam="2">  1       -1 0.65363340E-01 0.51997894E+03</pdfrwt>
<totfact> 0.53081902E+01</totfact>
</mgrwt>
</event>
<event>
12    1  0.7781383E-008  0.6088576E+03  0.7818608E-02  0.9887198E-01
          2   -1    0    0  501    0  0.00000000000E+00  0.00000000000E+00  0.10905751502E+04  0.10905751502E+04  0.00000000000E+00 0. -1.
         -2   -1    0    0    0  501 -0.00000000000E+00 -0.00000000000E+00 -0.46331710351E+03  0.46331710351E+03  0.00000000000E+00 0.  1.
         23    2    1    2    0    0  0.13096626698E+02  0.57893460682E+03  0.21737245309E+03  0.62462588529E+03  0.87005244767E+02 0.  0.
    5000000    2    1    2    0    0 -0.13096626698E+02 -0.57893460682E+03  0.40988559356E+03  0.92926636838E+03  0.60016079761E+03 0.  0.
         23    2    4    4    0    0 -0.13673929141E+03 -0.37600673465E+03  0.50729585756E+03  0.65276546067E+03  0.93139471888E+02 0.  0.
         23    2    4    4    0    0  0.12364266471E+03 -0.20292787216E+03 -0.97410264007E+02  0.27650090771E+03  0.10245370952E+03 0.  0.
          2    1    3    3  502    0  0.13920154331E+02  0.46818723968E+03  0.13776751766E+03  0.48823452460E+03  0.00000000000E+00 0. -1.
         -2    1    3    3    0  502 -0.82352763309E+00  0.11074736714E+03  0.79604935432E+02  0.13639136069E+03  0.00000000000E+00 0.  1.
         15    1    5    5    0    0 -0.21327573375E+02 -0.89238197507E+02  0.18311328905E+03  0.20482176553E+03  0.17770000000E+01 0. -1.
        -15    1    5    5    0    0 -0.11541171803E+03 -0.28676853715E+03  0.32418256851E+03  0.44794369514E+03  0.17770000000E+01 0.  1.
          4    1    6    6  503    0  0.10016012960E+03 -0.16072454197E+03 -0.27257334077E+02  0.19133058358E+03  0.00000000000E+00 0. -1.
         -4    1    6    6    0  503  0.23482535112E+02 -0.42203330196E+02 -0.70152929930E+02  0.85170324132E+02  0.00000000000E+00 0.  1.
<mgrwt>
<rscale>  0 0.60885763E+03</rscale>
<asrwt>0</asrwt>
<pdfrwt beam="1">  1        2 0.16778079E+00 0.60885763E+03</pdfrwt>
<pdfrwt beam="2">  1       -2 0.71279555E-01 0.60885763E+03</pdfrwt>
<totfact> 0.40711213E+01</totfact>
</mgrwt>
</event>
<event>
12    1  0.8759262E-008  0.9274947E+03  0.7818608E-02  0.9391850E-01
          2   -1    0    0  501    0  0.00000000000E+00  0.00000000000E+00  0.19661569374E+04  0.19661569374E+04  0.00000000000E+00 0. -1.
         -2   -1    0    0    0  501 -0.00000000000E+00 -0.00000000000E+00 -0.53000710221E+03  0.53000710221E+03  0.00000000000E+00 0.  1.
         23    2    1    2    0    0  0.80271642485E+02 -0.85777217633E+03  0.22622577518E+03  0.89425336646E+03  0.79336870356E+02 0.  0.
    5000000    2    1    2    0    0 -0.80271642485E+02  0.85777217633E+03  0.12099240600E+04  0.16019106731E+04  0.59998744213E+03 0.  0.
         23    2    4    4    0    0  0.19252612427E+03  0.44155735628E+03  0.84954502189E+03  0.98075004585E+03  0.90026111854E+02 0.  0.
         23    2    4    4    0    0 -0.27279776675E+03  0.41621482005E+03  0.36037903812E+03  0.62116062730E+03  0.91181554184E+02 0.  0.
          1    1    3    3  502    0  0.20843308186E+02 -0.28759587813E+03  0.37808471872E+02  0.29081835079E+03  0.00000000000E+00 0. -1.
         -1    1    3    3    0  502  0.59428334299E+02 -0.57017629820E+03  0.18841730331E+03  0.60343501566E+03  0.00000000000E+00 0.  1.
         15    1    5    5    0    0  0.15005345534E+03  0.25241146963E+03  0.55954452902E+03  0.63191837063E+03  0.17770000000E+01 0. -1.
        -15    1    5    5    0    0  0.42472668924E+02  0.18914588665E+03  0.29000049287E+03  0.34883167522E+03  0.17770000000E+01 0.  1.
          1    1    6    6  503    0 -0.14552804399E+03  0.14094858930E+03  0.13917841144E+03  0.24579574168E+03  0.00000000000E+00 0. -1.
         -1    1    6    6    0  503 -0.12726972276E+03  0.27526623074E+03  0.22120062667E+03  0.37536488562E+03  0.00000000000E+00 0.  1.
<mgrwt>
<rscale>  0 0.92749470E+03</rscale>
<asrwt>0</asrwt>
<pdfrwt beam="1">  1        2 0.30248568E+00 0.92749470E+03</pdfrwt>
<pdfrwt beam="2">  1       -2 0.81539555E-01 0.92749470E+03</pdfrwt>
<totfact> 0.93319340E+00</totfact>
</mgrwt>
</event>
<event>
12    1  0.7781383E-008  0.6734657E+03  0.7818608E-02  0.9763717E-01
          4   -1    0    0  501    0  0.00000000000E+00  0.00000000000E+00  0.20829866314E+04  0.20829866314E+04  0.00000000000E+00 0. -1.
         -4   -1    0    0    0  501 -0.00000000000E+00 -0.00000000000E+00 -0.39983010144E+03  0.39983010144E+03  0.00000000000E+00 0.  1.
         23    2    1    2    0    0  0.18918574203E+03 -0.52410226193E+03  0.15546251182E+04  0.16539767330E+04  0.91133688660E+02 0.  0.
    5000000    2    1    2    0    0 -0.18918574203E+03  0.52410226193E+03  0.12853141181E+03  0.82883999989E+03  0.59998416283E+03 0.  0.
         23    2    4    4    0    0 -0.25487444319E+03  0.42685046347E+01 -0.34048454192E+02  0.27288641947E+03  0.91260609118E+02 0.  0.
         23    2    4    4    0    0  0.65688701165E+02  0.51983375729E+03  0.16257986600E+03  0.55595358041E+03  0.90055705337E+02 0.  0.
          2    1    3    3  502    0  0.12327423243E+03 -0.26198726379E+03  0.91104367498E+03  0.95594688163E+03  0.00000000000E+00 0. -1.
         -2    1    3    3    0  502  0.65911509591E+02 -0.26211499814E+03  0.64358144321E+03  0.69802985136E+03  0.00000000000E+00 0.  1.
         15    1    5    5    0    0 -0.20926900907E+03  0.11318001277E+02 -0.62427537003E+02  0.21868235049E+03  0.17770000000E+01 0. -1.
        -15    1    5    5    0    0 -0.45605434118E+02 -0.70494966421E+01  0.28379082811E+02  0.54204068982E+02  0.17770000000E+01 0.  1.
          3    1    6    6  503    0  0.76089076800E+02  0.51364378735E+03  0.16158420318E+03  0.54380965659E+03  0.00000000000E+00 0. -1.
         -3    1    6    6    0  503 -0.10400375635E+02  0.61899699462E+01  0.99566282471E+00  0.12143923820E+02  0.00000000000E+00 0.  1.
<mgrwt>
<rscale>  0 0.67346573E+03</rscale>
<asrwt>0</asrwt>
<pdfrwt beam="1">  1        4 0.32045948E+00 0.67346573E+03</pdfrwt>
<pdfrwt beam="2">  1       -4 0.61512324E-01 0.67346573E+03</pdfrwt>
<totfact> 0.11617758E-01</totfact>
</mgrwt>
</event>
<event>
12    1  0.7781383E-008  0.8561736E+03  0.7818608E-02  0.9482088E-01
          1   -1    0    0  501    0  0.00000000000E+00  0.00000000000E+00  0.66524246595E+03  0.66524246595E+03  0.00000000000E+00 0. -1.
         -1   -1    0    0    0  501 -0.00000000000E+00 -0.00000000000E+00 -0.12175163405E+04  0.12175163405E+04  0.00000000000E+00 0.  1.
         23    2    1    2    0    0 -0.20342505191E+03 -0.75330646113E+03 -0.40355726593E+03  0.88728425014E+03  0.12474973962E+03 0.  0.
    5000000    2    1    2    0    0  0.20342505191E+03  0.75330646113E+03 -0.14871660860E+03  0.99547455630E+03  0.60000048870E+03 0.  0.
         23    2    4    4    0    0  0.30895885726E+03  0.24537086937E+03 -0.22562446888E+03  0.46312849157E+03  0.88989660808E+02 0.  0.
         23    2    4    4    0    0 -0.10553380535E+03  0.50793559176E+03  0.76907860284E+02  0.53234606473E+03  0.91332164162E+02 0.  0.
          2    1    3    3  502    0 -0.15091524008E+03 -0.36940140105E+03 -0.24747748874E+03  0.46955075575E+03  0.00000000000E+00 0. -1.
         -2    1    3    3    0  502 -0.52509811831E+02 -0.38390506008E+03 -0.15607977719E+03  0.41773349440E+03  0.00000000000E+00 0.  1.
         15    1    5    5    0    0  0.15086030255E+03  0.64189712466E+02 -0.88902793237E+02  0.18651009207E+03  0.17770000000E+01 0. -1.
        -15    1    5    5    0    0  0.15809855471E+03  0.18118115691E+03 -0.13672167565E+03  0.27661839950E+03  0.17770000000E+01 0.  1.
          1    1    6    6  503    0 -0.53593370178E+02  0.14161580638E+03  0.57121078238E+02  0.16183356736E+03  0.00000000000E+00 0. -1.
         -1    1    6    6    0  503 -0.51940435170E+02  0.36631978538E+03  0.19786782046E+02  0.37051249737E+03  0.00000000000E+00 0.  1.
<mgrwt>
<rscale>  0 0.85617356E+03</rscale>
<asrwt>0</asrwt>
<pdfrwt beam="1">  1        1 0.10234499E+00 0.85617356E+03</pdfrwt>
<pdfrwt beam="2">  1       -1 0.18731021E+00 0.85617356E+03</pdfrwt>
<totfact> 0.55410202E+00</totfact>
</mgrwt>
</event>
<event>
12    1  0.7781383E-008  0.6408061E+03  0.7818608E-02  0.9824185E-01
         -2   -1    0    0    0  501 -0.00000000000E+00  0.00000000000E+00  0.24131506761E+03  0.24131506761E+03  0.00000000000E+00 0. -1.
          2   -1    0    0  501    0  0.00000000000E+00 -0.00000000000E+00 -0.28903057594E+04  0.28903057594E+04  0.00000000000E+00 0.  1.
         23    2    1    2    0    0  0.55976443478E+03  0.24492610207E+03 -0.42857607930E+03  0.75173205562E+03  0.89992276225E+02 0.  0.
    5000000    2    1    2    0    0 -0.55976443478E+03 -0.24492610207E+03 -0.22204146125E+04  0.23798887714E+04  0.60025369207E+03 0.  0.
         23    2    4    4    0    0 -0.47884535337E+03 -0.28235773591E+03 -0.96043121501E+03  0.11132462406E+04  0.88714767692E+02 0.  0.
         23    2    4    4    0    0 -0.80919081407E+02  0.37431633837E+02 -0.12599833975E+04  0.12666425307E+04  0.94213129985E+02 0.  0.
          2    1    3    3  502    0  0.26923083948E+03  0.16689335688E+03 -0.21886648784E+03  0.38502100851E+03  0.00000000000E+00 0.  1.
         -2    1    3    3    0  502  0.29053359531E+03  0.78032745193E+02 -0.20970959146E+03  0.36671104711E+03  0.00000000000E+00 0. -1.
         15    1    5    5    0    0 -0.37805708783E+03 -0.24945787789E+03 -0.82589423980E+03  0.94194524658E+03  0.17770000000E+01 0. -1.
        -15    1    5    5    0    0 -0.10078826554E+03 -0.32899858023E+02 -0.13453697521E+03  0.17130099404E+03  0.17770000000E+01 0.  1.
          2    1    6    6  503    0 -0.52827430736E+02 -0.61519438367E+01 -0.10068097880E+04  0.10082135355E+04  0.00000000000E+00 0. -1.
         -2    1    6    6    0  503 -0.28091650671E+02  0.43583577674E+02 -0.25317360941E+03  0.25842899525E+03  0.00000000000E+00 0.  1.
<mgrwt>
<rscale>  0 0.64080612E+03</rscale>
<asrwt>0</asrwt>
<pdfrwt beam="1">  1        2 0.44466244E+00 0.64080612E+03</pdfrwt>
<pdfrwt beam="2">  1       -2 0.37125394E-01 0.64080612E+03</pdfrwt>
<totfact> 0.15033246E+01</totfact>
</mgrwt>
</event>
<event>
12    1  0.7781383E-008  0.5801021E+03  0.7818608E-02  0.9947570E-01
          2   -1    0    0  501    0  0.00000000000E+00  0.00000000000E+00  0.95705243960E+03  0.95705243960E+03  0.00000000000E+00 0. -1.
         -2   -1    0    0    0  501 -0.00000000000E+00 -0.00000000000E+00 -0.49987002089E+03  0.49987002089E+03  0.00000000000E+00 0.  1.
         23    2    1    2    0    0  0.50425573215E+03 -0.63164404134E+02 -0.49813944664E+02  0.52206709281E+03  0.10866938375E+03 0.  0.
    5000000    2    1    2    0    0 -0.50425573215E+03  0.63164404134E+02  0.50699636337E+03  0.93485536768E+03  0.59887032040E+03 0.  0.
         23    2    4    4    0    0 -0.50319451877E+03 -0.50295835476E+02  0.57777581792E+03  0.77323675194E+03  0.91300514768E+02 0.  0.
         23    2    4    4    0    0 -0.10612133758E+01  0.11346023961E+03 -0.70779454553E+02  0.16161861574E+03  0.90755129989E+02 0.  0.
          2    1    3    3  502    0  0.32586735224E+03 -0.37351563644E+02 -0.84048937180E+02  0.33859842647E+03  0.00000000000E+00 0. -1.
         -2    1    3    3    0  502  0.17838837990E+03 -0.25812840490E+02  0.34234992516E+02  0.18346866635E+03  0.00000000000E+00 0.  1.
         15    1    5    5    0    0 -0.15270341916E+03  0.58423518603E+01  0.12204067066E+03  0.19557492253E+03  0.17770000000E+01 0. -1.
        -15    1    5    5    0    0 -0.35049109961E+03 -0.56138187337E+02  0.45573514726E+03  0.57766182941E+03  0.17770000000E+01 0.  1.
          3    1    6    6  503    0 -0.44958943096E+02  0.54181373300E+02 -0.44621729654E+02  0.83354823101E+02  0.00000000000E+00 0. -1.
         -3    1    6    6    0  503  0.43897729720E+02  0.59278866310E+02 -0.26157724899E+02  0.78263792635E+02  0.00000000000E+00 0.  1.
<mgrwt>
<rscale>  0 0.58010211E+03</rscale>
<asrwt>0</asrwt>
<pdfrwt beam="1">  1        2 0.14723884E+00 0.58010211E+03</pdfrwt>
<pdfrwt beam="2">  1       -2 0.76903080E-01 0.58010211E+03</pdfrwt>
<totfact> 0.41899133E+01</totfact>
</mgrwt>
</event>
<event>
12    1  0.7781383E-008  0.7195995E+03  0.7818608E-02  0.9684289E-01
          2   -1    0    0  501    0  0.00000000000E+00  0.00000000000E+00  0.16872811904E+04  0.16872811904E+04  0.00000000000E+00 0. -1.
         -2   -1    0    0    0  501 -0.00000000000E+00 -0.00000000000E+00 -0.40027719117E+03  0.40027719117E+03  0.00000000000E+00 0.  1.
         23    2    1    2    0    0  0.14424251585E+03  0.67865008757E+03  0.37343610896E+03  0.79296349696E+03  0.89245365683E+02 0.  0.
    5000000    2    1    2    0    0 -0.14424251585E+03 -0.67865008757E+03  0.91356789023E+03  0.12945948846E+04  0.59999815030E+03 0.  0.
         23    2    4    4    0    0 -0.13153907796E+02 -0.55300542256E+03  0.27182654714E+03  0.62286838193E+03  0.89929565823E+02 0.  0.
         23    2    4    4    0    0 -0.13108860805E+03 -0.12564466501E+03  0.64174134309E+03  0.67172650264E+03  0.80085815917E+02 0.  0.
          4    1    3    3  502    0  0.13203274723E+02  0.18443457345E+03  0.13417257106E+03  0.22845725458E+03  0.00000000000E+00 0. -1.
         -4    1    3    3    0  502  0.13103924112E+03  0.49421551412E+03  0.23926353790E+03  0.56450624238E+03  0.00000000000E+00 0.  1.
         15    1    5    5    0    0 -0.47468203919E+02 -0.29966864639E+03  0.12587885670E+03  0.32848618282E+03  0.17770000000E+01 0.  1.
        -15    1    5    5    0    0  0.34314296123E+02 -0.25333677617E+03  0.14594769044E+03  0.29438219911E+03  0.17770000000E+01 0. -1.
          4    1    6    6  503    0 -0.46555583129E+02 -0.26225067189E+02  0.32160389716E+03  0.32601264261E+03  0.00000000000E+00 0. -1.
         -4    1    6    6    0  503 -0.84533024921E+02 -0.99419597823E+02  0.32013744593E+03  0.34571386003E+03  0.00000000000E+00 0.  1.
<mgrwt>
<rscale>  0 0.71959947E+03</rscale>
<asrwt>0</asrwt>
<pdfrwt beam="1">  1        2 0.25958172E+00 0.71959947E+03</pdfrwt>
<pdfrwt beam="2">  1       -2 0.61581107E-01 0.71959947E+03</pdfrwt>
<totfact> 0.25186363E+01</totfact>
</mgrwt>
</event>
<event>
12    1  0.7781383E-008  0.1247752E+04  0.7818608E-02  0.9072056E-01
          2   -1    0    0  501    0  0.00000000000E+00  0.00000000000E+00  0.16871978246E+04  0.16871978246E+04  0.00000000000E+00 0. -1.
         -2   -1    0    0    0  501 -0.00000000000E+00 -0.00000000000E+00 -0.10048154003E+04  0.10048154003E+04  0.00000000000E+00 0.  1.
         23    2    1    2    0    0  0.11485701844E+04  0.43405752762E+03  0.23161918108E+03  0.12529906382E+04  0.93373918092E+02 0.  0.
    5000000    2    1    2    0    0 -0.11485701844E+04 -0.43405752762E+03  0.45076324319E+03  0.14390225867E+04  0.59998258125E+03 0.  0.
         23    2    4    4    0    0 -0.10108263924E+04 -0.46048191416E+03  0.19051930567E+03  0.11306748419E+04  0.91183350538E+02 0.  0.
         23    2    4    4    0    0 -0.13774379202E+03  0.26424386540E+02  0.26024393752E+03  0.30834774481E+03  0.87634606563E+02 0.  0.
          3    1    3    3  502    0  0.39249384690E+03  0.11756025250E+03  0.11120907892E+03  0.42454598344E+03  0.00000000000E+00 0. -1.
         -3    1    3    3    0  502  0.75607633755E+03  0.31649727512E+03  0.12041010217E+03  0.82844465480E+03  0.00000000000E+00 0.  1.
         15    1    5    5    0    0 -0.45288144951E+03 -0.19700487168E+03  0.12989143869E+03  0.51067354578E+03  0.17770000000E+01 0. -1.
        -15    1    5    5    0    0 -0.55794494291E+03 -0.26347704247E+03  0.60627866985E+02  0.62000129614E+03  0.17770000000E+01 0.  1.
          4    1    6    6  503    0 -0.44217510858E+02 -0.22570502166E+02  0.38755117614E+02  0.62980750836E+02  0.00000000000E+00 0. -1.
         -4    1    6    6    0  503 -0.93526281166E+02  0.48994888707E+02  0.22148881991E+03  0.24536699397E+03  0.00000000000E+00 0.  1.
<mgrwt>
<rscale>  0 0.12477523E+04</rscale>
<asrwt>0</asrwt>
<pdfrwt beam="1">  1        2 0.25956890E+00 0.12477523E+04</pdfrwt>
<pdfrwt beam="2">  1       -2 0.15458699E+00 0.12477523E+04</pdfrwt>
<totfact> 0.26656628E+00</totfact>
</mgrwt>
</event>
<event>
12    1  0.7781383E-008  0.5110026E+03  0.7818608E-02  0.1010946E+00
         -1   -1    0    0    0  501 -0.00000000000E+00  0.00000000000E+00  0.35965688150E+03  0.35965688150E+03  0.00000000000E+00 0.  1.
          1   -1    0    0  501    0  0.00000000000E+00 -0.00000000000E+00 -0.12328997191E+04  0.12328997191E+04  0.00000000000E+00 0. -1.
         23    2    1    2    0    0  0.33111003671E+03 -0.12439704541E+03  0.11585869665E+03  0.38293106556E+03  0.90024896928E+02 0.  0.
    5000000    2    1    2    0    0 -0.33111003671E+03  0.12439704541E+03 -0.98910153422E+03  0.12096255350E+04  0.59980297486E+03 0.  0.
         23    2    4    4    0    0 -0.48726050545E+03  0.63104869398E+02 -0.78190985394E+03  0.92782951223E+03  0.89886369131E+02 0.  0.
         23    2    4    4    0    0  0.15615046875E+03  0.61292176011E+02 -0.20719168028E+03  0.28179602279E+03  0.91328562631E+02 0.  0.
          1    1    3    3  502    0  0.15284882229E+03 -0.90360398213E+02  0.22912876655E+02  0.17903285720E+03  0.00000000000E+00 0. -1.
         -1    1    3    3    0  502  0.17826121441E+03 -0.34036647197E+02  0.92945819997E+02  0.20389820836E+03  0.00000000000E+00 0.  1.
         15    1    5    5    0    0 -0.36016756624E+03  0.60921513503E+02 -0.64310872886E+03  0.73961077699E+03  0.17770000000E+01 0. -1.
        -15    1    5    5    0    0 -0.12709293922E+03  0.21833558956E+01 -0.13880112508E+03  0.18821873524E+03  0.17770000000E+01 0.  1.
          3    1    6    6  503    0  0.15193699007E+02  0.16997942482E+02 -0.91049285217E+02  0.93860273154E+02  0.00000000000E+00 0. -1.
         -3    1    6    6    0  503  0.14095676974E+03  0.44294233530E+02 -0.11614239506E+03  0.18793574963E+03  0.00000000000E+00 0.  1.
<mgrwt>
<rscale>  0 0.51100265E+03</rscale>
<asrwt>0</asrwt>
<pdfrwt beam="1">  1        1 0.18967688E+00 0.51100265E+03</pdfrwt>
<pdfrwt beam="2">  1       -1 0.55331828E-01 0.51100265E+03</pdfrwt>
<totfact> 0.35476155E+01</totfact>
</mgrwt>
</event>
<event>
12    1  0.7781383E-008  0.1618173E+04  0.7818608E-02  0.8809461E-01
         -1   -1    0    0    0  501 -0.00000000000E+00  0.00000000000E+00  0.93849646504E+03  0.93849646504E+03  0.00000000000E+00 0. -1.
          1   -1    0    0  501    0  0.00000000000E+00 -0.00000000000E+00 -0.29188659152E+04  0.29188659152E+04  0.00000000000E+00 0.  1.
         23    2    1    2    0    0 -0.14185514077E+04 -0.72166900594E+03 -0.11426207442E+04  0.19613123865E+04  0.89832410744E+02 0.  0.
    5000000    2    1    2    0    0  0.14185514077E+04  0.72166900594E+03 -0.83774870595E+03  0.18960499937E+04  0.60007369051E+03 0.  0.
         23    2    4    4    0    0  0.14001030058E+03 -0.26026567353E+02  0.34890082568E+02  0.17456039410E+03  0.94729862502E+02 0.  0.
         23    2    4    4    0    0  0.12785411071E+04  0.74769557329E+03 -0.87263878852E+03  0.17214895996E+04  0.91169915810E+02 0.  0.
          3    1    3    3  502    0 -0.11452784052E+04 -0.54254014158E+03 -0.91568171523E+03  0.15634850285E+04  0.00000000000E+00 0. -1.
         -3    1    3    3    0  502 -0.27327300245E+03 -0.17912886436E+03 -0.22693902899E+03  0.39782735803E+03  0.00000000000E+00 0.  1.
         15    1    5    5    0    0  0.51900140836E+02  0.23832370018E+02  0.45099683861E+02  0.72792483767E+02  0.17770000000E+01 0.  1.
        -15    1    5    5    0    0  0.88110159741E+02 -0.49858937372E+02 -0.10209601293E+02  0.10176791033E+03  0.17770000000E+01 0. -1.
          1    1    6    6  503    0  0.20237113712E+02  0.83682220325E-02 -0.12368048677E+02  0.23717282085E+02  0.00000000000E+00 0. -1.
         -1    1    6    6    0  503  0.12583039934E+04  0.74768720507E+03 -0.86027073984E+03  0.16977723175E+04  0.00000000000E+00 0.  1.
<mgrwt>
<rscale>  0 0.16181734E+04</rscale>
<asrwt>0</asrwt>
<pdfrwt beam="1">  1        1 0.44905629E+00 0.16181734E+04</pdfrwt>
<pdfrwt beam="2">  1       -1 0.14438407E+00 0.16181734E+04</pdfrwt>
<totfact> 0.24850981E-01</totfact>
</mgrwt>
</event>
<event>
12    1  0.7781383E-008  0.7120585E+03  0.7818608E-02  0.9696830E-01
          2   -1    0    0  501    0  0.00000000000E+00  0.00000000000E+00  0.12562599697E+04  0.12562599697E+04  0.00000000000E+00 0.  1.
         -2   -1    0    0    0  501 -0.00000000000E+00 -0.00000000000E+00 -0.52590007304E+03  0.52590007304E+03  0.00000000000E+00 0. -1.
         23    2    1    2    0    0  0.28583738745E+03 -0.61240584832E+03  0.12004874470E+03  0.69165915681E+03  0.85069107024E+02 0.  0.
    5000000    2    1    2    0    0 -0.28583738745E+03  0.61240584832E+03  0.61031115193E+03  0.10905008859E+04  0.59997378683E+03 0.  0.
         23    2    4    4    0    0  0.60092969420E+01  0.32526845002E+01  0.34919757193E+03  0.36073163001E+03  0.90231219887E+02 0.  0.
         23    2    4    4    0    0 -0.29184668439E+03  0.60915316382E+03  0.26111358000E+03  0.72976925590E+03  0.90226387583E+02 0.  0.
          2    1    3    3  502    0  0.57357026458E+02 -0.94556416294E+02 -0.95303868895E+01  0.11100257934E+03  0.00000000000E+00 0.  1.
         -2    1    3    3    0  502  0.22848036099E+03 -0.51784943203E+03  0.12957913159E+03  0.58065657746E+03  0.00000000000E+00 0. -1.
         15    1    5    5    0    0  0.30055287797E+01 -0.34224461318E+02  0.27870034968E+03  0.28081557933E+03  0.17770000000E+01 0. -1.
        -15    1    5    5    0    0  0.30037681623E+01  0.37477145819E+02  0.70497222251E+02  0.79916050678E+02  0.17770000000E+01 0.  1.
          3    1    6    6  503    0 -0.11316272542E+03  0.23160460062E+03  0.53272595084E+02  0.26321941957E+03  0.00000000000E+00 0. -1.
         -3    1    6    6    0  503 -0.17868395897E+03  0.37754856320E+03  0.20784098492E+03  0.46654983633E+03  0.00000000000E+00 0.  1.
<mgrwt>
<rscale>  0 0.71205845E+03</rscale>
<asrwt>0</asrwt>
<pdfrwt beam="1">  1        2 0.19327076E+00 0.71205845E+03</pdfrwt>
<pdfrwt beam="2">  1       -2 0.80907704E-01 0.71205845E+03</pdfrwt>
<totfact> 0.24203836E+01</totfact>
</mgrwt>
</event>
<event>
12    1  0.7781383E-008  0.1663303E+04  0.7818608E-02  0.8782576E-01
          2   -1    0    0  501    0  0.00000000000E+00  0.00000000000E+00  0.24251416648E+04  0.24251416648E+04  0.00000000000E+00 0. -1.
         -2   -1    0    0    0  501 -0.00000000000E+00 -0.00000000000E+00 -0.11943046524E+04  0.11943046524E+04  0.00000000000E+00 0.  1.
         23    2    1    2    0    0  0.87374283266E+03  0.13621290428E+04  0.92615607300E+03  0.18668432401E+04  0.92285127219E+02 0.  0.
    5000000    2    1    2    0    0 -0.87374283266E+03 -0.13621290428E+04  0.30468093943E+03  0.17526030771E+04  0.59997083600E+03 0.  0.
         23    2    4    4    0    0 -0.61851484502E+03 -0.48054024210E+03  0.24115666695E+02  0.78909526338E+03  0.92791333210E+02 0.  0.
         23    2    4    4    0    0 -0.25522798764E+03 -0.88158880075E+03  0.28056527273E+03  0.96350781373E+03  0.85383227720E+02 0.  0.
          3    1    3    3  502    0  0.32705289057E+03  0.59373412135E+03  0.38200657618E+03  0.77808278758E+03  0.00000000000E+00 0. -1.
         -3    1    3    3    0  502  0.54668994209E+03  0.76839492150E+03  0.54414949681E+03  0.10887604526E+04  0.00000000000E+00 0.  1.
         15    1    5    5    0    0 -0.22931972836E+03 -0.20154295055E+03 -0.31880171998E+02  0.30696351873E+03  0.17770000000E+01 0.  1.
        -15    1    5    5    0    0 -0.38919511666E+03 -0.27899729155E+03  0.55995838693E+02  0.48213174465E+03  0.17770000000E+01 0. -1.
          4    1    6    6  503    0 -0.13570478963E+03 -0.32353403255E+03  0.11660204307E+03  0.36971082834E+03  0.00000000000E+00 0. -1.
         -4    1    6    6    0  503 -0.11952319801E+03 -0.55805476820E+03  0.16396322966E+03  0.59379698539E+03  0.00000000000E+00 0.  1.
<mgrwt>
<rscale>  0 0.16633025E+04</rscale>
<asrwt>0</asrwt>
<pdfrwt beam="1">  1        2 0.37309872E+00 0.16633025E+04</pdfrwt>
<pdfrwt beam="2">  1       -2 0.18373918E+00 0.16633025E+04</pdfrwt>
<totfact> 0.60822277E-01</totfact>
</mgrwt>
</event>
<event>
12    1  0.7781383E-008  0.6906551E+03  0.7818608E-02  0.9733348E-01
          1   -1    0    0  501    0  0.00000000000E+00  0.00000000000E+00  0.16053735316E+04  0.16053735316E+04  0.00000000000E+00 0. -1.
         -1   -1    0    0    0  501 -0.00000000000E+00 -0.00000000000E+00 -0.47452592554E+03  0.47452592554E+03  0.00000000000E+00 0.  1.
         23    2    1    2    0    0  0.55636783491E+03 -0.31603872299E+03  0.10031960858E+04  0.11935336396E+04  0.93244410698E+02 0.  0.
    5000000    2    1    2    0    0 -0.55636783491E+03  0.31603872299E+03  0.12765152021E+03  0.88636581751E+03  0.59993650471E+03 0.  0.
         23    2    4    4    0    0 -0.14458465581E+03 -0.60481286156E+02 -0.16790596242E+03  0.24834750465E+03  0.94452962793E+02 0.  0.
         23    2    4    4    0    0 -0.41178317910E+03  0.37652000915E+03  0.29555748264E+03  0.63801831285E+03  0.91544732867E+02 0.  0.
          1    1    3    3  502    0  0.37815504135E+03 -0.22409232544E+03  0.60659642518E+03  0.74911803387E+03  0.00000000000E+00 0. -1.
         -1    1    3    3    0  502  0.17821279355E+03 -0.91946397550E+02  0.39659966064E+03  0.44441560574E+03  0.00000000000E+00 0.  1.
         15    1    5    5    0    0  0.76171504226E+00 -0.35429454519E+02 -0.33220619718E+02  0.48606519735E+02  0.17770000000E+01 0.  1.
        -15    1    5    5    0    0 -0.14534637085E+03 -0.25051831637E+02 -0.13468534271E+03  0.19974098492E+03  0.17770000000E+01 0. -1.
          3    1    6    6  503    0 -0.36913219701E+02  0.27467016020E+02  0.56209511499E+02  0.72639740781E+02  0.00000000000E+00 0.  1.
         -3    1    6    6    0  503 -0.37486995940E+03  0.34905299313E+03  0.23934797114E+03  0.56537857207E+03  0.00000000000E+00 0. -1.
<mgrwt>
<rscale>  0 0.69065514E+03</rscale>
<asrwt>0</asrwt>
<pdfrwt beam="1">  1        1 0.24698054E+00 0.69065514E+03</pdfrwt>
<pdfrwt beam="2">  1       -1 0.73003990E-01 0.69065514E+03</pdfrwt>
<totfact> 0.10979478E+01</totfact>
</mgrwt>
</event>
<event>
12    1  0.7781383E-008  0.4609075E+03  0.7818608E-02  0.1024518E+00
         -2   -1    0    0    0  501 -0.00000000000E+00  0.00000000000E+00  0.89848541228E+02  0.89848541228E+02  0.00000000000E+00 0.  1.
          2   -1    0    0  501    0  0.00000000000E+00 -0.00000000000E+00 -0.27707617952E+04  0.27707617952E+04  0.00000000000E+00 0. -1.
         23    2    1    2    0    0 -0.24053508745E+03 -0.18851520270E+03 -0.10216592608E+04  0.10702090192E+04  0.90358118933E+02 0.  0.
    5000000    2    1    2    0    0  0.24053508745E+03  0.18851520270E+03 -0.16592539932E+04  0.17904013173E+04  0.59918106856E+03 0.  0.
         23    2    4    4    0    0  0.12939413219E+03  0.36720878858E+03 -0.13338881762E+04  0.13926669043E+04  0.93157414893E+02 0.  0.
         23    2    4    4    0    0  0.11114095526E+03 -0.17869358588E+03 -0.32536581706E+03  0.39773441298E+03  0.89699714530E+02 0.  0.
          3    1    3    3  502    0 -0.38753225542E+02 -0.75268139502E+02 -0.33855421081E+03  0.34897859386E+03  0.00000000000E+00 0. -1.
         -3    1    3    3    0  502 -0.20178186191E+03 -0.11324706320E+03 -0.68310504996E+03  0.72123042531E+03  0.00000000000E+00 0.  1.
         15    1    5    5    0    0  0.11617941900E+03  0.28346293652E+03 -0.11510492435E+04  0.11911198145E+04  0.17770000000E+01 0.  1.
        -15    1    5    5    0    0  0.13214713192E+02  0.83745852058E+02 -0.18283893267E+03  0.20154708981E+03  0.17770000000E+01 0. -1.
          3    1    6    6  503    0  0.67199268451E+02 -0.14299904122E+03 -0.16861939008E+03  0.23107783576E+03  0.00000000000E+00 0. -1.
         -3    1    6    6    0  503  0.43941686810E+02 -0.35694544659E+02 -0.15674642698E+03  0.16665657722E+03  0.00000000000E+00 0.  1.
<mgrwt>
<rscale>  0 0.46090755E+03</rscale>
<asrwt>0</asrwt>
<pdfrwt beam="1">  1        2 0.42627100E+00 0.46090755E+03</pdfrwt>
<pdfrwt beam="2">  1       -2 0.13822854E-01 0.46090755E+03</pdfrwt>
<totfact> 0.10606379E+02</totfact>
</mgrwt>
</event>
<event>
12    1  0.7781383E-008  0.1126203E+04  0.7818608E-02  0.9180023E-01
          1   -1    0    0  501    0  0.00000000000E+00  0.00000000000E+00  0.10913750462E+04  0.10913750462E+04  0.00000000000E+00 0. -1.
         -1   -1    0    0    0  501 -0.00000000000E+00 -0.00000000000E+00 -0.15033709263E+04  0.15033709263E+04  0.00000000000E+00 0.  1.
         23    2    1    2    0    0  0.71670725895E+03 -0.85564263423E+03  0.27568475012E+03  0.11529143403E+04  0.86114935517E+02 0.  0.
    5000000    2    1    2    0    0 -0.71670725895E+03  0.85564263423E+03 -0.68768063020E+03  0.14418316323E+04  0.60015014295E+03 0.  0.
         23    2    4    4    0    0 -0.46071002038E+03  0.66323607417E+03 -0.17637277886E+03  0.83165362767E+03  0.91676530939E+02 0.  0.
         23    2    4    4    0    0 -0.25599723857E+03  0.19240656006E+03 -0.51130785134E+03  0.61017800459E+03  0.91250248952E+02 0.  0.
          4    1    3    3  502    0  0.28505137086E+03 -0.40568838879E+03  0.13056387054E+03  0.51272241722E+03  0.00000000000E+00 0. -1.
         -4    1    3    3    0  502  0.43165588809E+03 -0.44995424544E+03  0.14512087958E+03  0.64019192310E+03  0.00000000000E+00 0.  1.
         15    1    5    5    0    0 -0.14866453660E+03  0.23472795965E+03 -0.10385620599E+03  0.29662708699E+03  0.17770000000E+01 0. -1.
        -15    1    5    5    0    0 -0.31204548379E+03  0.42850811452E+03 -0.72516572870E+02  0.53502654068E+03  0.17770000000E+01 0.  1.
          4    1    6    6  503    0 -0.27597251527E+02  0.46557868846E+02 -0.14312293495E+03  0.15301443707E+03  0.00000000000E+00 0. -1.
         -4    1    6    6    0  503 -0.22839998704E+03  0.14584869121E+03 -0.36818491639E+03  0.45716356752E+03  0.00000000000E+00 0.  1.
<mgrwt>
<rscale>  0 0.11262027E+04</rscale>
<asrwt>0</asrwt>
<pdfrwt beam="1">  1        1 0.16790385E+00 0.11262027E+04</pdfrwt>
<pdfrwt beam="2">  1       -1 0.23128783E+00 0.11262027E+04</pdfrwt>
<totfact> 0.11791905E+00</totfact>
</mgrwt>
</event>
<event>
12    1  0.7781383E-008  0.4213841E+03  0.7818608E-02  0.1036617E+00
         -1   -1    0    0    0  501 -0.00000000000E+00  0.00000000000E+00  0.16186410383E+03  0.16186410383E+03  0.00000000000E+00 0.  1.
          1   -1    0    0  501    0  0.00000000000E+00 -0.00000000000E+00 -0.16235164046E+04  0.16235164046E+04  0.00000000000E+00 0. -1.
         23    2    1    2    0    0  0.53019281698E+02 -0.31291344087E+03 -0.63580513452E+03  0.71648279318E+03  0.91507147942E+02 0.  0.
    5000000    2    1    2    0    0 -0.53019281698E+02  0.31291344087E+03 -0.82584716627E+03  0.10688977153E+04  0.59982740683E+03 0.  0.
         23    2    4    4    0    0  0.69541672880E+02  0.36308231889E+03 -0.21436026198E+03  0.43695637147E+03  0.91190646952E+02 0.  0.
         23    2    4    4    0    0 -0.12256095458E+03 -0.50168878020E+02 -0.61148690428E+03  0.63194134381E+03  0.88856761135E+02 0.  0.
          3    1    3    3  502    0  0.77936230942E+02 -0.24469817118E+03 -0.47315478086E+03  0.53835554954E+03  0.00000000000E+00 0. -1.
         -3    1    3    3    0  502 -0.24916949243E+02 -0.68215269692E+02 -0.16265035366E+03  0.17812724363E+03  0.00000000000E+00 0.  1.
         15    1    5    5    0    0 -0.19773253976E+02  0.12291176148E+03 -0.68473881650E+02  0.14209191701E+03  0.17770000000E+01 0. -1.
        -15    1    5    5    0    0  0.89314926856E+02  0.24017055741E+03 -0.14588638034E+03  0.29486445446E+03  0.17770000000E+01 0.  1.
          2    1    6    6  503    0 -0.54027282538E+02 -0.25531377505E+02 -0.10990246324E+03  0.12509736177E+03  0.00000000000E+00 0. -1.
         -2    1    6    6    0  503 -0.68533672041E+02 -0.24637500515E+02 -0.50158444104E+03  0.50684398204E+03  0.00000000000E+00 0.  1.
<mgrwt>
<rscale>  0 0.42138415E+03</rscale>
<asrwt>0</asrwt>
<pdfrwt beam="1">  1        1 0.24977176E+00 0.42138415E+03</pdfrwt>
<pdfrwt beam="2">  1       -1 0.24902170E-01 0.42138415E+03</pdfrwt>
<totfact> 0.81204902E+01</totfact>
</mgrwt>
</event>
<event>
12    1  0.7781383E-008  0.4380816E+03  0.7818608E-02  0.1031337E+00
          2   -1    0    0  501    0  0.00000000000E+00  0.00000000000E+00  0.10325290391E+04  0.10325290391E+04  0.00000000000E+00 0. -1.
         -2   -1    0    0    0  501 -0.00000000000E+00 -0.00000000000E+00 -0.21589601212E+03  0.21589601212E+03  0.00000000000E+00 0.  1.
         23    2    1    2    0    0  0.14871254644E+03  0.19273320283E+03  0.93946515374E+02  0.27799703282E+03  0.95890007633E+02 0.  0.
    5000000    2    1    2    0    0 -0.14871254644E+03 -0.19273320283E+03  0.72268651156E+03  0.97042801836E+03  0.60016100829E+03 0.  0.
         23    2    4    4    0    0  0.18541766119E+03 -0.21834464538E+03  0.33830934842E+03  0.45220585289E+03  0.89346655832E+02 0.  0.
         23    2    4    4    0    0 -0.33413020763E+03  0.25611442549E+02  0.38437716315E+03  0.51822216547E+03  0.92246775514E+02 0.  0.
          2    1    3    3  502    0  0.12312419798E+03  0.13972373782E+03  0.11088818718E+03  0.21674519855E+03  0.00000000000E+00 0. -1.
         -2    1    3    3    0  502  0.25588348464E+02  0.53009465017E+02 -0.16941671807E+02  0.61251834275E+02  0.00000000000E+00 0.  1.
         15    1    5    5    0    0  0.10022827370E+03 -0.12006083936E+03  0.25030862845E+03  0.29515738040E+03  0.17770000000E+01 0.  1.
        -15    1    5    5    0    0  0.85189387496E+02 -0.98283806020E+02  0.88000719966E+02  0.15704847249E+03  0.17770000000E+01 0. -1.
          4    1    6    6  503    0 -0.55880672410E+02  0.35421372210E+02  0.48969737026E+02  0.82312564671E+02  0.00000000000E+00 0.  1.
         -4    1    6    6    0  503 -0.27824953522E+03 -0.98099296608E+01  0.33540742612E+03  0.43590960080E+03  0.00000000000E+00 0. -1.
<mgrwt>
<rscale>  0 0.43808157E+03</rscale>
<asrwt>0</asrwt>
<pdfrwt beam="1">  1        2 0.15885062E+00 0.43808157E+03</pdfrwt>
<pdfrwt beam="2">  1       -2 0.33214772E-01 0.43808157E+03</pdfrwt>
<totfact> 0.21021050E+02</totfact>
</mgrwt>
</event>
<event>
12    1  0.1058716E-007  0.1039998E+04  0.7818608E-02  0.9265732E-01
         -1   -1    0    0    0  501 -0.00000000000E+00  0.00000000000E+00  0.63048014740E+03  0.63048014740E+03  0.00000000000E+00 0.  1.
          1   -1    0    0  501    0  0.00000000000E+00 -0.00000000000E+00 -0.19009946719E+04  0.19009946719E+04  0.00000000000E+00 0. -1.
         23    2    1    2    0    0  0.44438610333E+03  0.89178714993E+03 -0.40086877518E+03  0.10792170125E+04  0.10606722131E+03 0.  0.
    5000000    2    1    2    0    0 -0.44438610333E+03 -0.89178714993E+03 -0.86964574928E+03  0.14522578068E+04  0.60000473212E+03 0.  0.
         23    2    4    4    0    0 -0.49561150722E+03 -0.62159722855E+03 -0.84144930825E+03  0.11612859882E+04  0.92381423500E+02 0.  0.
         23    2    4    4    0    0  0.51225403888E+02 -0.27018992138E+03 -0.28196441030E+02  0.29097181860E+03  0.90790551915E+02 0.  0.
          2    1    3    3  502    0  0.27913535772E+03  0.45190553185E+03 -0.23604372398E+03  0.58125020195E+03  0.00000000000E+00 0. -1.
         -2    1    3    3    0  502  0.16525074561E+03  0.43988161808E+03 -0.16482505121E+03  0.49796681050E+03  0.00000000000E+00 0.  1.
         15    1    5    5    0    0 -0.27246676976E+03 -0.38469707637E+03 -0.55026824334E+03  0.72458835109E+03  0.17770000000E+01 0. -1.
        -15    1    5    5    0    0 -0.22314473746E+03 -0.23690015218E+03 -0.29118106491E+03  0.43669763710E+03  0.17770000000E+01 0.  1.
          4    1    6    6  503    0  0.48577730832E+02 -0.93581602562E+02  0.21237811456E+02  0.10755629645E+03  0.00000000000E+00 0. -1.
         -4    1    6    6    0  503  0.26476730560E+01 -0.17660831881E+03 -0.49434252486E+02  0.18341552215E+03  0.00000000000E+00 0.  1.
<mgrwt>
<rscale>  0 0.10399977E+04</rscale>
<asrwt>0</asrwt>
<pdfrwt beam="1">  1        1 0.29246072E+00 0.10399977E+04</pdfrwt>
<pdfrwt beam="2">  1       -1 0.96996947E-01 0.10399977E+04</pdfrwt>
<totfact> 0.35704418E+00</totfact>
</mgrwt>
</event>
<event>
12    1  0.7781383E-008  0.7322005E+03  0.7818608E-02  0.9663696E-01
          2   -1    0    0  501    0  0.00000000000E+00  0.00000000000E+00  0.22088271962E+04  0.22088271962E+04  0.00000000000E+00 0. -1.
         -2   -1    0    0    0  501 -0.00000000000E+00 -0.00000000000E+00 -0.25049783931E+03  0.25049783931E+03  0.00000000000E+00 0.  1.
         23    2    1    2    0    0  0.36579165490E+03 -0.49526140750E+03  0.92797322931E+03  0.11173647891E+04  0.91007478587E+02 0.  0.
    5000000    2    1    2    0    0 -0.36579165490E+03  0.49526140750E+03  0.10303561276E+04  0.13419602464E+04  0.60011345312E+03 0.  0.
         23    2    4    4    0    0 -0.44520530432E+03  0.56176290913E+03  0.84722003659E+03  0.11134834265E+04  0.90984732680E+02 0.  0.
         23    2    4    4    0    0  0.79413649411E+02 -0.66501501634E+02  0.18313609098E+03  0.22847681987E+03  0.89072172802E+02 0.  0.
          2    1    3    3  502    0  0.45141565759E+02 -0.24021371272E+02  0.58277391568E+02  0.77530907417E+02  0.00000000000E+00 0. -1.
         -2    1    3    3    0  502  0.32065008915E+03 -0.47124003622E+03  0.86969583774E+03  0.10398338817E+04  0.00000000000E+00 0.  1.
         15    1    5    5    0    0 -0.28931412118E+02  0.82365620438E+02  0.92001274223E+02  0.12684050703E+03  0.17770000000E+01 0. -1.
        -15    1    5    5    0    0 -0.41627389220E+03  0.47939728869E+03  0.75521876237E+03  0.98664291945E+03  0.17770000000E+01 0.  1.
          4    1    6    6  503    0  0.80384959905E+02 -0.31969237489E+02  0.73466589776E+02  0.11349499433E+03  0.00000000000E+00 0. -1.
         -4    1    6    6    0  503 -0.97131049419E+00 -0.34532264146E+02  0.10966950120E+03  0.11498182554E+03  0.00000000000E+00 0.  1.
<mgrwt>
<rscale>  0 0.73220053E+03</rscale>
<asrwt>0</asrwt>
<pdfrwt beam="1">  1        2 0.33981956E+00 0.73220053E+03</pdfrwt>
<pdfrwt beam="2">  1       -2 0.38538131E-01 0.73220053E+03</pdfrwt>
<totfact> 0.33728462E+01</totfact>
</mgrwt>
</event>
<event>
12    1  0.7781383E-008  0.5823297E+03  0.7818608E-02  0.9942760E-01
         -1   -1    0    0    0  501 -0.00000000000E+00  0.00000000000E+00  0.65810017060E+03  0.65810017060E+03  0.00000000000E+00 0.  1.
          1   -1    0    0  501    0  0.00000000000E+00 -0.00000000000E+00 -0.11942711840E+04  0.11942711840E+04  0.00000000000E+00 0. -1.
         23    2    1    2    0    0 -0.31138832829E+03  0.45000986473E+03 -0.82179569215E+03  0.99154460243E+03  0.91328909013E+02 0.  0.
    5000000    2    1    2    0    0  0.31138832829E+03 -0.45000986473E+03  0.28562467873E+03  0.86082675218E+03  0.59997472516E+03 0.  0.
         23    2    4    4    0    0  0.28395169597E+03 -0.44387776011E+03  0.43067633020E+03  0.68670524071E+03  0.91792998942E+02 0.  0.
         23    2    4    4    0    0  0.27436632319E+02 -0.61321046173E+01 -0.14505165147E+03  0.17412151148E+03  0.92130058426E+02 0.  0.
          4    1    3    3  502    0 -0.66347109464E+02  0.10738923122E+03 -0.26342192486E+03  0.29210528310E+03  0.00000000000E+00 0. -1.
         -4    1    3    3    0  502 -0.24504121882E+03  0.34262063351E+03 -0.55837376728E+03  0.69943931933E+03  0.00000000000E+00 0.  1.
         15    1    5    5    0    0  0.23506357309E+03 -0.41722943918E+03  0.37901009695E+03  0.61072669798E+03  0.17770000000E+01 0.  1.
        -15    1    5    5    0    0  0.48888122881E+02 -0.26648320935E+02  0.51666233245E+02  0.75978542723E+02  0.17770000000E+01 0. -1.
          4    1    6    6  503    0 -0.27384982700E+02  0.40562672770E+00 -0.97444642130E+02  0.10122035413E+03  0.00000000000E+00 0.  1.
         -4    1    6    6    0  503  0.54821615019E+02 -0.65377313451E+01 -0.47607009338E+02  0.72901157347E+02  0.00000000000E+00 0. -1.
<mgrwt>
<rscale>  0 0.58232968E+03</rscale>
<asrwt>0</asrwt>
<pdfrwt beam="1">  1        1 0.18373403E+00 0.58232968E+03</pdfrwt>
<pdfrwt beam="2">  1       -1 0.10124618E+00 0.58232968E+03</pdfrwt>
<totfact> 0.10622706E+01</totfact>
</mgrwt>
</event>
<event>
12    1  0.7781383E-008  0.7231195E+03  0.7818608E-02  0.9678492E-01
          2   -1    0    0  501    0  0.00000000000E+00  0.00000000000E+00  0.21019471611E+04  0.21019471611E+04  0.00000000000E+00 0.  1.
         -2   -1    0    0    0  501 -0.00000000000E+00 -0.00000000000E+00 -0.42147301315E+03  0.42147301315E+03  0.00000000000E+00 0. -1.
         23    2    1    2    0    0 -0.47205113420E+03 -0.37687871448E+03  0.15449267624E+04  0.16612768257E+04  0.90399954971E+02 0.  0.
    5000000    2    1    2    0    0  0.47205113420E+03  0.37687871448E+03  0.13554738562E+03  0.86214334858E+03  0.60004018283E+03 0.  0.
         23    2    4    4    0    0 -0.16990338876E+02  0.33782070953E+03  0.30740940383E+02  0.35168295510E+03  0.91238106577E+02 0.  0.
         23    2    4    4    0    0  0.48904147308E+03  0.39058004958E+02  0.10480644524E+03  0.51046039348E+03  0.94330971592E+02 0.  0.
          2    1    3    3  502    0 -0.27427842955E+03 -0.19250418468E+03  0.96211397609E+03  0.10187982239E+04  0.00000000000E+00 0. -1.
         -2    1    3    3    0  502 -0.19777270466E+03 -0.18437452980E+03  0.58281278629E+03  0.64247860183E+03  0.00000000000E+00 0.  1.
         15    1    5    5    0    0 -0.47512802524E+02  0.27763375150E+03  0.36020789792E+02  0.28396940223E+03  0.17770000000E+01 0. -1.
        -15    1    5    5    0    0  0.30522463648E+02  0.60186958024E+02 -0.52798494092E+01  0.67713552869E+02  0.17770000000E+01 0.  1.
          4    1    6    6  503    0  0.10510474171E+03  0.21239746248E+02  0.61666974214E+02  0.12369700586E+03  0.00000000000E+00 0. -1.
         -4    1    6    6    0  503  0.38393673137E+03  0.17818258710E+02  0.43139471022E+02  0.38676338761E+03  0.00000000000E+00 0.  1.
<mgrwt>
<rscale>  0 0.72311951E+03</rscale>
<asrwt>0</asrwt>
<pdfrwt beam="1">  1        2 0.32337648E+00 0.72311951E+03</pdfrwt>
<pdfrwt beam="2">  1       -2 0.64842003E-01 0.72311951E+03</pdfrwt>
<totfact> 0.13398264E+01</totfact>
</mgrwt>
</event>
<event>
12    1  0.7781383E-008  0.1057024E+04  0.7818608E-02  0.9248122E-01
          2   -1    0    0  501    0  0.00000000000E+00  0.00000000000E+00  0.20632005200E+04  0.20632005200E+04  0.00000000000E+00 0.  1.
         -2   -1    0    0    0  501 -0.00000000000E+00 -0.00000000000E+00 -0.59907900047E+03  0.59907900047E+03  0.00000000000E+00 0. -1.
         23    2    1    2    0    0 -0.77122001602E+03  0.59595629459E+03  0.28634858792E+03  0.10199775605E+04  0.91730539461E+02 0.  0.
    5000000    2    1    2    0    0  0.77122001602E+03 -0.59595629459E+03  0.11777729316E+04  0.16423019600E+04  0.60005202378E+03 0.  0.
         23    2    4    4    0    0  0.27378269224E+03 -0.56882470269E+03  0.61492532004E+03  0.88598319528E+03  0.91184253733E+02 0.  0.
         23    2    4    4    0    0  0.49743732378E+03 -0.27131591898E+02  0.56284761153E+03  0.75631876470E+03  0.83908436192E+02 0.  0.
          3    1    3    3  502    0 -0.37334560748E+03  0.34594436018E+03  0.15498214768E+03  0.53205630253E+03  0.00000000000E+00 0. -1.
         -3    1    3    3    0  502 -0.39787440854E+03  0.25001193442E+03  0.13136644024E+03  0.48792125793E+03  0.00000000000E+00 0.  1.
         15    1    5    5    0    0  0.51209956306E+01 -0.12873292944E+02 -0.79153677015E+00  0.13990372652E+02  0.17770000000E+01 0. -1.
        -15    1    5    5    0    0  0.26866169661E+03 -0.55595140975E+03  0.61571685681E+03  0.87199282263E+03  0.17770000000E+01 0.  1.
          3    1    6    6  503    0  0.36534664177E+02 -0.22291497557E+02  0.33012562081E+02  0.54051103643E+02  0.00000000000E+00 0. -1.
         -3    1    6    6    0  503  0.46090265960E+03 -0.48400943411E+01  0.52983504945E+03  0.70226766106E+03  0.00000000000E+00 0.  1.
<mgrwt>
<rscale>  0 0.10570241E+04</rscale>
<asrwt>0</asrwt>
<pdfrwt beam="1">  1        2 0.31741546E+00 0.10570241E+04</pdfrwt>
<pdfrwt beam="2">  1       -2 0.92166001E-01 0.10570241E+04</pdfrwt>
<totfact> 0.61330406E+00</totfact>
</mgrwt>
</event>
<event>
12    1  0.7781383E-008  0.9682562E+03  0.7818608E-02  0.9344063E-01
          1   -1    0    0  501    0  0.00000000000E+00  0.00000000000E+00  0.99246337881E+03  0.99246337881E+03  0.00000000000E+00 0. -1.
         -1   -1    0    0    0  501 -0.00000000000E+00 -0.00000000000E+00 -0.14007987432E+04  0.14007987432E+04  0.00000000000E+00 0.  1.
         23    2    1    2    0    0 -0.46132461700E+03  0.78435538108E+03 -0.81980881487E+03  0.12280779379E+04  0.89750557377E+02 0.  0.
    5000000    2    1    2    0    0  0.46132461700E+03 -0.78435538108E+03  0.41147345049E+03  0.11651841841E+04  0.60025829135E+03 0.  0.
         23    2    4    4    0    0  0.38038854642E+02  0.41651132624E+02 -0.56299669001E+02  0.12166878653E+03  0.91934050134E+02 0.  0.
         23    2    4    4    0    0  0.42328576235E+03 -0.82600651370E+03  0.46777311949E+03  0.10435153976E+04  0.93032770347E+02 0.  0.
          2    1    3    3  502    0 -0.24891451943E+03  0.48135011148E+03 -0.53074777549E+03  0.75851800835E+03  0.00000000000E+00 0.  1.
         -2    1    3    3    0  502 -0.21241009757E+03  0.30300526961E+03 -0.28906103938E+03  0.46955992955E+03  0.00000000000E+00 0. -1.
         15    1    5    5    0    0  0.74444242330E+01 -0.23129391272E+02  0.77378545909E+01  0.25562087463E+02  0.17770000000E+01 0. -1.
        -15    1    5    5    0    0  0.30594430409E+02  0.64780523896E+02 -0.64037523591E+02  0.96106699064E+02  0.17770000000E+01 0.  1.
          1    1    6    6  503    0  0.11397894151E+03 -0.19682810382E+03  0.72787745225E+02  0.23881071462E+03  0.00000000000E+00 0. -1.
         -1    1    6    6    0  503  0.30930682084E+03 -0.62917840988E+03  0.39498537427E+03  0.80470468295E+03  0.00000000000E+00 0.  1.
<mgrwt>
<rscale>  0 0.96825616E+03</rscale>
<asrwt>0</asrwt>
<pdfrwt beam="1">  1        1 0.15268667E+00 0.96825616E+03</pdfrwt>
<pdfrwt beam="2">  1       -1 0.21550750E+00 0.96825616E+03</pdfrwt>
<totfact> 0.18269941E+00</totfact>
</mgrwt>
</event>
<event>
12    1  0.7781383E-008  0.5649760E+03  0.7818608E-02  0.9980858E-01
         -2   -1    0    0    0  501 -0.00000000000E+00  0.00000000000E+00  0.74300658771E+03  0.74300658771E+03  0.00000000000E+00 0. -1.
          2   -1    0    0  501    0  0.00000000000E+00 -0.00000000000E+00 -0.55615392339E+03  0.55615392339E+03  0.00000000000E+00 0.  1.
         23    2    1    2    0    0  0.40216300940E+03  0.19182058973E+03  0.29785481829E+03  0.54375529975E+03  0.91772046182E+02 0.  0.
    5000000    2    1    2    0    0 -0.40216300940E+03 -0.19182058973E+03 -0.11100215396E+03  0.75540521135E+03  0.59982108197E+03 0.  0.
         23    2    4    4    0    0  0.27373604958E+00  0.15248721416E+03 -0.12720710592E+03  0.21749138570E+03  0.88704169255E+02 0.  0.
         23    2    4    4    0    0 -0.40243674545E+03 -0.34430780389E+03  0.16204951954E+02  0.53791382565E+03  0.92657894729E+02 0.  0.
          1    1    3    3  502    0  0.80748695006E+02  0.23983652798E+02  0.19050818131E+02  0.86362613544E+02  0.00000000000E+00 0. -1.
         -1    1    3    3    0  502  0.32141431439E+03  0.16783693693E+03  0.27880400015E+03  0.45739268621E+03  0.00000000000E+00 0.  1.
         15    1    5    5    0    0 -0.38665800654E+01  0.55733196643E+02 -0.10372472837E+03  0.11782663813E+03  0.17770000000E+01 0.  1.
        -15    1    5    5    0    0  0.41403161149E+01  0.96754017514E+02 -0.23482377549E+02  0.99664747564E+02  0.17770000000E+01 0. -1.
          1    1    6    6  503    0 -0.29509183702E+03 -0.23578188248E+03  0.51571800208E+02  0.38122426334E+03  0.00000000000E+00 0. -1.
         -1    1    6    6    0  503 -0.10734490843E+03 -0.10852592140E+03 -0.35366848254E+02  0.15668956231E+03  0.00000000000E+00 0.  1.
<mgrwt>
<rscale>  0 0.56497604E+03</rscale>
<asrwt>0</asrwt>
<pdfrwt beam="1">  1        2 0.85562142E-01 0.56497604E+03</pdfrwt>
<pdfrwt beam="2">  1       -2 0.11430871E+00 0.56497604E+03</pdfrwt>
<totfact> 0.33460224E+01</totfact>
</mgrwt>
</event>
<event>
12    1  0.7781383E-008  0.4411927E+03  0.7818608E-02  0.1030381E+00
         -2   -1    0    0    0  501 -0.00000000000E+00  0.00000000000E+00  0.32617730079E+03  0.32617730079E+03  0.00000000000E+00 0. -1.
          2   -1    0    0  501    0  0.00000000000E+00 -0.00000000000E+00 -0.71391137887E+03  0.71391137887E+03  0.00000000000E+00 0.  1.
         23    2    1    2    0    0 -0.70277454724E+02  0.23761240940E+03 -0.27523513009E+03  0.38123023548E+03  0.90462908785E+02 0.  0.
    5000000    2    1    2    0    0  0.70277454724E+02 -0.23761240940E+03 -0.11249894800E+03  0.65885844418E+03  0.60003321444E+03 0.  0.
         23    2    4    4    0    0 -0.13532347040E+03 -0.34169815680E+03  0.21150628286E+02  0.37777586134E+03  0.84836197092E+02 0.  0.
         23    2    4    4    0    0  0.20560092513E+03  0.10408574740E+03 -0.13364957629E+03  0.28108258284E+03  0.89663961033E+02 0.  0.
          3    1    3    3  502    0  0.65367368554E+01  0.13287874305E+03 -0.12386341912E+03  0.18177358411E+03  0.00000000000E+00 0. -1.
         -3    1    3    3    0  502 -0.76814191579E+02  0.10473366635E+03 -0.15137171097E+03  0.19945665137E+03  0.00000000000E+00 0.  1.
         15    1    5    5    0    0 -0.64792828216E+02 -0.25659022872E+03  0.32532646514E+02  0.26664243263E+03  0.17770000000E+01 0. -1.
        -15    1    5    5    0    0 -0.70530642188E+02 -0.85107928077E+02 -0.11382018227E+02  0.11113342871E+03  0.17770000000E+01 0.  1.
          3    1    6    6  503    0  0.16143320333E+03  0.39799596493E+02 -0.11081652422E+03  0.19981238465E+03  0.00000000000E+00 0. -1.
         -3    1    6    6    0  503  0.44167721800E+02  0.64286150907E+02 -0.22833052064E+02  0.81270198191E+02  0.00000000000E+00 0.  1.
<mgrwt>
<rscale>  0 0.44119269E+03</rscale>
<asrwt>0</asrwt>
<pdfrwt beam="1">  1        2 0.10983252E+00 0.44119269E+03</pdfrwt>
<pdfrwt beam="2">  1       -2 0.50181124E-01 0.44119269E+03</pdfrwt>
<totfact> 0.15493687E+02</totfact>
</mgrwt>
</event>
<event>
12    1  0.7781383E-008  0.4476412E+03  0.7818608E-02  0.1028428E+00
         -2   -1    0    0    0  501 -0.00000000000E+00  0.00000000000E+00  0.14453432903E+03  0.14453432903E+03  0.00000000000E+00 0.  1.
          2   -1    0    0  501    0  0.00000000000E+00 -0.00000000000E+00 -0.15147758543E+04  0.15147758543E+04  0.00000000000E+00 0. -1.
         23    2    1    2    0    0 -0.22920454726E+03  0.11781489360E+03 -0.29421822310E+03  0.40063901196E+03  0.86788141259E+02 0.  0.
    5000000    2    1    2    0    0  0.22920454726E+03 -0.11781489360E+03 -0.10760233022E+04  0.12586711714E+04  0.60000991422E+03 0.  0.
         23    2    4    4    0    0  0.14312177818E+02 -0.31800815931E+03 -0.43044919938E+03  0.54346640665E+03  0.93462260264E+02 0.  0.
         23    2    4    4    0    0  0.21489236944E+03  0.20019326571E+03 -0.64557410279E+03  0.71520476470E+03  0.92172985097E+02 0.  0.
          4    1    3    3  502    0 -0.22301397120E+03  0.96226594987E+02 -0.23780868684E+03  0.33992316848E+03  0.00000000000E+00 0. -1.
         -4    1    3    3    0  502 -0.61905760649E+01  0.21588298612E+02 -0.56409536260E+02  0.60715843484E+02  0.00000000000E+00 0.  1.
         15    1    5    5    0    0  0.34931006478E+02 -0.30532041132E+03 -0.40334284623E+03  0.50707922273E+03  0.17770000000E+01 0. -1.
        -15    1    5    5    0    0 -0.20618828661E+02 -0.12687747987E+02 -0.27106353144E+02  0.36387183926E+02  0.17770000000E+01 0.  1.
          1    1    6    6  503    0  0.52444999288E+02  0.82436433332E+02 -0.30114208936E+03  0.31659564348E+03  0.00000000000E+00 0. -1.
         -1    1    6    6    0  503  0.16244737016E+03  0.11775683238E+03 -0.34443201343E+03  0.39860912122E+03  0.00000000000E+00 0.  1.
<mgrwt>
<rscale>  0 0.44764119E+03</rscale>
<asrwt>0</asrwt>
<pdfrwt beam="1">  1        2 0.23304243E+00 0.44764119E+03</pdfrwt>
<pdfrwt beam="2">  1       -2 0.22236051E-01 0.44764119E+03</pdfrwt>
<totfact> 0.22987402E+02</totfact>
</mgrwt>
</event>
<event>
12    1  0.9960957E-008  0.1207014E+04  0.7818608E-02  0.9106739E-01
         -1   -1    0    0    0  501 -0.00000000000E+00  0.00000000000E+00  0.10935427927E+04  0.10935427927E+04  0.00000000000E+00 0.  1.
          1   -1    0    0  501    0  0.00000000000E+00 -0.00000000000E+00 -0.15797561325E+04  0.15797561325E+04  0.00000000000E+00 0. -1.
         23    2    1    2    0    0  0.11355928679E+04  0.44936929577E+01 -0.74743004161E+03  0.13625365494E+04  0.90900091252E+02 0.  0.
    5000000    2    1    2    0    0 -0.11355928679E+04 -0.44936929577E+01  0.26121670176E+03  0.13107623757E+04  0.60022702833E+03 0.  0.
         23    2    4    4    0    0 -0.46196252350E+03 -0.28067161352E+03  0.71164352533E+02  0.55272459623E+03  0.90852553300E+02 0.  0.
         23    2    4    4    0    0 -0.67363034438E+03  0.27617792057E+03  0.19005234923E+03  0.75803777952E+03  0.91920047127E+02 0.  0.
          2    1    3    3  502    0  0.29413055300E+03  0.10944474187E+02 -0.24098313728E+03  0.38040167741E+03  0.00000000000E+00 0. -1.
         -2    1    3    3    0  502  0.84146231488E+03 -0.64507812293E+01 -0.50644690433E+03  0.98213487203E+03  0.00000000000E+00 0.  1.
         15    1    5    5    0    0 -0.26605630092E+03 -0.12149095675E+03  0.67936017881E+02  0.30027398836E+03  0.17770000000E+01 0. -1.
        -15    1    5    5    0    0 -0.19590622259E+03 -0.15918065677E+03  0.32283346523E+01  0.25245060787E+03  0.17770000000E+01 0.  1.
          2    1    6    6  503    0 -0.33680135789E+03  0.90839029575E+02  0.10489558625E+03  0.36426634209E+03  0.00000000000E+00 0. -1.
         -2    1    6    6    0  503 -0.33682898649E+03  0.18533889099E+03  0.85156762986E+02  0.39377143743E+03  0.00000000000E+00 0.  1.
<mgrwt>
<rscale>  0 0.12070143E+04</rscale>
<asrwt>0</asrwt>
<pdfrwt beam="1">  1        1 0.24303941E+00 0.12070143E+04</pdfrwt>
<pdfrwt beam="2">  1       -1 0.16823735E+00 0.12070143E+04</pdfrwt>
<totfact> 0.14311646E+00</totfact>
</mgrwt>
</event>
<event>
12    1  0.7781383E-008  0.5710560E+03  0.7818608E-02  0.9967344E-01
          1   -1    0    0  501    0  0.00000000000E+00  0.00000000000E+00  0.13131281776E+04  0.13131281776E+04  0.00000000000E+00 0. -1.
         -1   -1    0    0    0  501 -0.00000000000E+00 -0.00000000000E+00 -0.38957112486E+03  0.38957112486E+03  0.00000000000E+00 0.  1.
         23    2    1    2    0    0 -0.52856988608E+03 -0.18877696291E+03  0.57503427187E+03  0.80998539863E+03  0.10192676771E+03 0.  0.
    5000000    2    1    2    0    0  0.52856988608E+03  0.18877696291E+03  0.34852278091E+03  0.89271390386E+03  0.60037248366E+03 0.  0.
         23    2    4    4    0    0  0.26438226515E+03  0.12873891949E+03 -0.13057126666E+03  0.33514890700E+03  0.93830925968E+02 0.  0.
         23    2    4    4    0    0  0.26418762094E+03  0.60038043420E+02  0.47909404756E+03  0.55756499686E+03  0.89151296134E+02 0.  0.
          4    1    3    3  502    0 -0.41917636563E+03 -0.17942250171E+03  0.50176823905E+03  0.67799161156E+03  0.00000000000E+00 0.  1.
         -4    1    3    3    0  502 -0.10939352045E+03 -0.93544612017E+01  0.73266032813E+02  0.13199378707E+03  0.00000000000E+00 0. -1.
         15    1    5    5    0    0  0.14453552928E+03  0.11160361415E+03 -0.48736347483E+02  0.18900866438E+03  0.17770000000E+01 0. -1.
        -15    1    5    5    0    0  0.11984673586E+03  0.17135305345E+02 -0.81834919174E+02  0.14614024262E+03  0.17770000000E+01 0.  1.
          2    1    6    6  503    0  0.25363002359E+03  0.63665051949E+02  0.40134769963E+03  0.47902129776E+03  0.00000000000E+00 0. -1.
         -2    1    6    6    0  503  0.10557597349E+02 -0.36270085285E+01  0.77746347932E+02  0.78543699107E+02  0.00000000000E+00 0.  1.
<mgrwt>
<rscale>  0 0.57105605E+03</rscale>
<asrwt>0</asrwt>
<pdfrwt beam="1">  1        1 0.20201972E+00 0.57105605E+03</pdfrwt>
<pdfrwt beam="2">  1       -1 0.59934020E-01 0.57105605E+03</pdfrwt>
<totfact> 0.26412405E+01</totfact>
</mgrwt>
</event>
<event>
12    1  0.7781383E-008  0.9848681E+03  0.7818608E-02  0.9325299E-01
         -2   -1    0    0    0  501 -0.00000000000E+00  0.00000000000E+00  0.91032869728E+03  0.91032869728E+03  0.00000000000E+00 0.  1.
          2   -1    0    0  501    0  0.00000000000E+00 -0.00000000000E+00 -0.13441030713E+04  0.13441030713E+04  0.00000000000E+00 0. -1.
         23    2    1    2    0    0 -0.89970688314E+03  0.70123710208E+02 -0.69135340359E+03  0.11405192052E+04  0.91786264647E+02 0.  0.
    5000000    2    1    2    0    0  0.89970688314E+03 -0.70123710208E+02  0.25757902958E+03  0.11139125634E+04  0.60005369104E+03 0.  0.
         23    2    4    4    0    0  0.57051035744E+03 -0.31946853487E+03  0.16661888547E+03  0.68125792248E+03  0.93852497167E+02 0.  0.
         23    2    4    4    0    0  0.32919652571E+03  0.24934482467E+03  0.90960144103E+02  0.43265464093E+03  0.91504624911E+02 0.  0.
          2    1    3    3  502    0 -0.57552526103E+03  0.37892386579E+02 -0.38608838018E+03  0.69406728518E+03  0.00000000000E+00 0. -1.
         -2    1    3    3    0  502 -0.32418162211E+03  0.32231323629E+02 -0.30526502341E+03  0.44645191998E+03  0.00000000000E+00 0.  1.
         15    1    5    5    0    0  0.20567382549E+03 -0.12530013074E+03  0.15990398979E+02  0.24137252504E+03  0.17770000000E+01 0. -1.
        -15    1    5    5    0    0  0.36483653194E+03 -0.19416840414E+03  0.15062848649E+03  0.43988539744E+03  0.17770000000E+01 0.  1.
          3    1    6    6  503    0  0.22915983154E+03  0.16879477391E+03  0.18563358288E+02  0.28522009460E+03  0.00000000000E+00 0. -1.
         -3    1    6    6    0  503  0.10003669416E+03  0.80550050751E+02  0.72396785816E+02  0.14743454633E+03  0.00000000000E+00 0.  1.
<mgrwt>
<rscale>  0 0.98486813E+03</rscale>
<asrwt>0</asrwt>
<pdfrwt beam="1">  1        2 0.20678509E+00 0.98486813E+03</pdfrwt>
<pdfrwt beam="2">  1       -2 0.14005057E+00 0.98486813E+03</pdfrwt>
<totfact> 0.55568982E+00</totfact>
</mgrwt>
</event>
<event>
12    1  0.7781383E-008  0.3992239E+03  0.7818608E-02  0.1044049E+00
          2   -1    0    0  501    0  0.00000000000E+00  0.00000000000E+00  0.66344008791E+03  0.66344008791E+03  0.00000000000E+00 0. -1.
         -2   -1    0    0    0  501 -0.00000000000E+00 -0.00000000000E+00 -0.29862020998E+03  0.29862020998E+03  0.00000000000E+00 0.  1.
         23    2    1    2    0    0 -0.22786340418E+03  0.17942374460E+02  0.72745017996E+02  0.25671356453E+03  0.91467791069E+02 0.  0.
    5000000    2    1    2    0    0  0.22786340418E+03 -0.17942374460E+02  0.29207485993E+03  0.70534673336E+03  0.59996885810E+03 0.  0.
         23    2    4    4    0    0  0.27100286317E+03  0.19825256255E+03  0.25320602143E+02  0.34848898015E+03  0.89759712503E+02 0.  0.
         23    2    4    4    0    0 -0.43139458986E+02 -0.21619493701E+03  0.26675425779E+03  0.35685775321E+03  0.87111183355E+02 0.  0.
          4    1    3    3  502    0 -0.20947012109E+02 -0.53163286272E+00 -0.20222330634E+02  0.29120484304E+02  0.00000000000E+00 0.  1.
         -4    1    3    3    0  502 -0.20691639207E+03  0.18474007323E+02  0.92967348630E+02  0.22759308022E+03  0.00000000000E+00 0. -1.
         15    1    5    5    0    0  0.13467561858E+03  0.47460645974E+02  0.26252212370E+02  0.14519769812E+03  0.17770000000E+01 0.  1.
        -15    1    5    5    0    0  0.13632724459E+03  0.15079191658E+03 -0.93161022634E+00  0.20329128203E+03  0.17770000000E+01 0. -1.
          4    1    6    6  503    0 -0.28495888505E+02 -0.56340713015E+02  0.13556077097E+03  0.14954268364E+03  0.00000000000E+00 0. -1.
         -4    1    6    6    0  503 -0.14643570481E+02 -0.15985422400E+03  0.13119348682E+03  0.20731506957E+03  0.00000000000E+00 0.  1.
<mgrwt>
<rscale>  0 0.39922386E+03</rscale>
<asrwt>0</asrwt>
<pdfrwt beam="1">  1        2 0.10206771E+00 0.39922386E+03</pdfrwt>
<pdfrwt beam="2">  1       -2 0.45941571E-01 0.39922386E+03</pdfrwt>
<totfact> 0.20307582E+02</totfact>
</mgrwt>
</event>
<event>
12    1  0.7781383E-008  0.1433046E+04  0.7818608E-02  0.8930239E-01
         -2   -1    0    0    0  501 -0.00000000000E+00  0.00000000000E+00  0.10742242320E+04  0.10742242320E+04  0.00000000000E+00 0.  1.
          2   -1    0    0  501    0  0.00000000000E+00 -0.00000000000E+00 -0.20691554861E+04  0.20691554861E+04  0.00000000000E+00 0. -1.
         23    2    1    2    0    0  0.79857980280E+03  0.11740301885E+04 -0.64874074792E+03  0.15635383348E+04  0.87812194424E+02 0.  0.
    5000000    2    1    2    0    0 -0.79857980280E+03 -0.11740301885E+04 -0.34619050614E+03  0.15798413833E+04  0.59997862017E+03 0.  0.
         23    2    4    4    0    0 -0.68655768410E+03 -0.82715748580E+03 -0.14535408259E+02  0.10788695094E+04  0.90538280525E+02 0.  0.
         23    2    4    4    0    0 -0.11202211870E+03 -0.34687270273E+03 -0.33165509789E+03  0.50097187388E+03  0.90044919283E+02 0.  0.
          3    1    3    3  502    0  0.52930535931E+03  0.81976307467E+03 -0.40860529722E+03  0.10578912756E+04  0.00000000000E+00 0. -1.
         -3    1    3    3    0  502  0.26927444349E+03  0.35426711386E+03 -0.24013545070E+03  0.50564705928E+03  0.00000000000E+00 0.  1.
         15    1    5    5    0    0 -0.35329268644E+03 -0.38469696910E+03 -0.43943063551E+02  0.52415802092E+03  0.17770000000E+01 0. -1.
        -15    1    5    5    0    0 -0.33326499767E+03 -0.44246051670E+03  0.29407655292E+02  0.55471148846E+03  0.17770000000E+01 0.  1.
          3    1    6    6  503    0 -0.20831564711E+02 -0.15760097011E+03 -0.18927161506E+03  0.24717557350E+03  0.00000000000E+00 0. -1.
         -3    1    6    6    0  503 -0.91190553986E+02 -0.18927173262E+03 -0.14238348283E+03  0.25379630038E+03  0.00000000000E+00 0.  1.
<mgrwt>
<rscale>  0 0.14330462E+04</rscale>
<asrwt>0</asrwt>
<pdfrwt beam="1">  1        2 0.31833161E+00 0.14330462E+04</pdfrwt>
<pdfrwt beam="2">  1       -2 0.16526527E+00 0.14330462E+04</pdfrwt>
<totfact> 0.13367750E+00</totfact>
</mgrwt>
</event>
<event>
12    1  0.7781383E-008  0.5856874E+03  0.7818608E-02  0.9935553E-01
          2   -1    0    0  501    0  0.00000000000E+00  0.00000000000E+00  0.23755461509E+04  0.23755461509E+04  0.00000000000E+00 0. -1.
         -2   -1    0    0    0  501 -0.00000000000E+00 -0.00000000000E+00 -0.23087693927E+03  0.23087693927E+03  0.00000000000E+00 0.  1.
         23    2    1    2    0    0 -0.44224010532E+03 -0.13215403113E+02  0.14344214274E+03  0.47089038471E+03  0.73560508884E+02 0.  0.
    5000000    2    1    2    0    0  0.44224010532E+03  0.13215403113E+02  0.20012270689E+04  0.21355327055E+04  0.59986598268E+03 0.  0.
         23    2    4    4    0    0  0.31922702148E+03  0.28072131045E+03  0.12045761802E+04  0.12807190020E+04  0.92341988039E+02 0.  0.
         23    2    4    4    0    0  0.12301308384E+03 -0.26750590733E+03  0.79665088876E+03  0.85481370353E+03  0.96758461852E+02 0.  0.
          3    1    3    3  502    0 -0.40984434003E+03  0.61101786480E+01  0.13942978440E+03  0.43295540430E+03  0.00000000000E+00 0. -1.
         -3    1    3    3    0  502 -0.32395765289E+02 -0.19325581761E+02  0.40123583401E+01  0.37934980408E+02  0.00000000000E+00 0.  1.
         15    1    5    5    0    0  0.25066688717E+03  0.20787663826E+03  0.79527892963E+03  0.85937088541E+03  0.17770000000E+01 0. -1.
        -15    1    5    5    0    0  0.68560134311E+02  0.72844672187E+02  0.40929725056E+03  0.42134811656E+03  0.17770000000E+01 0.  1.
          2    1    6    6  503    0  0.10045102657E+03 -0.16558676631E+03  0.62085182714E+03  0.65035865273E+03  0.00000000000E+00 0. -1.
         -2    1    6    6    0  503  0.22562057269E+02 -0.10191914102E+03  0.17579906161E+03  0.20445505080E+03  0.00000000000E+00 0.  1.
<mgrwt>
<rscale>  0 0.58568741E+03</rscale>
<asrwt>0</asrwt>
<pdfrwt beam="1">  1        2 0.36546862E+00 0.58568741E+03</pdfrwt>
<pdfrwt beam="2">  1       -2 0.35519531E-01 0.58568741E+03</pdfrwt>
<totfact> 0.32643693E+01</totfact>
</mgrwt>
</event>
<event>
12    1  0.7781383E-008  0.7863036E+03  0.7818608E-02  0.9580056E-01
          2   -1    0    0  501    0  0.00000000000E+00  0.00000000000E+00  0.61141768402E+03  0.61141768402E+03  0.00000000000E+00 0. -1.
         -2   -1    0    0    0  501 -0.00000000000E+00 -0.00000000000E+00 -0.10533325945E+04  0.10533325945E+04  0.00000000000E+00 0.  1.
         23    2    1    2    0    0  0.48720712372E+03  0.46398186821E+03 -0.33418299517E+03  0.75682208519E+03  0.91931708009E+02 0.  0.
    5000000    2    1    2    0    0 -0.48720712372E+03 -0.46398186821E+03 -0.10773191532E+03  0.90792819335E+03  0.60006456592E+03 0.  0.
         23    2    4    4    0    0 -0.60893201832E+03 -0.40884537638E+03 -0.97043477530E+02  0.74553744755E+03  0.91955991863E+02 0.  0.
         23    2    4    4    0    0  0.12172489460E+03 -0.55136491830E+02 -0.10688437791E+02  0.16239074581E+03  0.91648943932E+02 0.  0.
          1    1    3    3  502    0  0.20931777485E+03  0.17360453415E+03 -0.89561764609E+02  0.28631062646E+03  0.00000000000E+00 0. -1.
         -1    1    3    3    0  502  0.27788934887E+03  0.29037733406E+03 -0.24462123056E+03  0.47051145873E+03  0.00000000000E+00 0.  1.
         15    1    5    5    0    0 -0.83844204647E+02 -0.90543158801E+02 -0.35552531307E+02  0.12843307389E+03  0.17770000000E+01 0. -1.
        -15    1    5    5    0    0 -0.52508781368E+03 -0.31830221758E+03 -0.61490946223E+02  0.61710437365E+03  0.17770000000E+01 0.  1.
          4    1    6    6  503    0  0.50735577194E+02 -0.72238716440E+02 -0.13576991457E+02  0.89313300483E+02  0.00000000000E+00 0. -1.
         -4    1    6    6    0  503  0.70989317408E+02  0.17102224610E+02  0.28885536666E+01  0.73077445323E+02  0.00000000000E+00 0.  1.
<mgrwt>
<rscale>  0 0.78630363E+03</rscale>
<asrwt>0</asrwt>
<pdfrwt beam="1">  1        2 0.94064260E-01 0.78630363E+03</pdfrwt>
<pdfrwt beam="2">  1       -2 0.16205117E+00 0.78630363E+03</pdfrwt>
<totfact> 0.11931623E+01</totfact>
</mgrwt>
</event>
<event>
12    1  0.7781383E-008  0.5296843E+03  0.7818608E-02  0.1006309E+00
          2   -1    0    0  501    0  0.00000000000E+00  0.00000000000E+00  0.50355261788E+03  0.50355261788E+03  0.00000000000E+00 0. -1.
         -2   -1    0    0    0  501 -0.00000000000E+00 -0.00000000000E+00 -0.97407472913E+03  0.97407472913E+03  0.00000000000E+00 0.  1.
         23    2    1    2    0    0  0.42670602101E+03  0.14998438163E+03  0.16886262673E+03  0.49107600265E+03  0.89820435178E+02 0.  0.
    5000000    2    1    2    0    0 -0.42670602101E+03 -0.14998438163E+03 -0.63938473798E+03  0.98655134436E+03  0.59991446790E+03 0.  0.
         23    2    4    4    0    0 -0.21928444423E+03  0.11558619932E+03 -0.73575732318E+01  0.26456487623E+03  0.92166170039E+02 0.  0.
         23    2    4    4    0    0 -0.20742157678E+03 -0.26557058095E+03 -0.63202716475E+03  0.72198646813E+03  0.90855265128E+02 0.  0.
          1    1    3    3  502    0  0.87912574816E+02  0.61851176851E+02  0.14424239389E+02  0.10845389606E+03  0.00000000000E+00 0. -1.
         -1    1    3    3    0  502  0.33879344619E+03  0.88133204783E+02  0.15443838735E+03  0.38262210659E+03  0.00000000000E+00 0.  1.
         15    1    5    5    0    0 -0.17556780009E+03  0.45308020399E+02  0.12587486604E+01  0.18133287434E+03  0.17770000000E+01 0. -1.
        -15    1    5    5    0    0 -0.43716644139E+02  0.70278178916E+02 -0.86163218921E+01  0.83232001889E+02  0.17770000000E+01 0.  1.
          1    1    6    6  503    0 -0.75414284690E+02 -0.79768822462E+02 -0.12672365824E+03  0.16765817883E+03  0.00000000000E+00 0. -1.
         -1    1    6    6    0  503 -0.13200729209E+03 -0.18580175849E+03 -0.50530350651E+03  0.55432828930E+03  0.00000000000E+00 0.  1.
<mgrwt>
<rscale>  0 0.52968435E+03</rscale>
<asrwt>0</asrwt>
<pdfrwt beam="1">  1        2 0.77469633E-01 0.52968435E+03</pdfrwt>
<pdfrwt beam="2">  1       -2 0.14985765E+00 0.52968435E+03</pdfrwt>
<totfact> 0.19030647E+01</totfact>
</mgrwt>
</event>
<event>
12    1  0.7781383E-008  0.4234169E+03  0.7818608E-02  0.1035960E+00
         -1   -1    0    0    0  501 -0.00000000000E+00  0.00000000000E+00  0.33039032882E+03  0.33039032882E+03  0.00000000000E+00 0.  1.
          1   -1    0    0  501    0  0.00000000000E+00 -0.00000000000E+00 -0.61947773386E+03  0.61947773386E+03  0.00000000000E+00 0. -1.
         23    2    1    2    0    0  0.21934891366E+03  0.38946349501E+02  0.15765854575E+02  0.24091190952E+03  0.90328411446E+02 0.  0.
    5000000    2    1    2    0    0 -0.21934891366E+03 -0.38946349501E+02 -0.30485325961E+03  0.70895615316E+03  0.60004379269E+03 0.  0.
         23    2    4    4    0    0  0.97343412551E+02 -0.21995232138E+03 -0.77836493901E+02  0.26927834792E+03  0.92722948772E+02 0.  0.
         23    2    4    4    0    0 -0.31669232621E+03  0.18100597188E+03 -0.22701676571E+03  0.43967780524E+03  0.93395766304E+02 0.  0.
          4    1    3    3  502    0  0.12487678156E+03 -0.21748441569E+02 -0.43695910675E+01  0.12683177287E+03  0.00000000000E+00 0. -1.
         -4    1    3    3    0  502  0.94472132103E+02  0.60694791069E+02  0.20135445643E+02  0.11408013665E+03  0.00000000000E+00 0.  1.
         15    1    5    5    0    0  0.59775641828E+02 -0.16432437965E+03 -0.12063697357E+02  0.17528354066E+03  0.17770000000E+01 0. -1.
        -15    1    5    5    0    0  0.37567770723E+02 -0.55627941735E+02 -0.65772796544E+02  0.93994807266E+02  0.17770000000E+01 0.  1.
          2    1    6    6  503    0 -0.14243771144E+03  0.96961850539E+02 -0.55204155477E+02  0.18093535001E+03  0.00000000000E+00 0. -1.
         -2    1    6    6    0  503 -0.17425461477E+03  0.84044121342E+02 -0.17181261023E+03  0.25874245523E+03  0.00000000000E+00 0.  1.
<mgrwt>
<rscale>  0 0.42341693E+03</rscale>
<asrwt>0</asrwt>
<pdfrwt beam="1">  1        1 0.95304266E-01 0.42341693E+03</pdfrwt>
<pdfrwt beam="2">  1       -1 0.50829282E-01 0.42341693E+03</pdfrwt>
<totfact> 0.13280275E+02</totfact>
</mgrwt>
</event>
<event>
12    1  0.7781383E-008  0.8150477E+03  0.7818608E-02  0.9538488E-01
          2   -1    0    0  501    0  0.00000000000E+00  0.00000000000E+00  0.32221650334E+04  0.32221650334E+04  0.00000000000E+00 0. -1.
         -2   -1    0    0    0  501 -0.00000000000E+00 -0.00000000000E+00 -0.22782711377E+03  0.22782711377E+03  0.00000000000E+00 0.  1.
         23    2    1    2    0    0 -0.74765605146E+03  0.29553896649E+02  0.12679070343E+04  0.14750484762E+04  0.91196246520E+02 0.  0.
    5000000    2    1    2    0    0  0.74765605146E+03 -0.29553896649E+02  0.17264308854E+04  0.19749436710E+04  0.59997991439E+03 0.  0.
         23    2    4    4    0    0  0.12324362749E+03 -0.17806550993E+03  0.17225982114E+03  0.29096044219E+03  0.89934506170E+02 0.  0.
         23    2    4    4    0    0  0.62441242397E+03  0.14851161328E+03  0.15541710643E+04  0.16839832289E+04  0.91680115635E+02 0.  0.
          1    1    3    3  502    0 -0.49263029250E+02 -0.20924405387E+02  0.93966897040E+02  0.10814090129E+03  0.00000000000E+00 0. -1.
         -1    1    3    3    0  502 -0.69839302221E+03  0.50478302036E+02  0.11739401372E+04  0.13669075749E+04  0.00000000000E+00 0.  1.
         15    1    5    5    0    0  0.13114403147E+03 -0.12790112342E+03  0.14232301504E+03  0.23198373370E+03  0.17770000000E+01 0. -1.
        -15    1    5    5    0    0 -0.79004039740E+01 -0.50164386508E+02  0.29936806097E+02  0.58976708496E+02  0.17770000000E+01 0.  1.
          3    1    6    6  503    0  0.52946434802E+03  0.11631552609E+03  0.13853694077E+04  0.14876525781E+04  0.00000000000E+00 0. -1.
         -3    1    6    6    0  503  0.94948075953E+02  0.32196087187E+02  0.16880165658E+03  0.19633065074E+03  0.00000000000E+00 0.  1.
<mgrwt>
<rscale>  0 0.81504769E+03</rscale>
<asrwt>0</asrwt>
<pdfrwt beam="1">  1        2 0.49571766E+00 0.81504769E+03</pdfrwt>
<pdfrwt beam="2">  1       -2 0.35050328E-01 0.81504769E+03</pdfrwt>
<totfact> 0.10135179E+01</totfact>
</mgrwt>
</event>
<event>
12    1  0.7781383E-008  0.6897259E+03  0.7818608E-02  0.9734965E-01
         -3   -1    0    0    0  501 -0.00000000000E+00  0.00000000000E+00  0.19062730987E+04  0.19062730987E+04  0.00000000000E+00 0.  1.
          3   -1    0    0  501    0  0.00000000000E+00 -0.00000000000E+00 -0.26431560401E+03  0.26431560401E+03  0.00000000000E+00 0. -1.
         23    2    1    2    0    0 -0.32715283882E+03  0.46380575758E+03  0.85088992479E+03  0.10269193711E+04  0.91678623516E+02 0.  0.
    5000000    2    1    2    0    0  0.32715283882E+03 -0.46380575758E+03  0.79106756992E+03  0.11436693316E+04  0.60003906468E+03 0.  0.
         23    2    4    4    0    0  0.31382582082E+03 -0.58600304010E+03  0.64709864030E+03  0.93173616984E+03  0.86656973675E+02 0.  0.
         23    2    4    4    0    0  0.13327018002E+02  0.12219728252E+03  0.14396892962E+03  0.21193316176E+03  0.95282879326E+02 0.  0.
          3    1    3    3  502    0 -0.24192500710E+03  0.27084718297E+03  0.56453253960E+03  0.67125471607E+03  0.00000000000E+00 0.  1.
         -3    1    3    3    0  502 -0.85227831725E+02  0.19295857460E+03  0.28635738519E+03  0.35566465507E+03  0.00000000000E+00 0. -1.
         15    1    5    5    0    0  0.15023944430E+03 -0.31724757917E+03  0.28595004345E+03  0.45275655952E+03  0.17770000000E+01 0. -1.
        -15    1    5    5    0    0  0.16358637652E+03 -0.26875546093E+03  0.36114859685E+03  0.47897961031E+03  0.17770000000E+01 0.  1.
          1    1    6    6  503    0 -0.45957190032E+01  0.12167046039E+03  0.14983431989E+03  0.19306772123E+03  0.00000000000E+00 0. -1.
         -1    1    6    6    0  503  0.17922737005E+02  0.52682213020E+00 -0.58653902678E+01  0.18865440528E+02  0.00000000000E+00 0.  1.
<mgrwt>
<rscale>  0 0.68972585E+03</rscale>
<asrwt>0</asrwt>
<pdfrwt beam="1">  1        3 0.40663940E-01 0.68972585E+03</pdfrwt>
<pdfrwt beam="2">  1       -3 0.29327278E+00 0.68972585E+03</pdfrwt>
<totfact> 0.66681631E-01</totfact>
</mgrwt>
</event>
<event>
12    1  0.7781383E-008  0.6572216E+03  0.7818608E-02  0.9793322E-01
         -2   -1    0    0    0  501 -0.00000000000E+00  0.00000000000E+00  0.32535451056E+03  0.32535451056E+03  0.00000000000E+00 0.  1.
          2   -1    0    0  501    0  0.00000000000E+00 -0.00000000000E+00 -0.18832204500E+04  0.18832204500E+04  0.00000000000E+00 0. -1.
         23    2    1    2    0    0  0.49802944197E+02 -0.62282992926E+03 -0.98501516558E+03  0.11700326203E+04  0.91235969031E+02 0.  0.
    5000000    2    1    2    0    0 -0.49802944197E+02  0.62282992926E+03 -0.57285077387E+03  0.10385423403E+04  0.60001227439E+03 0.  0.
         23    2    4    4    0    0 -0.82278839600E+02  0.11412974288E+03  0.95802255289E+02  0.19287750918E+03  0.90709733608E+02 0.  0.
         23    2    4    4    0    0  0.32475895404E+02  0.50870018638E+03 -0.66865302916E+03  0.84566483112E+03  0.90672872313E+02 0.  0.
          2    1    3    3  502    0  0.15544406835E+02 -0.54322145108E+03 -0.87426175719E+03  0.10294002106E+04  0.00000000000E+00 0.  1.
         -2    1    3    3    0  502  0.34258537362E+02 -0.79608478177E+02 -0.11075340839E+03  0.14063240967E+03  0.00000000000E+00 0. -1.
         15    1    5    5    0    0 -0.17830412487E+02  0.99600872347E+02  0.54474739007E+02  0.11493003220E+03  0.17770000000E+01 0. -1.
        -15    1    5    5    0    0 -0.64448427113E+02  0.14528870533E+02  0.41327516282E+02  0.77947476979E+02  0.17770000000E+01 0.  1.
          3    1    6    6  503    0  0.51825561890E+02  0.16843130759E+03 -0.20742318355E+03  0.27217525845E+03  0.00000000000E+00 0. -1.
         -3    1    6    6    0  503 -0.19349666487E+02  0.34026887879E+03 -0.46122984561E+03  0.57348957266E+03  0.00000000000E+00 0.  1.
<mgrwt>
<rscale>  0 0.65722159E+03</rscale>
<asrwt>0</asrwt>
<pdfrwt beam="1">  1        2 0.28972622E+00 0.65722159E+03</pdfrwt>
<pdfrwt beam="2">  1       -2 0.50054540E-01 0.65722159E+03</pdfrwt>
<totfact> 0.30560315E+01</totfact>
</mgrwt>
</event>
<event>
12    1  0.7781383E-008  0.8989749E+03  0.7818608E-02  0.9426864E-01
         -1   -1    0    0    0  501 -0.00000000000E+00  0.00000000000E+00  0.11455147217E+04  0.11455147217E+04  0.00000000000E+00 0.  1.
          1   -1    0    0  501    0  0.00000000000E+00 -0.00000000000E+00 -0.81661634446E+03  0.81661634446E+03  0.00000000000E+00 0. -1.
         23    2    1    2    0    0  0.60035345900E+03  0.55559090615E+03  0.45401913526E+03  0.93999122777E+03  0.91348795158E+02 0.  0.
    5000000    2    1    2    0    0 -0.60035345900E+03 -0.55559090615E+03 -0.12512075802E+03  0.10221398384E+04  0.60000759530E+03 0.  0.
         23    2    4    4    0    0 -0.38782557497E+03 -0.17563427598E+02 -0.17262882368E+03  0.43503034481E+03  0.93453408471E+02 0.  0.
         23    2    4    4    0    0 -0.21252788403E+03 -0.53802747855E+03  0.47508065654E+02  0.58710949358E+03  0.88311222301E+02 0.  0.
          4    1    3    3  502    0  0.58504553905E+03  0.51412508636E+03  0.43128333632E+03  0.89028546174E+03  0.00000000000E+00 0. -1.
         -4    1    3    3    0  502  0.15307919948E+02  0.41465819786E+02  0.22735798933E+02  0.49705766031E+02  0.00000000000E+00 0.  1.
         15    1    5    5    0    0 -0.33150487919E+03  0.27309871395E+01 -0.17542465408E+03  0.37507320646E+03  0.17770000000E+01 0.  1.
        -15    1    5    5    0    0 -0.56320695777E+02 -0.20294414737E+02  0.27958304040E+01  0.59957138349E+02  0.17770000000E+01 0. -1.
          4    1    6    6  503    0 -0.19879192296E+03 -0.42006154540E+03  0.55767084608E+02  0.46805971658E+03  0.00000000000E+00 0. -1.
         -4    1    6    6    0  503 -0.13735961076E+02 -0.11796593315E+03 -0.82590189533E+01  0.11904977700E+03  0.00000000000E+00 0.  1.
<mgrwt>
<rscale>  0 0.89897488E+03</rscale>
<asrwt>0</asrwt>
<pdfrwt beam="1">  1        1 0.12563328E+00 0.89897488E+03</pdfrwt>
<pdfrwt beam="2">  1       -1 0.17623303E+00 0.89897488E+03</pdfrwt>
<totfact> 0.48097505E+00</totfact>
</mgrwt>
</event>
<event>
12    1  0.7781383E-008  0.5436169E+03  0.7818608E-02  0.1002982E+00
          2   -1    0    0  501    0  0.00000000000E+00  0.00000000000E+00  0.16396465607E+04  0.16396465607E+04  0.00000000000E+00 0. -1.
         -2   -1    0    0    0  501 -0.00000000000E+00 -0.00000000000E+00 -0.20883450275E+03  0.20883450275E+03  0.00000000000E+00 0.  1.
         23    2    1    2    0    0 -0.39481629488E+03 -0.12048322547E+03  0.36946138558E+03  0.56128599669E+03  0.90244890859E+02 0.  0.
    5000000    2    1    2    0    0  0.39481629488E+03  0.12048322547E+03  0.10613506723E+04  0.12871950667E+04  0.60000814642E+03 0.  0.
         23    2    4    4    0    0 -0.91636393450E+02 -0.99854610619E+02  0.40182563646E+03  0.43371548445E+03  0.90978609942E+02 0.  0.
         23    2    4    4    0    0  0.48645268833E+03  0.22033783609E+03  0.65952503587E+03  0.85347958226E+03  0.90934835983E+02 0.  0.
          4    1    3    3  502    0 -0.28046993686E+03 -0.60070898107E+02  0.20744886478E+03  0.35398718872E+03  0.00000000000E+00 0. -1.
         -4    1    3    3    0  502 -0.11434635802E+03 -0.60412327364E+02  0.16201252080E+03  0.20729880797E+03  0.00000000000E+00 0.  1.
         15    1    5    5    0    0 -0.77616246480E+02 -0.84461283034E+02  0.19809946077E+03  0.22892038821E+03  0.17770000000E+01 0. -1.
        -15    1    5    5    0    0 -0.14020146970E+02 -0.15393327585E+02  0.20372617569E+03  0.20479509624E+03  0.17770000000E+01 0.  1.
          1    1    6    6  503    0  0.22282750932E+02  0.19852056991E+02  0.12568131642E+02  0.32381832697E+02  0.00000000000E+00 0. -1.
         -1    1    6    6    0  503  0.46416993740E+03  0.20048577910E+03  0.64695690423E+03  0.82109774956E+03  0.00000000000E+00 0.  1.
<mgrwt>
<rscale>  0 0.54361694E+03</rscale>
<asrwt>0</asrwt>
<pdfrwt beam="1">  1        2 0.25225331E+00 0.54361694E+03</pdfrwt>
<pdfrwt beam="2">  1       -2 0.32128386E-01 0.54361694E+03</pdfrwt>
<totfact> 0.99724971E+01</totfact>
</mgrwt>
</event>
<event>
12    1  0.7781383E-008  0.4717088E+03  0.7818608E-02  0.1021439E+00
         -2   -1    0    0    0  501 -0.00000000000E+00  0.00000000000E+00  0.22400742584E+03  0.22400742584E+03  0.00000000000E+00 0.  1.
          2   -1    0    0  501    0  0.00000000000E+00 -0.00000000000E+00 -0.11242361408E+04  0.11242361408E+04  0.00000000000E+00 0. -1.
         23    2    1    2    0    0 -0.24661424290E+03  0.15564078258E+03 -0.13697248839E+03  0.33448483166E+03  0.89866579054E+02 0.  0.
    5000000    2    1    2    0    0  0.24661424290E+03 -0.15564078258E+03 -0.76325622659E+03  0.10137587350E+04  0.60008671654E+03 0.  0.
         23    2    4    4    0    0 -0.36287952244E+02 -0.30927997019E+03 -0.44201434479E+03  0.54835190593E+03  0.91335733938E+02 0.  0.
         23    2    4    4    0    0  0.28290219515E+03  0.15363918761E+03 -0.32124188180E+03  0.46540682908E+03  0.98835813060E+02 0.  0.
          4    1    3    3  502    0 -0.37879115243E+02  0.44682545442E+02 -0.64726245778E+02  0.87297446305E+02  0.00000000000E+00 0. -1.
         -4    1    3    3    0  502 -0.20873512766E+03  0.11095823714E+03 -0.72246242615E+02  0.24718738536E+03  0.00000000000E+00 0.  1.
         15    1    5    5    0    0 -0.13794472652E+02 -0.18227472647E+03 -0.18125596558E+03  0.25743202243E+03  0.17770000000E+01 0. -1.
        -15    1    5    5    0    0 -0.22493479592E+02 -0.12700524372E+03 -0.26075837921E+03  0.29091988350E+03  0.17770000000E+01 0.  1.
          1    1    6    6  503    0  0.26072237134E+03  0.10113511089E+03 -0.26227002137E+03  0.38339278773E+03  0.00000000000E+00 0. -1.
         -1    1    6    6    0  503  0.22179823803E+02  0.52504076717E+02 -0.58971860431E+02  0.82014041350E+02  0.00000000000E+00 0.  1.
<mgrwt>
<rscale>  0 0.47170879E+03</rscale>
<asrwt>0</asrwt>
<pdfrwt beam="1">  1        2 0.17295941E+00 0.47170879E+03</pdfrwt>
<pdfrwt beam="2">  1       -2 0.34462681E-01 0.47170879E+03</pdfrwt>
<totfact> 0.17198058E+02</totfact>
</mgrwt>
</event>
<event>
12    1  0.7781383E-008  0.5689389E+03  0.7818608E-02  0.9972029E-01
          1   -1    0    0  501    0  0.00000000000E+00  0.00000000000E+00  0.16050716673E+04  0.16050716673E+04  0.00000000000E+00 0. -1.
         -1   -1    0    0    0  501 -0.00000000000E+00 -0.00000000000E+00 -0.46245960626E+03  0.46245960626E+03  0.00000000000E+00 0.  1.
         23    2    1    2    0    0 -0.32819646652E+03 -0.37891270934E+03  0.11780449428E+04  0.12835024049E+04  0.91108583784E+02 0.  0.
    5000000    2    1    2    0    0  0.32819646652E+03  0.37891270934E+03 -0.35432881826E+02  0.78402886865E+03  0.60179565952E+03 0.  0.
         23    2    4    4    0    0 -0.70636141624E+02  0.44073504986E+02  0.17553844193E+03  0.21458514840E+03  0.91110388937E+02 0.  0.
         23    2    4    4    0    0  0.39883260815E+03  0.33483920435E+03 -0.21097132375E+03  0.56944372025E+03  0.92587844748E+02 0.  0.
          1    1    3    3  502    0 -0.13611308039E+03 -0.21573634952E+03  0.65442707222E+03  0.70238432216E+03  0.00000000000E+00 0. -1.
         -1    1    3    3    0  502 -0.19208338613E+03 -0.16317635982E+03  0.52361787062E+03  0.58111808272E+03  0.00000000000E+00 0.  1.
         15    1    5    5    0    0  0.93587803127E+01  0.13552145769E+02 -0.27535712078E+01  0.16792477700E+02  0.17770000000E+01 0.  1.
        -15    1    5    5    0    0 -0.79994921937E+02  0.30521359217E+02  0.17829201314E+03  0.19779267070E+03  0.17770000000E+01 0. -1.
          4    1    6    6  503    0  0.38727971259E+03  0.29434265185E+03 -0.18826732964E+03  0.52160115020E+03  0.00000000000E+00 0. -1.
         -4    1    6    6    0  503  0.11552895560E+02  0.40496552505E+02 -0.22703994115E+02  0.47842570055E+02  0.00000000000E+00 0.  1.
<mgrwt>
<rscale>  0 0.56893892E+03</rscale>
<asrwt>0</asrwt>
<pdfrwt beam="1">  1        1 0.24693410E+00 0.56893892E+03</pdfrwt>
<pdfrwt beam="2">  1       -1 0.71147633E-01 0.56893892E+03</pdfrwt>
<totfact> 0.11837007E+01</totfact>
</mgrwt>
</event>
<event>
12    1  0.7781383E-008  0.1122961E+04  0.7818608E-02  0.9183097E-01
          2   -1    0    0  501    0  0.00000000000E+00  0.00000000000E+00  0.12297592087E+04  0.12297592087E+04  0.00000000000E+00 0. -1.
         -2   -1    0    0    0  501 -0.00000000000E+00 -0.00000000000E+00 -0.11841667006E+04  0.11841667006E+04  0.00000000000E+00 0.  1.
         23    2    1    2    0    0 -0.99208122895E+03 -0.34163550410E+03  0.44151818826E+03  0.11419833028E+04  0.90816136942E+02 0.  0.
    5000000    2    1    2    0    0  0.99208122895E+03  0.34163550410E+03 -0.39592568012E+03  0.12719426065E+04  0.60011737816E+03 0.  0.
         23    2    4    4    0    0  0.27299163591E+03 -0.15747468202E+03 -0.11680862405E+03  0.34888172166E+03  0.93549411008E+02 0.  0.
         23    2    4    4    0    0  0.71908959304E+03  0.49911018612E+03 -0.27911705606E+03  0.92306088485E+03  0.89074381542E+02 0.  0.
          4    1    3    3  502    0 -0.10953240315E+03 -0.61178710326E+02  0.74167214796E+02  0.14574277920E+03  0.00000000000E+00 0. -1.
         -4    1    3    3    0  502 -0.88254882580E+03 -0.28045679377E+03  0.36735097347E+03  0.99624052356E+03  0.00000000000E+00 0.  1.
         15    1    5    5    0    0  0.25233154719E+03 -0.14552284638E+03 -0.13275957974E+03  0.32011930943E+03  0.17770000000E+01 0. -1.
        -15    1    5    5    0    0  0.20660088715E+02 -0.11951835634E+02  0.15950955686E+02  0.28762412225E+02  0.17770000000E+01 0.  1.
          4    1    6    6  503    0  0.23420740185E+03  0.11674766669E+03 -0.66914057906E+02  0.27011222835E+03  0.00000000000E+00 0. -1.
         -4    1    6    6    0  503  0.48488219119E+03  0.38236251942E+03 -0.21220299816E+03  0.65294865650E+03  0.00000000000E+00 0.  1.
<mgrwt>
<rscale>  0 0.11229614E+04</rscale>
<asrwt>0</asrwt>
<pdfrwt beam="1">  1        2 0.18919372E+00 0.11229614E+04</pdfrwt>
<pdfrwt beam="2">  1       -2 0.18217949E+00 0.11229614E+04</pdfrwt>
<totfact> 0.31165796E+00</totfact>
</mgrwt>
</event>
<event>
12    1  0.7781383E-008  0.2051747E+04  0.7818608E-02  0.8582802E-01
         -2   -1    0    0    0  501 -0.00000000000E+00  0.00000000000E+00  0.78652665732E+03  0.78652665732E+03  0.00000000000E+00 0.  1.
          2   -1    0    0  501    0  0.00000000000E+00 -0.00000000000E+00 -0.55644749695E+04  0.55644749695E+04  0.00000000000E+00 0. -1.
         23    2    1    2    0    0  0.16245698452E+04  0.12458185707E+04 -0.24242569842E+04  0.31743386287E+04  0.90070588703E+02 0.  0.
    5000000    2    1    2    0    0 -0.16245698452E+04 -0.12458185707E+04 -0.23536913279E+04  0.31766629981E+04  0.60002820224E+03 0.  0.
         23    2    4    4    0    0 -0.11569828427E+04 -0.88229458571E+03 -0.20170340187E+04  0.24887973029E+04  0.92912582443E+02 0.  0.
         23    2    4    4    0    0 -0.46758700249E+03 -0.36352398495E+03 -0.33665730923E+03  0.68786569522E+03  0.95046190246E+02 0.  0.
          2    1    3    3  502    0  0.15935277145E+03  0.93174045963E+02 -0.20094088769E+03  0.27285884438E+03  0.00000000000E+00 0. -1.
         -2    1    3    3    0  502  0.14652170738E+04  0.11526445247E+04 -0.22233160965E+04  0.29014797843E+04  0.00000000000E+00 0.  1.
         15    1    5    5    0    0 -0.68290770143E+03 -0.54881747753E+03 -0.12808945318E+04  0.15518561504E+04  0.17770000000E+01 0. -1.
        -15    1    5    5    0    0 -0.47407514131E+03 -0.33347710817E+03 -0.73613948691E+03  0.93694115247E+03  0.17770000000E+01 0.  1.
          2    1    6    6  503    0 -0.19450165733E+03 -0.97075934736E+02 -0.10389249048E+03  0.24093210950E+03  0.00000000000E+00 0. -1.
         -2    1    6    6    0  503 -0.27308534515E+03 -0.26644805021E+03 -0.23276481875E+03  0.44693358572E+03  0.00000000000E+00 0.  1.
<mgrwt>
<rscale>  0 0.20517472E+04</rscale>
<asrwt>0</asrwt>
<pdfrwt beam="1">  1        2 0.85607308E+00 0.20517472E+04</pdfrwt>
<pdfrwt beam="2">  1       -2 0.12100410E+00 0.20517472E+04</pdfrwt>
<totfact> 0.21786003E-03</totfact>
</mgrwt>
</event>
<event>
12    1  0.7781383E-008  0.6417729E+03  0.7818608E-02  0.9822340E-01
         -2   -1    0    0    0  501 -0.00000000000E+00  0.00000000000E+00  0.54005207842E+03  0.54005207842E+03  0.00000000000E+00 0.  1.
          2   -1    0    0  501    0  0.00000000000E+00 -0.00000000000E+00 -0.90273442346E+03  0.90273442346E+03  0.00000000000E+00 0. -1.
         23    2    1    2    0    0 -0.38080018308E+03  0.33631723211E+03  0.10705534240E+03  0.52701158866E+03  0.90345493508E+02 0.  0.
    5000000    2    1    2    0    0  0.38080018308E+03 -0.33631723211E+03 -0.46973768744E+03  0.91577491323E+03  0.59989343775E+03 0.  0.
         23    2    4    4    0    0  0.40440041160E+03  0.22401538251E+02 -0.23674417393E+03  0.47766278323E+03  0.89846584656E+02 0.  0.
         23    2    4    4    0    0 -0.23600228521E+02 -0.35871877036E+03 -0.23299351351E+03  0.43811213000E+03  0.91761288812E+02 0.  0.
          4    1    3    3  502    0 -0.20920714086E+03  0.22900672823E+03  0.34849839391E+02  0.31213173608E+03  0.00000000000E+00 0. -1.
         -4    1    3    3    0  502 -0.17159304222E+03  0.10731050388E+03  0.72205503006E+02  0.21487985258E+03  0.00000000000E+00 0.  1.
         15    1    5    5    0    0  0.18089967202E+03  0.20513123729E+02 -0.15679877472E+03  0.24028003051E+03  0.17770000000E+01 0.  1.
        -15    1    5    5    0    0  0.22350073958E+03  0.18884145219E+01 -0.79945399212E+02  0.23738275272E+03  0.17770000000E+01 0. -1.
          2    1    6    6  503    0 -0.44302893766E+02 -0.17521221860E+03 -0.77284903443E+02  0.19655794119E+03  0.00000000000E+00 0. -1.
         -2    1    6    6    0  503  0.20702665244E+02 -0.18350655176E+03 -0.15570861006E+03  0.24155418881E+03  0.00000000000E+00 0.  1.
<mgrwt>
<rscale>  0 0.64177291E+03</rscale>
<asrwt>0</asrwt>
<pdfrwt beam="1">  1        2 0.13888222E+00 0.64177291E+03</pdfrwt>
<pdfrwt beam="2">  1       -2 0.83084936E-01 0.64177291E+03</pdfrwt>
<totfact> 0.37993077E+01</totfact>
</mgrwt>
</event>
<event>
12    1  0.7781383E-008  0.1563338E+04  0.7818608E-02  0.8843393E-01
          1   -1    0    0  501    0  0.00000000000E+00  0.00000000000E+00  0.89624635894E+03  0.89624635894E+03  0.00000000000E+00 0. -1.
         -1   -1    0    0    0  501 -0.00000000000E+00 -0.00000000000E+00 -0.42255587566E+04  0.42255587566E+04  0.00000000000E+00 0.  1.
         23    2    1    2    0    0 -0.12885524909E+04 -0.87576292134E+03 -0.30541151578E+04  0.34297349105E+04  0.90188374018E+02 0.  0.
    5000000    2    1    2    0    0  0.12885524909E+04  0.87576292134E+03 -0.27519723995E+03  0.16920702051E+04  0.60003320070E+03 0.  0.
         23    2    4    4    0    0  0.88828864711E+03  0.54492026560E+03 -0.44679075180E+03  0.11377458188E+04  0.94067825347E+02 0.  0.
         23    2    4    4    0    0  0.40026384383E+03  0.33084265574E+03  0.17159351186E+03  0.55432438637E+03  0.90350343036E+02 0.  0.
          1    1    3    3  502    0 -0.60010395065E+03 -0.35816913360E+03 -0.13286778430E+04  0.15012643639E+04  0.00000000000E+00 0. -1.
         -1    1    3    3    0  502 -0.68844854029E+03 -0.51759378774E+03 -0.17254373147E+04  0.19284705465E+04  0.00000000000E+00 0.  1.
         15    1    5    5    0    0  0.56258921686E+03  0.33168487139E+03 -0.23164327852E+03  0.69295255757E+03  0.17770000000E+01 0. -1.
        -15    1    5    5    0    0  0.32569943026E+03  0.21323539421E+03 -0.21514747328E+03  0.44479326119E+03  0.17770000000E+01 0.  1.
          3    1    6    6  503    0  0.92678643401E+02  0.40515114937E+02  0.10381648637E+02  0.10167882823E+03  0.00000000000E+00 0. -1.
         -3    1    6    6    0  503  0.30758520043E+03  0.29032754080E+03  0.16121186322E+03  0.45264555815E+03  0.00000000000E+00 0.  1.
<mgrwt>
<rscale>  0 0.15633384E+04</rscale>
<asrwt>0</asrwt>
<pdfrwt beam="1">  1        1 0.13788405E+00 0.15633384E+04</pdfrwt>
<pdfrwt beam="2">  1       -1 0.65008597E+00 0.15633384E+04</pdfrwt>
<totfact> 0.49160005E-03</totfact>
</mgrwt>
</event>
<event>
12    1  0.7781383E-008  0.1120106E+04  0.7818608E-02  0.9185813E-01
         -2   -1    0    0    0  501 -0.00000000000E+00  0.00000000000E+00  0.14667657248E+04  0.14667657248E+04  0.00000000000E+00 0.  1.
          2   -1    0    0  501    0  0.00000000000E+00 -0.00000000000E+00 -0.10155666126E+04  0.10155666126E+04  0.00000000000E+00 0. -1.
         23    2    1    2    0    0  0.69852832694E+03  0.78437908764E+03  0.67551618066E+03  0.12520032742E+04  0.89429925021E+02 0.  0.
    5000000    2    1    2    0    0 -0.69852832694E+03 -0.78437908764E+03 -0.22431706846E+03  0.12303290633E+04  0.60016587724E+03 0.  0.
         23    2    4    4    0    0 -0.18652616904E+03 -0.61795430890E+03 -0.20640802609E+03  0.68394395486E+03  0.92279578100E+02 0.  0.
         23    2    4    4    0    0 -0.51200215790E+03 -0.16642477874E+03 -0.17909042368E+02  0.54638510847E+03  0.91501564352E+02 0.  0.
          1    1    3    3  502    0  0.49979798162E+03  0.54711200245E+03  0.42840285073E+03  0.85595476993E+03  0.00000000000E+00 0. -1.
         -1    1    3    3    0  502  0.19873034532E+03  0.23726708519E+03  0.24711332993E+03  0.39604850422E+03  0.00000000000E+00 0.  1.
         15    1    5    5    0    0 -0.82720476981E+02 -0.41645130881E+03 -0.11848728215E+03  0.44081375170E+03  0.17770000000E+01 0. -1.
        -15    1    5    5    0    0 -0.10380569206E+03 -0.20150300009E+03 -0.87920743943E+02  0.24313020317E+03  0.17770000000E+01 0.  1.
          3    1    6    6  503    0 -0.50985424075E+03 -0.16524905368E+03 -0.78398341045E+01  0.53602244315E+03  0.00000000000E+00 0. -1.
         -3    1    6    6    0  503 -0.21479171491E+01 -0.11757250632E+01 -0.10069208264E+02  0.10362665321E+02  0.00000000000E+00 0.  1.
<mgrwt>
<rscale>  0 0.11201064E+04</rscale>
<asrwt>0</asrwt>
<pdfrwt beam="1">  1        2 0.15624102E+00 0.11201064E+04</pdfrwt>
<pdfrwt beam="2">  1       -2 0.22565627E+00 0.11201064E+04</pdfrwt>
<totfact> 0.21980348E+00</totfact>
</mgrwt>
</event>
<event>
12    1  0.7781383E-008  0.1178634E+04  0.7818608E-02  0.9131766E-01
         -2   -1    0    0    0  501 -0.00000000000E+00  0.00000000000E+00  0.13999901984E+04  0.13999901984E+04  0.00000000000E+00 0.  1.
          2   -1    0    0  501    0  0.00000000000E+00 -0.00000000000E+00 -0.22303676481E+04  0.22303676481E+04  0.00000000000E+00 0. -1.
         23    2    1    2    0    0 -0.98598862584E+03 -0.53270607645E+03  0.93018071326E+03  0.14590767342E+04  0.87860246141E+02 0.  0.
    5000000    2    1    2    0    0  0.98598862584E+03  0.53270607645E+03 -0.17605581630E+04  0.21712811122E+04  0.59912209853E+03 0.  0.
         23    2    4    4    0    0  0.41042863739E+01 -0.35907407309E+02 -0.34955369658E+02  0.10416631625E+03  0.91228046717E+02 0.  0.
         23    2    4    4    0    0  0.98188433946E+03  0.56861348376E+03 -0.17256027933E+04  0.20671147960E+04  0.88546199516E+02 0.  0.
          4    1    3    3  502    0 -0.87027978645E+03 -0.48212181973E+03  0.79001829709E+03  0.12704161781E+04  0.00000000000E+00 0.  1.
         -4    1    3    3    0  502 -0.11570883939E+03 -0.50584256719E+02  0.14016241617E+03  0.18866055615E+03  0.00000000000E+00 0. -1.
         15    1    5    5    0    0 -0.37616524044E+02  0.67913246024E+01 -0.10984797975E+02  0.39811411511E+02  0.17770000000E+01 0. -1.
        -15    1    5    5    0    0  0.41720810418E+02 -0.42698731911E+02 -0.23970571683E+02  0.64354904743E+02  0.17770000000E+01 0.  1.
          4    1    6    6  503    0  0.27998557200E+03  0.11693500823E+03 -0.45957587928E+03  0.55070473531E+03  0.00000000000E+00 0. -1.
         -4    1    6    6    0  503  0.70189876746E+03  0.45167847553E+03 -0.12660269140E+04  0.15164100607E+04  0.00000000000E+00 0.  1.
<mgrwt>
<rscale>  0 0.11786340E+04</rscale>
<asrwt>0</asrwt>
<pdfrwt beam="1">  1        2 0.34313348E+00 0.11786340E+04</pdfrwt>
<pdfrwt beam="2">  1       -2 0.21538311E+00 0.11786340E+04</pdfrwt>
<totfact> 0.51244275E-01</totfact>
</mgrwt>
</event>
<event>
12    1  0.7781383E-008  0.9253382E+03  0.7818608E-02  0.9394450E-01
         -1   -1    0    0    0  501 -0.00000000000E+00  0.00000000000E+00  0.38690155608E+03  0.38690155608E+03  0.00000000000E+00 0.  1.
          1   -1    0    0  501    0  0.00000000000E+00 -0.00000000000E+00 -0.24403626623E+04  0.24403626623E+04  0.00000000000E+00 0. -1.
         23    2    1    2    0    0 -0.53656828966E+03 -0.65774702328E+03 -0.61338966122E+03  0.10512388503E+04  0.91211664864E+02 0.  0.
    5000000    2    1    2    0    0  0.53656828966E+03  0.65774702328E+03 -0.14400714450E+04  0.17760253681E+04  0.59993638433E+03 0.  0.
         23    2    4    4    0    0  0.59902677177E+03  0.65604574589E+03 -0.10935742757E+04  0.14116378964E+04  0.87107748903E+02 0.  0.
         23    2    4    4    0    0 -0.62458482107E+02  0.17012773907E+01 -0.34649716932E+03  0.36438747175E+03  0.93882825323E+02 0.  0.
          4    1    3    3  502    0 -0.10179765831E+03 -0.10451504398E+03 -0.14677580411E+03  0.20695239628E+03  0.00000000000E+00 0. -1.
         -4    1    3    3    0  502 -0.43477063135E+03 -0.55323197930E+03 -0.46661385711E+03  0.84428645403E+03  0.00000000000E+00 0.  1.
         15    1    5    5    0    0  0.34108513400E+03  0.37405477463E+03 -0.69055831033E+03  0.85623009802E+03  0.17770000000E+01 0.  1.
        -15    1    5    5    0    0  0.25794163776E+03  0.28199097126E+03 -0.40301596540E+03  0.55540779834E+03  0.17770000000E+01 0. -1.
          4    1    6    6  503    0  0.21495556047E+02 -0.16200563251E+02 -0.85316414461E+02  0.89461767006E+02  0.00000000000E+00 0. -1.
         -4    1    6    6    0  503 -0.83954038154E+02  0.17901840642E+02 -0.26118075486E+03  0.27492570475E+03  0.00000000000E+00 0.  1.
<mgrwt>
<rscale>  0 0.92533819E+03</rscale>
<asrwt>0</asrwt>
<pdfrwt beam="1">  1        1 0.37544041E+00 0.92533819E+03</pdfrwt>
<pdfrwt beam="2">  1       -1 0.59523317E-01 0.92533819E+03</pdfrwt>
<totfact> 0.43848463E+00</totfact>
</mgrwt>
</event>
<event>
12    1  0.7781383E-008  0.8100559E+03  0.7818608E-02  0.9545575E-01
          2   -1    0    0  501    0  0.00000000000E+00  0.00000000000E+00  0.18897831904E+04  0.18897831904E+04  0.00000000000E+00 0. -1.
         -2   -1    0    0    0  501 -0.00000000000E+00 -0.00000000000E+00 -0.63214128190E+03  0.63214128190E+03  0.00000000000E+00 0.  1.
         23    2    1    2    0    0 -0.56013104510E+03 -0.51647435127E+03  0.13443847707E+04  0.15481092601E+04  0.93698058446E+02 0.  0.
    5000000    2    1    2    0    0  0.56013104510E+03  0.51647435127E+03 -0.86742862239E+02  0.97381521222E+03  0.60024928170E+03 0.  0.
         23    2    4    4    0    0  0.38634686363E+03  0.11236861972E+03 -0.26501019018E+03  0.49021352819E+03  0.90489207018E+02 0.  0.
         23    2    4    4    0    0  0.17378418148E+03  0.40410573155E+03  0.17826732794E+03  0.48360168403E+03  0.92676666839E+02 0.  0.
          3    1    3    3  502    0 -0.42004933022E+03 -0.43164151872E+03  0.10961637019E+04  0.12507320663E+04  0.00000000000E+00 0. -1.
         -3    1    3    3    0  502 -0.14008171488E+03 -0.84832832554E+02  0.24822106889E+03  0.29737719375E+03  0.00000000000E+00 0.  1.
         15    1    5    5    0    0  0.16200452407E+03  0.14330820505E+01 -0.10961189192E+03  0.19561555185E+03  0.17770000000E+01 0.  1.
        -15    1    5    5    0    0  0.22434233955E+03  0.11093553766E+03 -0.15539829826E+03  0.29459797634E+03  0.17770000000E+01 0. -1.
          1    1    6    6  503    0  0.11197858358E+03  0.30553902210E+03  0.90186928349E+02  0.33767881078E+03  0.00000000000E+00 0. -1.
         -1    1    6    6    0  503  0.61805597895E+02  0.98566709459E+02  0.88080399594E+02  0.14592287325E+03  0.00000000000E+00 0.  1.
<mgrwt>
<rscale>  0 0.81005590E+03</rscale>
<asrwt>0</asrwt>
<pdfrwt beam="1">  1        2 0.29073587E+00 0.81005590E+03</pdfrwt>
<pdfrwt beam="2">  1       -2 0.97252506E-01 0.81005590E+03</pdfrwt>
<totfact> 0.69491890E+00</totfact>
</mgrwt>
</event>
<event>
12    1  0.7781383E-008  0.8015125E+03  0.7818608E-02  0.9557830E-01
          2   -1    0    0  501    0  0.00000000000E+00  0.00000000000E+00  0.22576495707E+04  0.22576495707E+04  0.00000000000E+00 0. -1.
         -2   -1    0    0    0  501 -0.00000000000E+00 -0.00000000000E+00 -0.34636694941E+03  0.34636694941E+03  0.00000000000E+00 0.  1.
         23    2    1    2    0    0 -0.65281147302E+03 -0.41258000273E+03  0.69153143178E+03  0.10406003711E+04  0.90820334795E+02 0.  0.
    5000000    2    1    2    0    0  0.65281147302E+03  0.41258000273E+03  0.12197511895E+04  0.15634161490E+04  0.60007667238E+03 0.  0.
         23    2    4    4    0    0  0.31552824753E+03  0.48880363133E+02  0.11954986766E+03  0.35300756637E+03  0.91513967063E+02 0.  0.
         23    2    4    4    0    0  0.33728322549E+03  0.36369963960E+03  0.11002013219E+04  0.12104085827E+04  0.92782467607E+02 0.  0.
          3    1    3    3  502    0 -0.17480901981E+03 -0.12424814574E+03  0.24609352195E+03  0.32643194800E+03  0.00000000000E+00 0. -1.
         -3    1    3    3    0  502 -0.47800245321E+03 -0.28833185699E+03  0.44543790983E+03  0.71416842309E+03  0.00000000000E+00 0.  1.
         15    1    5    5    0    0  0.27653212665E+03  0.17036741379E+02  0.12163678864E+03  0.30258706798E+03  0.17770000000E+01 0. -1.
        -15    1    5    5    0    0  0.38996120874E+02  0.31843621754E+02 -0.20869209809E+01  0.50420498389E+02  0.17770000000E+01 0.  1.
          4    1    6    6  503    0  0.32507478674E+03  0.31491025097E+03  0.10174277544E+04  0.11135534646E+04  0.00000000000E+00 0. -1.
         -4    1    6    6    0  503  0.12208438756E+02  0.48789388636E+02  0.82773567481E+02  0.96855118058E+02  0.00000000000E+00 0.  1.
<mgrwt>
<rscale>  0 0.80151249E+03</rscale>
<asrwt>0</asrwt>
<pdfrwt beam="1">  1        2 0.34733069E+00 0.80151249E+03</pdfrwt>
<pdfrwt beam="2">  1       -2 0.53287224E-01 0.80151249E+03</pdfrwt>
<totfact> 0.16429751E+01</totfact>
</mgrwt>
</event>
<event>
12    1  0.7781383E-008  0.1262651E+04  0.7818608E-02  0.9059719E-01
          2   -1    0    0  501    0  0.00000000000E+00  0.00000000000E+00  0.12651883774E+04  0.12651883774E+04  0.00000000000E+00 0. -1.
         -2   -1    0    0    0  501 -0.00000000000E+00 -0.00000000000E+00 -0.24460237444E+04  0.24460237444E+04  0.00000000000E+00 0.  1.
         23    2    1    2    0    0 -0.93010904783E+03  0.83507163872E+03 -0.17994258894E+04  0.21929837466E+04  0.93790717061E+02 0.  0.
    5000000    2    1    2    0    0  0.93010904783E+03 -0.83507163872E+03  0.61859052249E+03  0.15182283752E+04  0.59992973105E+03 0.  0.
         23    2    4    4    0    0  0.14672181375E+03 -0.77329635231E+02  0.34170167903E+03  0.38997186370E+03  0.88379035492E+02 0.  0.
         23    2    4    4    0    0  0.78338723409E+03 -0.75774200349E+03  0.27688884346E+03  0.11282565115E+04  0.91797722219E+02 0.  0.
          3    1    3    3  502    0 -0.62988632843E+03  0.60038939269E+03 -0.11897923215E+04  0.14740522304E+04  0.00000000000E+00 0.  1.
         -3    1    3    3    0  502 -0.30022271940E+03  0.23468224603E+03 -0.60963356797E+03  0.71893151624E+03  0.00000000000E+00 0. -1.
         15    1    5    5    0    0  0.91263735516E+02 -0.87997499837E+02  0.27309972444E+03  0.30109673963E+03  0.17770000000E+01 0. -1.
        -15    1    5    5    0    0  0.55458078231E+02  0.10667864606E+02  0.68601954582E+02  0.88875124067E+02  0.17770000000E+01 0.  1.
          1    1    6    6  503    0  0.57444051211E+03 -0.52837569478E+03  0.23545985048E+03  0.81523255453E+03  0.00000000000E+00 0. -1.
         -1    1    6    6    0  503  0.20894672198E+03 -0.22936630872E+03  0.41428992988E+02  0.31302395701E+03  0.00000000000E+00 0.  1.
<mgrwt>
<rscale>  0 0.12626510E+04</rscale>
<asrwt>0</asrwt>
<pdfrwt beam="1">  1        2 0.19464437E+00 0.12626510E+04</pdfrwt>
<pdfrwt beam="2">  1       -2 0.37631134E+00 0.12626510E+04</pdfrwt>
<totfact> 0.17848383E-01</totfact>
</mgrwt>
</event>
<event>
12    1  0.7781383E-008  0.1259683E+04  0.7818608E-02  0.9062162E-01
         -3   -1    0    0    0  501 -0.00000000000E+00  0.00000000000E+00  0.89538258155E+03  0.89538258155E+03  0.00000000000E+00 0.  1.
          3   -1    0    0  501    0  0.00000000000E+00 -0.00000000000E+00 -0.18901383134E+04  0.18901383134E+04  0.00000000000E+00 0. -1.
         23    2    1    2    0    0  0.82320011517E+03  0.86634206513E+03 -0.78295363061E+03  0.14316363651E+04  0.91429157322E+02 0.  0.
    5000000    2    1    2    0    0 -0.82320011517E+03 -0.86634206513E+03 -0.21180210122E+03  0.13538845298E+04  0.59994681975E+03 0.  0.
         23    2    4    4    0    0  0.21842057007E+02 -0.29779489907E+03 -0.89659833566E+02  0.32437376262E+03  0.89557661630E+02 0.  0.
         23    2    4    4    0    0 -0.84504217218E+03 -0.56854716606E+03 -0.12214226766E+03  0.10295107672E+04  0.87358648072E+02 0.  0.
          3    1    3    3  502    0  0.60598296963E+03  0.68200455542E+03 -0.62508123483E+03  0.11059259122E+04  0.00000000000E+00 0. -1.
         -3    1    3    3    0  502  0.21721714554E+03  0.18433750971E+03 -0.15787239578E+03  0.32571045294E+03  0.00000000000E+00 0.  1.
         15    1    5    5    0    0  0.37020315338E+02 -0.23004521477E+03 -0.10107620191E+03  0.25398988347E+03  0.17770000000E+01 0. -1.
        -15    1    5    5    0    0 -0.15178258332E+02 -0.67749684305E+02  0.11416368343E+02  0.70383879152E+02  0.17770000000E+01 0.  1.
          3    1    6    6  503    0 -0.28451820508E+03 -0.21966445148E+03 -0.83560165739E+01  0.35954541199E+03  0.00000000000E+00 0.  1.
         -3    1    6    6    0  503 -0.56052396710E+03 -0.34888271458E+03 -0.11378625108E+03  0.66996535519E+03  0.00000000000E+00 0. -1.
<mgrwt>
<rscale>  0 0.12596829E+04</rscale>
<asrwt>0</asrwt>
<pdfrwt beam="1">  1        3 0.29079050E+00 0.12596829E+04</pdfrwt>
<pdfrwt beam="2">  1       -3 0.13775117E+00 0.12596829E+04</pdfrwt>
<totfact> 0.43367187E-02</totfact>
</mgrwt>
</event>
<event>
12    1  0.7781383E-008  0.1359068E+04  0.7818608E-02  0.8983992E-01
         -1   -1    0    0    0  501 -0.00000000000E+00  0.00000000000E+00  0.11091021829E+04  0.11091021829E+04  0.00000000000E+00 0.  1.
          1   -1    0    0  501    0  0.00000000000E+00 -0.00000000000E+00 -0.19370277920E+04  0.19370277920E+04  0.00000000000E+00 0. -1.
         23    2    1    2    0    0  0.11893338708E+03  0.13321777965E+04 -0.83707407486E+03  0.15802571895E+04  0.87618183158E+02 0.  0.
    5000000    2    1    2    0    0 -0.11893338708E+03 -0.13321777965E+04  0.91484657499E+01  0.14658727855E+04  0.59988040199E+03 0.  0.
         23    2    4    4    0    0  0.51246599305E+02 -0.99751035128E+03  0.21829365734E+03  0.10264385242E+04  0.90943984372E+02 0.  0.
         23    2    4    4    0    0 -0.17017998638E+03 -0.33466744523E+03 -0.20914519159E+03  0.43943426127E+03  0.91636412793E+02 0.  0.
          2    1    3    3  502    0  0.12411675778E+01  0.41461295090E+03 -0.23652886870E+03  0.47733776855E+03  0.00000000000E+00 0. -1.
         -2    1    3    3    0  502  0.11769221950E+03  0.91756484561E+03 -0.60054520617E+03  0.11029194209E+04  0.00000000000E+00 0.  1.
         15    1    5    5    0    0 -0.26181162429E+02 -0.30615597921E+03  0.67172827608E+02  0.31453502725E+03  0.17770000000E+01 0. -1.
        -15    1    5    5    0    0  0.77427761734E+02 -0.69135437207E+03  0.15112082973E+03  0.71190349696E+03  0.17770000000E+01 0.  1.
          4    1    6    6  503    0 -0.28747147914E+02 -0.60650271174E+02 -0.50879077491E+00  0.67120136879E+02  0.00000000000E+00 0. -1.
         -4    1    6    6    0  503 -0.14143283847E+03 -0.27401717406E+03 -0.20863640081E+03  0.37231412439E+03  0.00000000000E+00 0.  1.
<mgrwt>
<rscale>  0 0.13590685E+04</rscale>
<asrwt>0</asrwt>
<pdfrwt beam="1">  1        1 0.29800427E+00 0.13590685E+04</pdfrwt>
<pdfrwt beam="2">  1       -1 0.17063111E+00 0.13590685E+04</pdfrwt>
<totfact> 0.77063101E-01</totfact>
</mgrwt>
</event>
<event>
12    1  0.7781383E-008  0.5386033E+03  0.7818608E-02  0.1004167E+00
          1   -1    0    0  501    0  0.00000000000E+00  0.00000000000E+00  0.28629364744E+04  0.28629364744E+04  0.00000000000E+00 0.  1.
         -1   -1    0    0    0  501 -0.00000000000E+00 -0.00000000000E+00 -0.55249654531E+03  0.55249654531E+03  0.00000000000E+00 0. -1.
         23    2    1    2    0    0 -0.49450465164E+03 -0.22214197063E+02  0.25517894237E+04  0.26009994742E+04  0.92415805182E+02 0.  0.
    5000000    2    1    2    0    0  0.49450465164E+03  0.22214197063E+02 -0.24134949457E+03  0.81443354551E+03  0.60002008339E+03 0.  0.
         23    2    4    4    0    0  0.40007191513E+03  0.11154962663E+03 -0.40370332244E+03  0.58678039738E+03  0.93989391549E+02 0.  0.
         23    2    4    4    0    0  0.94432736507E+02 -0.89335429571E+02  0.16235382787E+03  0.22765314813E+03  0.92567973547E+02 0.  0.
          1    1    3    3  502    0 -0.35736236807E+03 -0.39775859875E+02  0.16546094093E+04  0.16932283598E+04  0.00000000000E+00 0. -1.
         -1    1    3    3    0  502 -0.13714228357E+03  0.17561662812E+02  0.89718001444E+03  0.90777111446E+03  0.00000000000E+00 0.  1.
         15    1    5    5    0    0  0.14800164252E+03  0.89087302149E+02 -0.16506497303E+03  0.23893646989E+03  0.17770000000E+01 0. -1.
        -15    1    5    5    0    0  0.25207027261E+03  0.22462324485E+02 -0.23863834941E+03  0.34784392749E+03  0.17770000000E+01 0.  1.
          1    1    6    6  503    0  0.42002317960E+02 -0.91908958682E+02  0.13448913050E+03  0.16822240523E+03  0.00000000000E+00 0. -1.
         -1    1    6    6    0  503  0.52430418548E+02  0.25735291114E+01  0.27864697371E+02  0.59430742892E+02  0.00000000000E+00 0.  1.
<mgrwt>
<rscale>  0 0.53860332E+03</rscale>
<asrwt>0</asrwt>
<pdfrwt beam="1">  1        1 0.44045176E+00 0.53860332E+03</pdfrwt>
<pdfrwt beam="2">  1       -1 0.84999470E-01 0.53860332E+03</pdfrwt>
<totfact> 0.11691149E+00</totfact>
</mgrwt>
</event>
<event>
12    1  0.7781383E-008  0.2629164E+04  0.7818608E-02  0.8358362E-01
         -1   -1    0    0    0  501 -0.00000000000E+00  0.00000000000E+00  0.21114644088E+04  0.21114644088E+04  0.00000000000E+00 0.  1.
          1   -1    0    0  501    0  0.00000000000E+00 -0.00000000000E+00 -0.33524890349E+04  0.33524890349E+04  0.00000000000E+00 0. -1.
         23    2    1    2    0    0  0.20935195086E+04  0.15817741949E+04 -0.50898852304E+03  0.26745235990E+04  0.95779060252E+02 0.  0.
    5000000    2    1    2    0    0 -0.20935195086E+04 -0.15817741949E+04 -0.73203610305E+03  0.27894298447E+04  0.60017369635E+03 0.  0.
         23    2    4    4    0    0 -0.17663139061E+04 -0.12877040119E+04 -0.80894440194E+03  0.23326123563E+04  0.92967318190E+02 0.  0.
         23    2    4    4    0    0 -0.32720560252E+03 -0.29407018298E+03  0.76908298894E+02  0.45681748839E+03  0.96054944804E+02 0.  0.
          4    1    3    3  502    0  0.10415613022E+04  0.79491080352E+03 -0.20580959462E+03  0.13263071744E+04  0.00000000000E+00 0. -1.
         -4    1    3    3    0  502  0.10519582065E+04  0.78686339141E+03 -0.30317892842E+03  0.13482164246E+04  0.00000000000E+00 0.  1.
         15    1    5    5    0    0 -0.11810289599E+04 -0.88400192754E+03 -0.58760750208E+03  0.15879466447E+04  0.17770000000E+01 0. -1.
        -15    1    5    5    0    0 -0.58528494618E+03 -0.40370208440E+03 -0.22133689986E+03  0.74466571167E+03  0.17770000000E+01 0.  1.
          3    1    6    6  503    0 -0.89618159817E+02 -0.13573141322E+03  0.66460229638E+01  0.16278390806E+03  0.00000000000E+00 0. -1.
         -3    1    6    6    0  503 -0.23758744271E+03 -0.15833876976E+03  0.70262275930E+02  0.29403358033E+03  0.00000000000E+00 0.  1.
<mgrwt>
<rscale>  0 0.26291640E+04</rscale>
<asrwt>0</asrwt>
<pdfrwt beam="1">  1        1 0.51576754E+00 0.26291640E+04</pdfrwt>
<pdfrwt beam="2">  1       -1 0.32484068E+00 0.26291640E+04</pdfrwt>
<totfact> 0.61312921E-03</totfact>
</mgrwt>
</event>
<event>
12    1  0.7781383E-008  0.5000796E+03  0.7818608E-02  0.1013758E+00
         -2   -1    0    0    0  501 -0.00000000000E+00  0.00000000000E+00  0.19097370259E+03  0.19097370259E+03  0.00000000000E+00 0.  1.
          2   -1    0    0  501    0  0.00000000000E+00 -0.00000000000E+00 -0.20670534499E+04  0.20670534499E+04  0.00000000000E+00 0. -1.
         23    2    1    2    0    0  0.28410678224E+03 -0.38659287531E+03 -0.71672050142E+03  0.86730999798E+03  0.91474807973E+02 0.  0.
    5000000    2    1    2    0    0 -0.28410678224E+03  0.38659287531E+03 -0.11593592459E+04  0.13907171545E+04  0.59984133554E+03 0.  0.
         23    2    4    4    0    0 -0.13951141222E+03  0.28419360092E+03 -0.11440525310E+04  0.11905144198E+04  0.90768678939E+02 0.  0.
         23    2    4    4    0    0 -0.14459537002E+03  0.10239927439E+03 -0.15306714876E+02  0.20020273470E+03  0.91942411513E+02 0.  0.
          3    1    3    3  502    0  0.11244098545E+03 -0.12349491567E+03 -0.18106770203E+03  0.24633205663E+03  0.00000000000E+00 0. -1.
         -3    1    3    3    0  502  0.17166579679E+03 -0.26309795964E+03 -0.53565279939E+03  0.62097794136E+03  0.00000000000E+00 0.  1.
         15    1    5    5    0    0 -0.66795382049E+02  0.52395689938E+02 -0.24915944207E+03  0.26323091895E+03  0.17770000000E+01 0.  1.
        -15    1    5    5    0    0 -0.72716030172E+02  0.23179791098E+03 -0.89489308892E+03  0.92728350083E+03  0.17770000000E+01 0. -1.
          1    1    6    6  503    0 -0.94264522882E+02  0.10454043392E+03  0.14760448607E+02  0.14153576735E+03  0.00000000000E+00 0. -1.
         -1    1    6    6    0  503 -0.50330847139E+02 -0.21411595268E+01 -0.30067163483E+02  0.58666967347E+02  0.00000000000E+00 0.  1.
<mgrwt>
<rscale>  0 0.50007956E+03</rscale>
<asrwt>0</asrwt>
<pdfrwt beam="1">  1        2 0.31800823E+00 0.50007956E+03</pdfrwt>
<pdfrwt beam="2">  1       -2 0.29380569E-01 0.50007956E+03</pdfrwt>
<totfact> 0.69674922E+01</totfact>
</mgrwt>
</event>
<event>
12    1  0.7781383E-008  0.1047761E+04  0.7818608E-02  0.9257659E-01
          2   -1    0    0  501    0  0.00000000000E+00  0.00000000000E+00  0.73391543600E+03  0.73391543600E+03  0.00000000000E+00 0. -1.
         -2   -1    0    0    0  501 -0.00000000000E+00 -0.00000000000E+00 -0.17849742861E+04  0.17849742861E+04  0.00000000000E+00 0.  1.
         23    2    1    2    0    0 -0.53156626391E+03 -0.87925435152E+03 -0.79552408985E+03  0.13025841894E+04  0.90642624466E+02 0.  0.
    5000000    2    1    2    0    0  0.53156626391E+03  0.87925435152E+03 -0.25553476029E+03  0.12163055327E+04  0.59870713013E+03 0.  0.
         23    2    4    4    0    0  0.40338194561E+03  0.41534041243E+03  0.12015023563E+03  0.59902101614E+03  0.95736337981E+02 0.  0.
         23    2    4    4    0    0  0.12818431830E+03  0.46391393908E+03 -0.37568499591E+03  0.61728451660E+03  0.90849303520E+02 0.  0.
          4    1    3    3  502    0 -0.45159008481E+03 -0.74808777972E+03 -0.71538950739E+03  0.11293144284E+04  0.00000000000E+00 0. -1.
         -4    1    3    3    0  502 -0.79976179095E+02 -0.13116657179E+03 -0.80134582468E+02  0.17326976103E+03  0.00000000000E+00 0.  1.
         15    1    5    5    0    0  0.39788144356E+03  0.40989310609E+03  0.13050927466E+03  0.58596743088E+03  0.17770000000E+01 0. -1.
        -15    1    5    5    0    0  0.55005020461E+01  0.54473063384E+01 -0.10359039040E+02  0.13053585252E+02  0.17770000000E+01 0.  1.
          1    1    6    6  503    0  0.94370087377E+02  0.43266611970E+03 -0.32866613943E+03  0.55147721234E+03  0.00000000000E+00 0. -1.
         -1    1    6    6    0  503  0.33814230921E+02  0.31247819389E+02 -0.47018856482E+02  0.65807304262E+02  0.00000000000E+00 0.  1.
<mgrwt>
<rscale>  0 0.10477606E+04</rscale>
<asrwt>0</asrwt>
<pdfrwt beam="1">  1        2 0.11291007E+00 0.10477606E+04</pdfrwt>
<pdfrwt beam="2">  1       -2 0.27461142E+00 0.10477606E+04</pdfrwt>
<totfact> 0.17440239E+00</totfact>
</mgrwt>
</event>
<event>
12    1  0.7781383E-008  0.8871380E+03  0.7818608E-02  0.9441804E-01
         -2   -1    0    0    0  501 -0.00000000000E+00  0.00000000000E+00  0.45637933661E+03  0.45637933661E+03  0.00000000000E+00 0.  1.
          2   -1    0    0  501    0  0.00000000000E+00 -0.00000000000E+00 -0.21692471041E+04  0.21692471041E+04  0.00000000000E+00 0. -1.
         23    2    1    2    0    0 -0.69221498751E+03  0.54604671088E+03 -0.10312128602E+04  0.13598880869E+04  0.92558340874E+02 0.  0.
    5000000    2    1    2    0    0  0.69221498751E+03 -0.54604671088E+03 -0.68165490732E+03  0.12657383538E+04  0.60009296636E+03 0.  0.
         23    2    4    4    0    0  0.31867754351E+03 -0.22365476263E+03 -0.64963055366E+03  0.76287553004E+03  0.91555384906E+02 0.  0.
         23    2    4    4    0    0  0.37353744401E+03 -0.32239194826E+03 -0.32024353656E+02  0.50286282379E+03  0.91535074923E+02 0.  0.
          1    1    3    3  502    0 -0.27077274460E+03  0.16536505317E+03 -0.33455526550E+03  0.46107559652E+03  0.00000000000E+00 0.  1.
         -1    1    3    3    0  502 -0.42144224291E+03  0.38068165772E+03 -0.69665759470E+03  0.89881249040E+03  0.00000000000E+00 0. -1.
         15    1    5    5    0    0  0.27318773445E+03 -0.19852029910E+03 -0.49088687383E+03  0.59583129159E+03  0.17770000000E+01 0.  1.
        -15    1    5    5    0    0  0.45489809052E+02 -0.25134463525E+02 -0.15874367983E+03  0.16704423845E+03  0.17770000000E+01 0. -1.
          3    1    6    6  503    0  0.13493290445E+03 -0.16670326446E+03 -0.38433704691E+02  0.21788532934E+03  0.00000000000E+00 0. -1.
         -3    1    6    6    0  503  0.23860453955E+03 -0.15568868379E+03  0.64093510341E+01  0.28497749444E+03  0.00000000000E+00 0.  1.
<mgrwt>
<rscale>  0 0.88713801E+03</rscale>
<asrwt>0</asrwt>
<pdfrwt beam="1">  1        2 0.33373032E+00 0.88713801E+03</pdfrwt>
<pdfrwt beam="2">  1       -2 0.70212205E-01 0.88713801E+03</pdfrwt>
<totfact> 0.10115461E+01</totfact>
</mgrwt>
</event>
<event>
12    1  0.7781383E-008  0.7071313E+03  0.7818608E-02  0.9705114E-01
          2   -1    0    0  501    0  0.00000000000E+00  0.00000000000E+00  0.11580824147E+04  0.11580824147E+04  0.00000000000E+00 0. -1.
         -2   -1    0    0    0  501 -0.00000000000E+00 -0.00000000000E+00 -0.69573466747E+03  0.69573466747E+03  0.00000000000E+00 0.  1.
         23    2    1    2    0    0  0.30798518459E+03  0.61107672954E+03  0.62290579390E+03  0.93017046673E+03  0.94529496954E+02 0.  0.
    5000000    2    1    2    0    0 -0.30798518459E+03 -0.61107672954E+03 -0.16055804664E+03  0.92364661546E+03  0.59922828755E+03 0.  0.
         23    2    4    4    0    0 -0.20136875980E+02 -0.22219638446E+03  0.20009356484E+03  0.31314787116E+03  0.90815348263E+02 0.  0.
         23    2    4    4    0    0 -0.28784830862E+03 -0.38888034508E+03 -0.36065161148E+03  0.61049874430E+03  0.92490866394E+02 0.  0.
          1    1    3    3  502    0  0.98255015878E+02  0.18286858218E+03  0.13304776589E+03  0.24656981668E+03  0.00000000000E+00 0. -1.
         -1    1    3    3    0  502  0.20973016872E+03  0.42820814736E+03  0.48985802802E+03  0.68360065005E+03  0.00000000000E+00 0.  1.
         15    1    5    5    0    0  0.33996277458E+02 -0.51902870489E+02  0.47457559575E+02  0.78134707626E+02  0.17770000000E+01 0.  1.
        -15    1    5    5    0    0 -0.54133153438E+02 -0.17029351397E+03  0.15263600527E+03  0.23501316354E+03  0.17770000000E+01 0. -1.
          2    1    6    6  503    0 -0.11913420713E+03 -0.10472278454E+03 -0.83837194187E+02  0.17941152706E+03  0.00000000000E+00 0. -1.
         -2    1    6    6    0  503 -0.16871410148E+03 -0.28415756053E+03 -0.27681441730E+03  0.43108721724E+03  0.00000000000E+00 0.  1.
<mgrwt>
<rscale>  0 0.70713131E+03</rscale>
<asrwt>0</asrwt>
<pdfrwt beam="1">  1        2 0.17816653E+00 0.70713131E+03</pdfrwt>
<pdfrwt beam="2">  1       -2 0.10703610E+00 0.70713131E+03</pdfrwt>
<totfact> 0.14429496E+01</totfact>
</mgrwt>
</event>
<event>
12    1  0.7781383E-008  0.7030792E+03  0.7818608E-02  0.9711981E-01
         -1   -1    0    0    0  501 -0.00000000000E+00  0.00000000000E+00  0.75680403497E+03  0.75680403497E+03  0.00000000000E+00 0.  1.
          1   -1    0    0  501    0  0.00000000000E+00 -0.00000000000E+00 -0.79179786711E+03  0.79179786711E+03  0.00000000000E+00 0. -1.
         23    2    1    2    0    0  0.10197567518E+03 -0.64071323723E+03 -0.10055396860E+03  0.66245474421E+03  0.88446010861E+02 0.  0.
    5000000    2    1    2    0    0 -0.10197567518E+03  0.64071323723E+03  0.65560136460E+02  0.88614715788E+03  0.60003846813E+03 0.  0.
         23    2    4    4    0    0 -0.21050819501E+03  0.21564150403E+03  0.25008693443E+03  0.40155633130E+03  0.88820346840E+02 0.  0.
         23    2    4    4    0    0  0.10853251983E+03  0.42507173320E+03 -0.18452679797E+03  0.48459082658E+03  0.91174798091E+02 0.  0.
          1    1    3    3  502    0 -0.38370069505E+01 -0.17119384082E+03 -0.24026138739E+01  0.17125368992E+03  0.00000000000E+00 0. -1.
         -1    1    3    3    0  502  0.10581268213E+03 -0.46951939641E+03 -0.98151354726E+02  0.49120105429E+03  0.00000000000E+00 0.  1.
         15    1    5    5    0    0 -0.10988398392E+02  0.60168723486E+02  0.51050884230E+02  0.79689213165E+02  0.17770000000E+01 0.  1.
        -15    1    5    5    0    0 -0.19951979661E+03  0.15547278054E+03  0.19903605020E+03  0.32186711813E+03  0.17770000000E+01 0. -1.
          3    1    6    6  503    0  0.70948630233E+02  0.32342884608E+03 -0.17822857301E+03  0.37603902835E+03  0.00000000000E+00 0. -1.
         -3    1    6    6    0  503  0.37583889592E+02  0.10164288713E+03 -0.62982249547E+01  0.10855179822E+03  0.00000000000E+00 0.  1.
<mgrwt>
<rscale>  0 0.70307918E+03</rscale>
<asrwt>0</asrwt>
<pdfrwt beam="1">  1        1 0.12181506E+00 0.70307918E+03</pdfrwt>
<pdfrwt beam="2">  1       -1 0.11643139E+00 0.70307918E+03</pdfrwt>
<totfact> 0.15498454E+01</totfact>
</mgrwt>
</event>
<event>
12    1  0.7781383E-008  0.5331580E+03  0.7818608E-02  0.1005469E+00
          2   -1    0    0  501    0  0.00000000000E+00  0.00000000000E+00  0.15642392290E+04  0.15642392290E+04  0.00000000000E+00 0.  1.
         -2   -1    0    0    0  501 -0.00000000000E+00 -0.00000000000E+00 -0.24119155650E+03  0.24119155650E+03  0.00000000000E+00 0. -1.
         23    2    1    2    0    0 -0.23778879146E+03 -0.28778638417E+03  0.10717458219E+03  0.39901969863E+03  0.91464837888E+02 0.  0.
    5000000    2    1    2    0    0  0.23778879146E+03  0.28778638417E+03  0.12158730903E+04  0.14064110868E+04  0.60023350562E+03 0.  0.
         23    2    4    4    0    0 -0.16224229584E+03 -0.13421416222E+02  0.45304947274E+03  0.48967808645E+03  0.89599702145E+02 0.  0.
         23    2    4    4    0    0  0.40003108730E+03  0.30120780039E+03  0.76282361753E+03  0.91673300038E+03  0.88025636706E+02 0.  0.
          1    1    3    3  502    0 -0.83777183142E+01 -0.56231415314E+02  0.34428237982E+01  0.56956222382E+02  0.00000000000E+00 0. -1.
         -1    1    3    3    0  502 -0.22941107315E+03 -0.23155496886E+03  0.10373175840E+03  0.34206347625E+03  0.00000000000E+00 0.  1.
         15    1    5    5    0    0 -0.14601560481E+03  0.10191970454E+02  0.42516295027E+03  0.44965667472E+03  0.17770000000E+01 0. -1.
        -15    1    5    5    0    0 -0.16226691027E+02 -0.23613386677E+02  0.27886522467E+02  0.40021411723E+02  0.17770000000E+01 0.  1.
          4    1    6    6  503    0  0.12080760156E+03  0.14406874910E+03  0.27958220075E+03  0.33692208007E+03  0.00000000000E+00 0. -1.
         -4    1    6    6    0  503  0.27922348574E+03  0.15713905129E+03  0.48324141677E+03  0.57981092031E+03  0.00000000000E+00 0.  1.
<mgrwt>
<rscale>  0 0.53315805E+03</rscale>
<asrwt>0</asrwt>
<pdfrwt beam="1">  1        2 0.24065218E+00 0.53315805E+03</pdfrwt>
<pdfrwt beam="2">  1       -2 0.37106394E-01 0.53315805E+03</pdfrwt>
<totfact> 0.83609514E+01</totfact>
</mgrwt>
</event>
<event>
12    1  0.7781383E-008  0.4691093E+03  0.7818608E-02  0.1022172E+00
         -2   -1    0    0    0  501 -0.00000000000E+00  0.00000000000E+00  0.14684611787E+03  0.14684611787E+03  0.00000000000E+00 0.  1.
          2   -1    0    0  501    0  0.00000000000E+00 -0.00000000000E+00 -0.17658795290E+04  0.17658795290E+04  0.00000000000E+00 0. -1.
         23    2    1    2    0    0  0.27790892050E+03 -0.70541367716E+02 -0.81972701538E+03  0.87301353951E+03  0.89391318111E+02 0.  0.
    5000000    2    1    2    0    0 -0.27790892050E+03  0.70541367716E+02 -0.79930639578E+03  0.10397121074E+04  0.59991757707E+03 0.  0.
         23    2    4    4    0    0 -0.38207326966E+03  0.22509442655E+03 -0.50076913978E+03  0.67517557689E+03  0.91895832430E+02 0.  0.
         23    2    4    4    0    0  0.10416434915E+03 -0.15455305884E+03 -0.29853725600E+03  0.36453653051E+03  0.95002785353E+02 0.  0.
          1    1    3    3  502    0  0.12341922852E+03 -0.75225001941E+02 -0.43576972197E+03  0.45911475414E+03  0.00000000000E+00 0. -1.
         -1    1    3    3    0  502  0.15448969198E+03  0.46836342256E+01 -0.38395729342E+03  0.41389878536E+03  0.00000000000E+00 0.  1.
         15    1    5    5    0    0 -0.68302559477E+02  0.62498551243E+02 -0.60484774922E+02  0.11060232486E+03  0.17770000000E+01 0.  1.
        -15    1    5    5    0    0 -0.31377071018E+03  0.16259587531E+03 -0.44028436486E+03  0.56457325203E+03  0.17770000000E+01 0. -1.
          2    1    6    6  503    0  0.81470685156E+02 -0.76218949777E+02 -0.23837828778E+03  0.26319386188E+03  0.00000000000E+00 0. -1.
         -2    1    6    6    0  503  0.22693663997E+02 -0.78334109061E+02 -0.60158968218E+02  0.10134266863E+03  0.00000000000E+00 0.  1.
<mgrwt>
<rscale>  0 0.46910925E+03</rscale>
<asrwt>0</asrwt>
<pdfrwt beam="1">  1        2 0.27167376E+00 0.46910925E+03</pdfrwt>
<pdfrwt beam="2">  1       -2 0.22591711E-01 0.46910925E+03</pdfrwt>
<totfact> 0.16308821E+02</totfact>
</mgrwt>
</event>
<event>
12    1  0.7781383E-008  0.1053215E+04  0.7818608E-02  0.9252031E-01
         -1   -1    0    0    0  501 -0.00000000000E+00  0.00000000000E+00  0.57047563941E+03  0.57047563941E+03  0.00000000000E+00 0.  1.
          1   -1    0    0  501    0  0.00000000000E+00 -0.00000000000E+00 -0.28867833704E+04  0.28867833704E+04  0.00000000000E+00 0. -1.
         23    2    1    2    0    0 -0.95523137061E+03  0.31550746880E+03 -0.20057692951E+04  0.22457357235E+04  0.90589958219E+02 0.  0.
    5000000    2    1    2    0    0  0.95523137061E+03 -0.31550746880E+03 -0.31053843590E+03  0.12115232863E+04  0.59945193198E+03 0.  0.
         23    2    4    4    0    0  0.79958252725E+03 -0.87907893661E+02 -0.40703008652E+03  0.90584474273E+03  0.88437497450E+02 0.  0.
         23    2    4    4    0    0  0.15564884336E+03 -0.22759957514E+03  0.96491650620E+02  0.30567854355E+03  0.90003357171E+02 0.  0.
          3    1    3    3  502    0 -0.61430322058E+03  0.15882443073E+03 -0.12887033410E+04  0.14364365450E+04  0.00000000000E+00 0. -1.
         -3    1    3    3    0  502 -0.34092815003E+03  0.15668303807E+03 -0.71706595409E+03  0.80929917856E+03  0.00000000000E+00 0.  1.
         15    1    5    5    0    0  0.28439265604E+03 -0.73614226389E+02 -0.14146781865E+03  0.32605910289E+03  0.17770000000E+01 0. -1.
        -15    1    5    5    0    0  0.51518987121E+03 -0.14293667271E+02 -0.26556226787E+03  0.57978563984E+03  0.17770000000E+01 0.  1.
          3    1    6    6  503    0  0.19251810865E+02 -0.96391194753E+02  0.52233538421E+02  0.11131144228E+03  0.00000000000E+00 0. -1.
         -3    1    6    6    0  503  0.13639703250E+03 -0.13120838039E+03  0.44258112199E+02  0.19436710126E+03  0.00000000000E+00 0.  1.
<mgrwt>
<rscale>  0 0.10532148E+04</rscale>
<asrwt>0</asrwt>
<pdfrwt beam="1">  1        1 0.44412051E+00 0.10532148E+04</pdfrwt>
<pdfrwt beam="2">  1       -1 0.87765485E-01 0.10532148E+04</pdfrwt>
<totfact> 0.93767886E-01</totfact>
</mgrwt>
</event>
<event>
12    1  0.7781383E-008  0.4368408E+03  0.7818608E-02  0.1031721E+00
          2   -1    0    0  501    0  0.00000000000E+00  0.00000000000E+00  0.49126132788E+03  0.49126132788E+03  0.00000000000E+00 0. -1.
         -2   -1    0    0    0  501 -0.00000000000E+00 -0.00000000000E+00 -0.62585313199E+03  0.62585313199E+03  0.00000000000E+00 0.  1.
         23    2    1    2    0    0  0.35114624218E+03 -0.14575004293E+03  0.13341039429E+02  0.39165227256E+03  0.93095439516E+02 0.  0.
    5000000    2    1    2    0    0 -0.35114624218E+03  0.14575004293E+03 -0.14793284354E+03  0.72546218731E+03  0.59988707321E+03 0.  0.
         23    2    4    4    0    0 -0.32689738458E+03  0.18902191733E+03  0.14437053575E+03  0.41537171882E+03  0.95391969944E+02 0.  0.
         23    2    4    4    0    0 -0.24248857600E+02 -0.43271874396E+02 -0.29230337929E+03  0.31009046849E+03  0.90853568409E+02 0.  0.
          1    1    3    3  502    0  0.10526113609E+03 -0.29273976864E+02  0.44143273761E+02  0.11783675619E+03  0.00000000000E+00 0. -1.
         -1    1    3    3    0  502  0.24588510609E+03 -0.11647606607E+03 -0.30802234332E+02  0.27381551637E+03  0.00000000000E+00 0.  1.
         15    1    5    5    0    0 -0.24790222557E+03  0.93685988798E+02  0.10932565154E+03  0.28668420562E+03  0.17770000000E+01 0. -1.
        -15    1    5    5    0    0 -0.78995159011E+02  0.95335928531E+02  0.35044884214E+02  0.12868751320E+03  0.17770000000E+01 0.  1.
          1    1    6    6  503    0 -0.59075032035E+02 -0.29769825515E+02 -0.18491237771E+03  0.19638912738E+03  0.00000000000E+00 0. -1.
         -1    1    6    6    0  503  0.34826174435E+02 -0.13502048881E+02 -0.10739100158E+03  0.11370134111E+03  0.00000000000E+00 0.  1.
<mgrwt>
<rscale>  0 0.43684079E+03</rscale>
<asrwt>0</asrwt>
<pdfrwt beam="1">  1        2 0.75578665E-01 0.43684079E+03</pdfrwt>
<pdfrwt beam="2">  1       -2 0.96285098E-01 0.43684079E+03</pdfrwt>
<totfact> 0.58901446E+01</totfact>
</mgrwt>
</event>
<event>
12    1  0.7781383E-008  0.1277159E+04  0.7818608E-02  0.9047877E-01
         -2   -1    0    0    0  501 -0.00000000000E+00  0.00000000000E+00  0.82653895479E+03  0.82653895479E+03  0.00000000000E+00 0.  1.
          2   -1    0    0  501    0  0.00000000000E+00 -0.00000000000E+00 -0.25808873582E+04  0.25808873582E+04  0.00000000000E+00 0. -1.
         23    2    1    2    0    0  0.11989963270E+04 -0.22106009998E+03 -0.44063638250E+02  0.12231604544E+04  0.87864287667E+02 0.  0.
    5000000    2    1    2    0    0 -0.11989963270E+04  0.22106009998E+03 -0.17102847652E+04  0.21842658586E+04  0.59956951473E+03 0.  0.
         23    2    4    4    0    0 -0.10962413283E+04  0.36554308523E+03 -0.14803194979E+04  0.18801705186E+04  0.91260978620E+02 0.  0.
         23    2    4    4    0    0 -0.10275499874E+03 -0.14448298525E+03 -0.22996526733E+03  0.30409534002E+03  0.90310734960E+02 0.  0.
          2    1    3    3  502    0  0.76804016327E+03 -0.11958698479E+03  0.82560133789E+01  0.77733834402E+03  0.00000000000E+00 0. -1.
         -2    1    3    3    0  502  0.43095616374E+03 -0.10147311520E+03 -0.52319651629E+02  0.44582211040E+03  0.00000000000E+00 0.  1.
         15    1    5    5    0    0 -0.40000332276E+03  0.15001004821E+03 -0.61474483782E+03  0.74861207988E+03  0.17770000000E+01 0.  1.
        -15    1    5    5    0    0 -0.69623800551E+03  0.21553303702E+03 -0.86557466006E+03  0.11315584387E+04  0.17770000000E+01 0. -1.
          1    1    6    6  503    0 -0.19447156232E+02 -0.41047480302E+02 -0.13046426926E+03  0.13814489885E+03  0.00000000000E+00 0. -1.
         -1    1    6    6    0  503 -0.83307842508E+02 -0.10343550495E+03 -0.99500998074E+02  0.16595044117E+03  0.00000000000E+00 0.  1.
<mgrwt>
<rscale>  0 0.12771591E+04</rscale>
<asrwt>0</asrwt>
<pdfrwt beam="1">  1        2 0.39705958E+00 0.12771591E+04</pdfrwt>
<pdfrwt beam="2">  1       -2 0.12715984E+00 0.12771591E+04</pdfrwt>
<totfact> 0.13936226E+00</totfact>
</mgrwt>
</event>
<event>
12    1  0.7781383E-008  0.1254120E+04  0.7818608E-02  0.9066761E-01
          1   -1    0    0  501    0  0.00000000000E+00  0.00000000000E+00  0.25970649266E+04  0.25970649266E+04  0.00000000000E+00 0. -1.
         -1   -1    0    0    0  501 -0.00000000000E+00 -0.00000000000E+00 -0.10039999839E+04  0.10039999839E+04  0.00000000000E+00 0.  1.
         23    2    1    2    0    0 -0.17437877260E+03  0.11723883992E+04  0.18965488597E+04  0.22383522335E+04  0.91763985830E+02 0.  0.
    5000000    2    1    2    0    0  0.17437877260E+03 -0.11723883992E+04 -0.30348391699E+03  0.13627126770E+04  0.59998403078E+03 0.  0.
         23    2    4    4    0    0  0.37627580515E+03 -0.61220162361E+03 -0.13318681542E+03  0.73689625028E+03  0.94355955685E+02 0.  0.
         23    2    4    4    0    0 -0.20189703255E+03 -0.56018677563E+03 -0.17029710157E+03  0.62581642673E+03  0.89852444718E+02 0.  0.
          3    1    3    3  502    0 -0.92928760317E+02  0.73527650209E+03  0.11063039993E+04  0.13316064839E+04  0.00000000000E+00 0. -1.
         -3    1    3    3    0  502 -0.81450012283E+02  0.43711189715E+03  0.79024486035E+03  0.90674574961E+03  0.00000000000E+00 0.  1.
         15    1    5    5    0    0  0.17194138457E+03 -0.19768287609E+03 -0.62727013318E+02  0.26940711786E+03  0.17770000000E+01 0.  1.
        -15    1    5    5    0    0  0.20433442058E+03 -0.41451874753E+03 -0.70459802102E+02  0.46748913242E+03  0.17770000000E+01 0. -1.
          4    1    6    6  503    0 -0.13609613050E+03 -0.44853818311E+03 -0.16207139698E+03  0.49595947028E+03  0.00000000000E+00 0. -1.
         -4    1    6    6    0  503 -0.65800902050E+02 -0.11164859252E+03 -0.82257045905E+01  0.12985695645E+03  0.00000000000E+00 0.  1.
<mgrwt>
<rscale>  0 0.12541201E+04</rscale>
<asrwt>0</asrwt>
<pdfrwt beam="1">  1        1 0.39954845E+00 0.12541201E+04</pdfrwt>
<pdfrwt beam="2">  1       -1 0.15446154E+00 0.12541201E+04</pdfrwt>
<totfact> 0.36600638E-01</totfact>
</mgrwt>
</event>
<event>
12    1  0.7781383E-008  0.6457138E+03  0.7818608E-02  0.9814855E-01
         -2   -1    0    0    0  501 -0.00000000000E+00  0.00000000000E+00  0.21429965009E+03  0.21429965009E+03  0.00000000000E+00 0.  1.
          2   -1    0    0  501    0  0.00000000000E+00 -0.00000000000E+00 -0.33426873922E+04  0.33426873922E+04  0.00000000000E+00 0. -1.
         23    2    1    2    0    0 -0.45014560327E+03 -0.25709929481E+03 -0.24731910892E+04  0.25284662534E+04  0.87956347865E+02 0.  0.
    5000000    2    1    2    0    0  0.45014560327E+03  0.25709929481E+03 -0.65519665290E+03  0.10285207889E+04  0.59986769185E+03 0.  0.
         23    2    4    4    0    0  0.56770119698E+03  0.25889943073E+03 -0.60288960415E+03  0.87256405152E+03  0.92620650673E+02 0.  0.
         23    2    4    4    0    0 -0.11755559370E+03 -0.18001359293E+01 -0.52307048744E+02  0.15595673739E+03  0.88113100556E+02 0.  0.
          1    1    3    3  502    0 -0.31728908859E+03 -0.14567786460E+03 -0.15145786533E+04  0.15542982027E+04  0.00000000000E+00 0. -1.
         -1    1    3    3    0  502 -0.13285651469E+03 -0.11142143021E+03 -0.95861243592E+03  0.97416805065E+03  0.00000000000E+00 0.  1.
         15    1    5    5    0    0  0.10796436614E+03  0.76193552409E+02 -0.16898514589E+03  0.21452482151E+03  0.17770000000E+01 0.  1.
        -15    1    5    5    0    0  0.45973683084E+03  0.18270587833E+03 -0.43390445827E+03  0.65803923001E+03  0.17770000000E+01 0. -1.
          4    1    6    6  503    0 -0.41324123104E+02 -0.39341098414E+02 -0.17558725559E+01  0.57083169701E+02  0.00000000000E+00 0. -1.
         -4    1    6    6    0  503 -0.76231470600E+02  0.37540962485E+02 -0.50551176188E+02  0.98873567692E+02  0.00000000000E+00 0.  1.
<mgrwt>
<rscale>  0 0.64571384E+03</rscale>
<asrwt>0</asrwt>
<pdfrwt beam="1">  1        2 0.51425957E+00 0.64571384E+03</pdfrwt>
<pdfrwt beam="2">  1       -2 0.32969179E-01 0.64571384E+03</pdfrwt>
<totfact> 0.98252365E+00</totfact>
</mgrwt>
</event>
<event>
12    1  0.7781383E-008  0.1097521E+04  0.7818608E-02  0.9207611E-01
          1   -1    0    0  501    0  0.00000000000E+00  0.00000000000E+00  0.90661284810E+03  0.90661284810E+03  0.00000000000E+00 0. -1.
         -1   -1    0    0    0  501 -0.00000000000E+00 -0.00000000000E+00 -0.15092784469E+04  0.15092784469E+04  0.00000000000E+00 0.  1.
         23    2    1    2    0    0  0.72083763182E+03 -0.80592290454E+03 -0.13323889267E+03  0.10931930971E+04  0.90553440189E+02 0.  0.
    5000000    2    1    2    0    0 -0.72083763182E+03  0.80592290454E+03 -0.46942670609E+03  0.13226981979E+04  0.60004205744E+03 0.  0.
         23    2    4    4    0    0 -0.27384481611E+03  0.18257603568E+03 -0.42923702897E+03  0.54917091211E+03  0.94969845523E+02 0.  0.
         23    2    4    4    0    0 -0.44699281571E+03  0.62334686886E+03 -0.40189677120E+02  0.77352728574E+03  0.91462316955E+02 0.  0.
          3    1    3    3  502    0  0.35157040535E+03 -0.32720215750E+03 -0.49182117278E+02  0.48278554499E+03  0.00000000000E+00 0. -1.
         -3    1    3    3    0  502  0.36926722646E+03 -0.47872074704E+03 -0.84056775394E+02  0.61040755211E+03  0.00000000000E+00 0.  1.
         15    1    5    5    0    0 -0.97087056068E+02  0.23492487053E+02 -0.17154040237E+03  0.19851211746E+03  0.17770000000E+01 0.  1.
        -15    1    5    5    0    0 -0.17675776004E+03  0.15908354863E+03 -0.25769662660E+03  0.35065879465E+03  0.17770000000E+01 0. -1.
          4    1    6    6  503    0 -0.22710748114E+03  0.23924431261E+03 -0.20059179883E+02  0.33048149692E+03  0.00000000000E+00 0. -1.
         -4    1    6    6    0  503 -0.21988533457E+03  0.38410255625E+03 -0.20130497237E+02  0.44304578882E+03  0.00000000000E+00 0.  1.
<mgrwt>
<rscale>  0 0.10975211E+04</rscale>
<asrwt>0</asrwt>
<pdfrwt beam="1">  1        1 0.13947890E+00 0.10975211E+04</pdfrwt>
<pdfrwt beam="2">  1       -1 0.23219668E+00 0.10975211E+04</pdfrwt>
<totfact> 0.16304496E+00</totfact>
</mgrwt>
</event>
<event>
12    1  0.7781383E-008  0.6134212E+03  0.7818608E-02  0.9877946E-01
          1   -1    0    0  501    0  0.00000000000E+00  0.00000000000E+00  0.13077669332E+04  0.13077669332E+04  0.00000000000E+00 0. -1.
         -1   -1    0    0    0  501 -0.00000000000E+00 -0.00000000000E+00 -0.46915581585E+03  0.46915581585E+03  0.00000000000E+00 0.  1.
         23    2    1    2    0    0 -0.77400168204E+02 -0.59677392321E+03  0.37163618320E+02  0.60884584791E+03  0.84748041436E+02 0.  0.
    5000000    2    1    2    0    0  0.77400168204E+02  0.59677392321E+03  0.80144749908E+03  0.11680769012E+04  0.59996304206E+03 0.  0.
         23    2    4    4    0    0  0.38766527975E+02  0.38615044336E+03  0.84198213941E+03  0.93165907129E+03  0.91867804118E+02 0.  0.
         23    2    4    4    0    0  0.38633640229E+02  0.21062347984E+03 -0.40534640331E+02  0.23641782989E+03  0.91627096455E+02 0.  0.
          4    1    3    3  502    0 -0.34914383587E+02 -0.20937208741E+03  0.53069534259E+02  0.21879684786E+03  0.00000000000E+00 0. -1.
         -4    1    3    3    0  502 -0.42485784617E+02 -0.38740183580E+03 -0.15905915939E+02  0.39004900005E+03  0.00000000000E+00 0.  1.
         15    1    5    5    0    0  0.65937441926E+02  0.22211129420E+03  0.51960403850E+03  0.56892239173E+03  0.17770000000E+01 0.  1.
        -15    1    5    5    0    0 -0.27170913951E+02  0.16403914916E+03  0.32237810092E+03  0.36273667957E+03  0.17770000000E+01 0. -1.
          1    1    6    6  503    0 -0.18265394844E+02  0.16614295895E+02 -0.22549677218E+02  0.33438711391E+02  0.00000000000E+00 0. -1.
         -1    1    6    6    0  503  0.56899035073E+02  0.19400918395E+03 -0.17984963113E+02  0.20297911850E+03  0.00000000000E+00 0.  1.
<mgrwt>
<rscale>  0 0.61342116E+03</rscale>
<asrwt>0</asrwt>
<pdfrwt beam="1">  1        1 0.20119491E+00 0.61342116E+03</pdfrwt>
<pdfrwt beam="2">  1       -1 0.72177818E-01 0.61342116E+03</pdfrwt>
<totfact> 0.18223174E+01</totfact>
</mgrwt>
</event>
<event>
12    1  0.7781383E-008  0.1267716E+04  0.7818608E-02  0.9055566E-01
         -1   -1    0    0    0  501 -0.00000000000E+00  0.00000000000E+00  0.15615101256E+04  0.15615101256E+04  0.00000000000E+00 0.  1.
          1   -1    0    0  501    0  0.00000000000E+00 -0.00000000000E+00 -0.11378465825E+04  0.11378465825E+04  0.00000000000E+00 0. -1.
         23    2    1    2    0    0  0.11298831596E+04  0.56557837082E+03  0.21615945588E+03  0.12852960202E+04  0.93520592242E+02 0.  0.
    5000000    2    1    2    0    0 -0.11298831596E+04 -0.56557837082E+03  0.20750408725E+03  0.14140606879E+04  0.59999569588E+03 0.  0.
         23    2    4    4    0    0 -0.39070331813E+03 -0.17358059357E+03  0.35007191153E+03  0.56018391147E+03  0.92067182909E+02 0.  0.
         23    2    4    4    0    0 -0.73917984148E+03 -0.39199777726E+03 -0.14256782428E+03  0.85387677648E+03  0.93439121711E+02 0.  0.
          3    1    3    3  502    0  0.18327376407E+03  0.57811008283E+02  0.47278622204E+02  0.19790566791E+03  0.00000000000E+00 0. -1.
         -3    1    3    3    0  502  0.94660939554E+03  0.50776736254E+03  0.16888083368E+03  0.10873903522E+04  0.00000000000E+00 0.  1.
         15    1    5    5    0    0 -0.35981700687E+03 -0.17736742560E+03  0.29891830265E+03  0.50028271156E+03  0.17770000000E+01 0. -1.
        -15    1    5    5    0    0 -0.30886311254E+02  0.37868320394E+01  0.51153608880E+02  0.59901199907E+02  0.17770000000E+01 0.  1.
          3    1    6    6  503    0 -0.34878198035E+03 -0.18030659734E+03 -0.19841226495E+02  0.39313230995E+03  0.00000000000E+00 0. -1.
         -3    1    6    6    0  503 -0.39039786113E+03 -0.21169117992E+03 -0.12272659779E+03  0.46074446653E+03  0.00000000000E+00 0.  1.
<mgrwt>
<rscale>  0 0.12677156E+04</rscale>
<asrwt>0</asrwt>
<pdfrwt beam="1">  1        1 0.17505332E+00 0.12677156E+04</pdfrwt>
<pdfrwt beam="2">  1       -1 0.24023233E+00 0.12677156E+04</pdfrwt>
<totfact> 0.93386156E-01</totfact>
</mgrwt>
</event>
<event>
12    1  0.7781383E-008  0.1250753E+04  0.7818608E-02  0.9069557E-01
          2   -1    0    0  501    0  0.00000000000E+00  0.00000000000E+00  0.22096129977E+04  0.22096129977E+04  0.00000000000E+00 0. -1.
         -2   -1    0    0    0  501 -0.00000000000E+00 -0.00000000000E+00 -0.73184742129E+03  0.73184742129E+03  0.00000000000E+00 0.  1.
         23    2    1    2    0    0  0.39948977110E+02 -0.11983034343E+04  0.69003903569E+03  0.13863875906E+04  0.91594973077E+02 0.  0.
    5000000    2    1    2    0    0 -0.39948977110E+02  0.11983034343E+04  0.78772654069E+03  0.15550728284E+04  0.60017610521E+03 0.  0.
         23    2    4    4    0    0  0.20280797700E+03  0.27768960098E+03  0.36432181541E+03  0.50915859857E+03  0.90936809288E+02 0.  0.
         23    2    4    4    0    0 -0.24275695411E+03  0.92061383333E+03  0.42340472528E+03  0.10459142298E+04  0.90577292292E+02 0.  0.
          2    1    3    3  502    0 -0.37018755882E+01 -0.50621529753E+03  0.33787645060E+03  0.60862806968E+03  0.00000000000E+00 0. -1.
         -2    1    3    3    0  502  0.43650852698E+02 -0.69208813677E+03  0.35216258510E+03  0.77775952089E+03  0.00000000000E+00 0.  1.
         15    1    5    5    0    0  0.10549758318E+03  0.10194914950E+03  0.10173745876E+03  0.17854141644E+03  0.17770000000E+01 0.  1.
        -15    1    5    5    0    0  0.97310393826E+02  0.17574045148E+03  0.26258435665E+03  0.33061718213E+03  0.17770000000E+01 0. -1.
          3    1    6    6  503    0 -0.23087912279E+03  0.78988285239E+03  0.38881925903E+03  0.91016509823E+03  0.00000000000E+00 0. -1.
         -3    1    6    6    0  503 -0.11877831322E+02  0.13073098093E+03  0.34585466249E+02  0.13574913159E+03  0.00000000000E+00 0.  1.
<mgrwt>
<rscale>  0 0.12507528E+04</rscale>
<asrwt>0</asrwt>
<pdfrwt beam="1">  1        2 0.33994046E+00 0.12507528E+04</pdfrwt>
<pdfrwt beam="2">  1       -2 0.11259191E+00 0.12507528E+04</pdfrwt>
<totfact> 0.30821787E+00</totfact>
</mgrwt>
</event>
<event>
12    1  0.7781383E-008  0.9961069E+03  0.7818608E-02  0.9312825E-01
          1   -1    0    0  501    0  0.00000000000E+00  0.00000000000E+00  0.22447196809E+04  0.22447196809E+04  0.00000000000E+00 0. -1.
         -1   -1    0    0    0  501 -0.00000000000E+00 -0.00000000000E+00 -0.55129126861E+03  0.55129126861E+03  0.00000000000E+00 0.  1.
         23    2    1    2    0    0  0.92085350221E+03  0.35123378745E+03  0.11596116272E+04  0.15246656238E+04  0.92573173785E+02 0.  0.
    5000000    2    1    2    0    0 -0.92085350221E+03 -0.35123378745E+03  0.53381678505E+03  0.12713453257E+04  0.60001852562E+03 0.  0.
         23    2    4    4    0    0 -0.23882497111E+03 -0.14968472188E+03  0.46415542819E+03  0.55091770137E+03  0.92882556928E+02 0.  0.
         23    2    4    4    0    0 -0.68202853110E+03 -0.20154906558E+03  0.69661356857E+02  0.72042762428E+03  0.91533131284E+02 0.  0.
          3    1    3    3  502    0  0.75779902184E+03  0.28773512724E+03  0.89584096106E+03  0.12081315692E+04  0.00000000000E+00 0. -1.
         -3    1    3    3    0  502  0.16305448037E+03  0.63498660214E+02  0.26377066619E+03  0.31653405466E+03  0.00000000000E+00 0.  1.
         15    1    5    5    0    0 -0.16367572086E+03 -0.55790490058E+02  0.31460392742E+03  0.35900015217E+03  0.17770000000E+01 0. -1.
        -15    1    5    5    0    0 -0.75149250254E+02 -0.93894231817E+02  0.14955150076E+03  0.19191754920E+03  0.17770000000E+01 0.  1.
          1    1    6    6  503    0 -0.35396698470E+03 -0.75090579117E+02  0.71456032970E+02  0.36883219216E+03  0.00000000000E+00 0. -1.
         -1    1    6    6    0  503 -0.32806154640E+03 -0.12645848646E+03 -0.17946761129E+01  0.35159543212E+03  0.00000000000E+00 0.  1.
<mgrwt>
<rscale>  0 0.99610689E+03</rscale>
<asrwt>0</asrwt>
<pdfrwt beam="1">  1        1 0.34534148E+00 0.99610689E+03</pdfrwt>
<pdfrwt beam="2">  1       -1 0.84814043E-01 0.99610689E+03</pdfrwt>
<totfact> 0.28361041E+00</totfact>
</mgrwt>
</event>
<event>
12    1  0.7781383E-008  0.3594571E+03  0.7818608E-02  0.1058799E+00
         -1   -1    0    0    0  501 -0.00000000000E+00  0.00000000000E+00  0.47400865245E+03  0.47400865245E+03  0.00000000000E+00 0. -1.
          1   -1    0    0  501    0  0.00000000000E+00 -0.00000000000E+00 -0.40626211127E+03  0.40626211127E+03  0.00000000000E+00 0.  1.
         23    2    1    2    0    0 -0.19362362849E+03  0.10457761988E+03  0.28204055635E+02  0.23995860166E+03  0.91422500877E+02 0.  0.
    5000000    2    1    2    0    0  0.19362362849E+03 -0.10457761988E+03  0.39542485547E+02  0.64031216205E+03  0.60000789046E+03 0.  0.
         23    2    4    4    0    0 -0.59150519102E+02 -0.19556304820E+03  0.21388353713E+03  0.30730164224E+03  0.83333319509E+02 0.  0.
         23    2    4    4    0    0  0.25277414760E+03  0.90985428316E+02 -0.17434105158E+03  0.33301051981E+03  0.91258348539E+02 0.  0.
          2    1    3    3  502    0 -0.71244921776E+02  0.10066814860E+02  0.44302689580E+02  0.84497975978E+02  0.00000000000E+00 0. -1.
         -2    1    3    3    0  502 -0.12237870672E+03  0.94510805019E+02 -0.16098633945E+02  0.15546062568E+03  0.00000000000E+00 0.  1.
         15    1    5    5    0    0 -0.75181425674E+01 -0.97276044363E+02  0.50820748810E+02  0.11002298629E+03  0.17770000000E+01 0. -1.
        -15    1    5    5    0    0 -0.51632376535E+02 -0.98287003832E+02  0.16306278832E+03  0.19727865595E+03  0.17770000000E+01 0.  1.
          1    1    6    6  503    0  0.84341486707E+02 -0.13635100803E+02 -0.51178544990E+02  0.99592398410E+02  0.00000000000E+00 0. -1.
         -1    1    6    6    0  503  0.16843266089E+03  0.10462052912E+03 -0.12316250659E+03  0.23341812140E+03  0.00000000000E+00 0.  1.
<mgrwt>
<rscale>  0 0.35945714E+03</rscale>
<asrwt>0</asrwt>
<pdfrwt beam="1">  1        1 0.62501863E-01 0.35945714E+03</pdfrwt>
<pdfrwt beam="2">  1       -1 0.72924408E-01 0.35945714E+03</pdfrwt>
<totfact> 0.11706132E+02</totfact>
</mgrwt>
</event>
<event>
12    1  0.7781383E-008  0.7316864E+03  0.7818608E-02  0.9664528E-01
         -1   -1    0    0    0  501 -0.00000000000E+00  0.00000000000E+00  0.14575380891E+04  0.14575380891E+04  0.00000000000E+00 0.  1.
          1   -1    0    0  501    0  0.00000000000E+00 -0.00000000000E+00 -0.44074157605E+03  0.44074157605E+03  0.00000000000E+00 0. -1.
         23    2    1    2    0    0  0.47134912121E+03  0.42857073339E+03  0.74005263433E+03  0.98055769209E+03  0.89289519813E+02 0.  0.
    5000000    2    1    2    0    0 -0.47134912121E+03 -0.42857073339E+03  0.27674387876E+03  0.91772197310E+03  0.59981962112E+03 0.  0.
         23    2    4    4    0    0  0.93661369624E+01 -0.31233343172E+03  0.25543875414E+03  0.41421682069E+03  0.93202576852E+02 0.  0.
         23    2    4    4    0    0 -0.48071525818E+03 -0.11623730167E+03  0.21305124619E+02  0.50350515241E+03  0.92006849859E+02 0.  0.
          3    1    3    3  502    0  0.27688463263E+03  0.30076119434E+03  0.43605014355E+03  0.59771408173E+03  0.00000000000E+00 0. -1.
         -3    1    3    3    0  502  0.19446448858E+03  0.12780953905E+03  0.30400249078E+03  0.38284361036E+03  0.00000000000E+00 0.  1.
         15    1    5    5    0    0 -0.36907322894E+02 -0.12849136613E+03  0.13267307834E+03  0.18835467900E+03  0.17770000000E+01 0. -1.
        -15    1    5    5    0    0  0.46273459857E+02 -0.18384206559E+03  0.12276567580E+03  0.22586214169E+03  0.17770000000E+01 0.  1.
          1    1    6    6  503    0 -0.23803675123E+03 -0.25122388767E+02  0.43717794356E+02  0.24331846395E+03  0.00000000000E+00 0. -1.
         -1    1    6    6    0  503 -0.24267850695E+03 -0.91114912905E+02 -0.22412669737E+02  0.26018668846E+03  0.00000000000E+00 0.  1.
<mgrwt>
<rscale>  0 0.73168643E+03</rscale>
<asrwt>0</asrwt>
<pdfrwt beam="1">  1        1 0.67806397E-01 0.73168643E+03</pdfrwt>
<pdfrwt beam="2">  1       -1 0.22423663E+00 0.73168643E+03</pdfrwt>
<totfact> 0.56437834E+00</totfact>
</mgrwt>
</event>
<event>
12    1  0.7781383E-008  0.8821723E+03  0.7818608E-02  0.9448145E-01
          1   -1    0    0  501    0  0.00000000000E+00  0.00000000000E+00  0.28921503148E+04  0.28921503148E+04  0.00000000000E+00 0. -1.
         -1   -1    0    0    0  501 -0.00000000000E+00 -0.00000000000E+00 -0.32502474438E+03  0.32502474438E+03  0.00000000000E+00 0.  1.
         23    2    1    2    0    0 -0.39466355520E+02 -0.87174363805E+03  0.10721125518E+04  0.13850698723E+04  0.86594824380E+02 0.  0.
    5000000    2    1    2    0    0  0.39466355520E+02  0.87174363805E+03  0.14950130186E+04  0.18321051869E+04  0.60004243717E+03 0.  0.
         23    2    4    4    0    0  0.44310306699E+02  0.60506452395E+03  0.14101836126E+04  0.15378818915E+04  0.91631924460E+02 0.  0.
         23    2    4    4    0    0 -0.48439511791E+01  0.26667911410E+03  0.84829405988E+02  0.29422329538E+03  0.90719929798E+02 0.  0.
          3    1    3    3  502    0 -0.38708596313E+02 -0.65234109276E+03  0.74256543636E+03  0.98916666139E+03  0.00000000000E+00 0. -1.
         -3    1    3    3    0  502 -0.75775920705E+00 -0.21940254529E+03  0.32954711545E+03  0.39590321087E+03  0.00000000000E+00 0.  1.
         15    1    5    5    0    0  0.68772247098E+02  0.47115741424E+03  0.10537339376E+04  0.11563205870E+04  0.17770000000E+01 0.  1.
        -15    1    5    5    0    0 -0.24461940399E+02  0.13390710971E+03  0.35644967499E+03  0.38156130450E+03  0.17770000000E+01 0. -1.
          2    1    6    6  503    0 -0.30090190960E+02  0.35183334183E+02  0.29422686707E+02  0.54854180236E+02  0.00000000000E+00 0. -1.
         -2    1    6    6    0  503  0.25246239781E+02  0.23149577992E+03  0.55406719281E+02  0.23936911514E+03  0.00000000000E+00 0.  1.
<mgrwt>
<rscale>  0 0.88217226E+03</rscale>
<asrwt>0</asrwt>
<pdfrwt beam="1">  1        1 0.44494618E+00 0.88217226E+03</pdfrwt>
<pdfrwt beam="2">  1       -1 0.50003809E-01 0.88217226E+03</pdfrwt>
<totfact> 0.29999262E+00</totfact>
</mgrwt>
</event>
<event>
12    1  0.7781383E-008  0.1105799E+04  0.7818608E-02  0.9199558E-01
         -2   -1    0    0    0  501 -0.00000000000E+00  0.00000000000E+00  0.36519328592E+03  0.36519328592E+03  0.00000000000E+00 0.  1.
          2   -1    0    0  501    0  0.00000000000E+00 -0.00000000000E+00 -0.37077053159E+04  0.37077053159E+04  0.00000000000E+00 0. -1.
         23    2    1    2    0    0 -0.74806659587E+03  0.74876954190E+03 -0.19732364462E+04  0.22411748665E+04  0.94568764454E+02 0.  0.
    5000000    2    1    2    0    0  0.74806659587E+03 -0.74876954190E+03 -0.13692755838E+04  0.18317237352E+04  0.60003063188E+03 0.  0.
         23    2    4    4    0    0  0.61281562307E+02 -0.34750716348E+03 -0.69904511903E+03  0.78763781386E+03  0.84809131814E+02 0.  0.
         23    2    4    4    0    0  0.68678503356E+03 -0.40126237842E+03 -0.67023046474E+03  0.10440859214E+04  0.90671697267E+02 0.  0.
          1    1    3    3  502    0 -0.56210412392E+03  0.55568679659E+03 -0.15559165361E+04  0.17451719483E+04  0.00000000000E+00 0. -1.
         -1    1    3    3    0  502 -0.18596247194E+03  0.19308274531E+03 -0.41731991010E+03  0.49600291821E+03  0.00000000000E+00 0.  1.
         15    1    5    5    0    0  0.77764533243E+00 -0.20298606664E+02 -0.10580570929E+02  0.22972687587E+02  0.17770000000E+01 0. -1.
        -15    1    5    5    0    0  0.60503916975E+02 -0.32720855682E+03 -0.68846454810E+03  0.76466512628E+03  0.17770000000E+01 0.  1.
          1    1    6    6  503    0  0.17133300743E+03 -0.58907034007E+02 -0.16902074367E+03  0.24777620928E+03  0.00000000000E+00 0. -1.
         -1    1    6    6    0  503  0.51545202613E+03 -0.34235534441E+03 -0.50120972107E+03  0.79630971210E+03  0.00000000000E+00 0.  1.
<mgrwt>
<rscale>  0 0.11057994E+04</rscale>
<asrwt>0</asrwt>
<pdfrwt beam="1">  1        2 0.57041619E+00 0.11057994E+04</pdfrwt>
<pdfrwt beam="2">  1       -2 0.56183583E-01 0.11057994E+04</pdfrwt>
<totfact> 0.17580697E+00</totfact>
</mgrwt>
</event>
<event>
12    1  0.7781383E-008  0.9042169E+03  0.7818608E-02  0.9420325E-01
         -2   -1    0    0    0  501 -0.00000000000E+00  0.00000000000E+00  0.79964958438E+03  0.79964958438E+03  0.00000000000E+00 0.  1.
          2   -1    0    0  501    0  0.00000000000E+00 -0.00000000000E+00 -0.13960622405E+04  0.13960622405E+04  0.00000000000E+00 0. -1.
         23    2    1    2    0    0 -0.72668902727E+03  0.41004951973E+03 -0.78708032734E+03  0.11504617025E+04  0.88595351344E+02 0.  0.
    5000000    2    1    2    0    0  0.72668902727E+03 -0.41004951973E+03  0.19066767127E+03  0.10452501223E+04  0.59998008831E+03 0.  0.
         23    2    4    4    0    0  0.26173136507E+03  0.88238690266E+02 -0.85781603442E+02  0.30363522512E+03  0.92447241827E+02 0.  0.
         23    2    4    4    0    0  0.46495766220E+03 -0.49828821000E+03  0.27644927471E+03  0.74161489720E+03  0.95350335127E+02 0.  0.
          3    1    3    3  502    0 -0.58243099586E+03  0.34879259710E+03 -0.67838100318E+03  0.95973065295E+03  0.00000000000E+00 0. -1.
         -3    1    3    3    0  502 -0.14425803141E+03  0.61256922630E+02 -0.10869932416E+03  0.19073104957E+03  0.00000000000E+00 0.  1.
         15    1    5    5    0    0  0.83323772749E+02  0.73355696178E+02 -0.46317828800E+02  0.12030132277E+03  0.17770000000E+01 0. -1.
        -15    1    5    5    0    0  0.17840759233E+03  0.14882994088E+02 -0.39463774642E+02  0.18333390235E+03  0.17770000000E+01 0.  1.
          4    1    6    6  503    0  0.42652913531E+03 -0.47218617352E+03  0.23189054802E+03  0.67724449942E+03  0.00000000000E+00 0.  1.
         -4    1    6    6    0  503  0.38428526888E+02 -0.26102036480E+02  0.44558726688E+02  0.64370397787E+02  0.00000000000E+00 0. -1.
<mgrwt>
<rscale>  0 0.90421695E+03</rscale>
<asrwt>0</asrwt>
<pdfrwt beam="1">  1        2 0.21477880E+00 0.90421695E+03</pdfrwt>
<pdfrwt beam="2">  1       -2 0.12302301E+00 0.90421695E+03</pdfrwt>
<totfact> 0.72849896E+00</totfact>
</mgrwt>
</event>
<event>
12    1  0.7781383E-008  0.3663858E+03  0.7818608E-02  0.1056084E+00
         -2   -1    0    0    0  501 -0.00000000000E+00  0.00000000000E+00  0.28724883376E+03  0.28724883376E+03  0.00000000000E+00 0.  1.
          2   -1    0    0  501    0  0.00000000000E+00 -0.00000000000E+00 -0.21333212353E+04  0.21333212353E+04  0.00000000000E+00 0. -1.
         23    2    1    2    0    0  0.18086696601E+03 -0.17234676155E+03  0.16114088893E+03  0.31071936655E+03  0.90354153503E+02 0.  0.
    5000000    2    1    2    0    0 -0.18086696601E+03  0.17234676155E+03 -0.20072132905E+04  0.21098507025E+04  0.60012376038E+03 0.  0.
         23    2    4    4    0    0 -0.29398702354E+03  0.18585770506E+03 -0.63225788185E+03  0.72720212626E+03  0.90008037011E+02 0.  0.
         23    2    4    4    0    0  0.11312005753E+03 -0.13510943507E+02 -0.13749554086E+04  0.13826485762E+04  0.90752502337E+02 0.  0.
          4    1    3    3  502    0  0.12599323350E+03 -0.12428142385E+03  0.61765359460E+02  0.18744366308E+03  0.00000000000E+00 0.  1.
         -4    1    3    3    0  502  0.54873732509E+02 -0.48065337706E+02  0.99375529472E+02  0.12327570347E+03  0.00000000000E+00 0. -1.
         15    1    5    5    0    0 -0.54663289851E+02  0.48035286501E+02 -0.71045908839E+02  0.10171599136E+03  0.17770000000E+01 0.  1.
        -15    1    5    5    0    0 -0.23932373369E+03  0.13782241856E+03 -0.56121197301E+03  0.62548613490E+03  0.17770000000E+01 0. -1.
          3    1    6    6  503    0  0.39480828173E+02 -0.39443124580E+02 -0.32179877320E+03  0.32660212232E+03  0.00000000000E+00 0. -1.
         -3    1    6    6    0  503  0.73639229357E+02  0.25932181072E+02 -0.10531566354E+04  0.10560464539E+04  0.00000000000E+00 0.  1.
<mgrwt>
<rscale>  0 0.36638584E+03</rscale>
<asrwt>0</asrwt>
<pdfrwt beam="1">  1        2 0.32820328E+00 0.36638584E+03</pdfrwt>
<pdfrwt beam="2">  1       -2 0.44192126E-01 0.36638584E+03</pdfrwt>
<totfact> 0.30472068E+01</totfact>
</mgrwt>
</event>
<event>
12    1  0.7781383E-008  0.1073045E+04  0.7818608E-02  0.9231870E-01
         -2   -1    0    0    0  501 -0.00000000000E+00  0.00000000000E+00  0.57458161323E+03  0.57458161323E+03  0.00000000000E+00 0.  1.
          2   -1    0    0  501    0  0.00000000000E+00 -0.00000000000E+00 -0.23815595456E+04  0.23815595456E+04  0.00000000000E+00 0. -1.
         23    2    1    2    0    0 -0.95981336695E+03  0.47145649110E+03 -0.57290509143E+03  0.12164698976E+04  0.89810052976E+02 0.  0.
    5000000    2    1    2    0    0  0.95981336695E+03 -0.47145649110E+03 -0.12340728409E+04  0.17396712612E+04  0.60000616495E+03 0.  0.
         23    2    4    4    0    0  0.57119743285E+03 -0.27254852367E+03 -0.11024103145E+04  0.12744112911E+04  0.90919922044E+02 0.  0.
         23    2    4    4    0    0  0.38861593410E+03 -0.19890796743E+03 -0.13166252639E+03  0.46525997012E+03  0.92439684089E+02 0.  0.
          2    1    3    3  502    0 -0.74782726417E+03  0.38971705754E+03 -0.48538106677E+03  0.97299526307E+03  0.00000000000E+00 0. -1.
         -2    1    3    3    0  502 -0.21198610278E+03  0.81739433566E+02 -0.87524024663E+02  0.24347463454E+03  0.00000000000E+00 0.  1.
         15    1    5    5    0    0  0.44755177910E+03 -0.17159327203E+03 -0.84683776979E+03  0.97307975626E+03  0.17770000000E+01 0.  1.
        -15    1    5    5    0    0  0.12364565376E+03 -0.10095525164E+03 -0.25557254470E+03  0.30133153480E+03  0.17770000000E+01 0. -1.
          1    1    6    6  503    0  0.91766708328E+02 -0.51187969460E+02  0.81970265156E+01  0.10539700289E+03  0.00000000000E+00 0. -1.
         -1    1    6    6    0  503  0.29684922577E+03 -0.14771999797E+03 -0.13985955290E+03  0.35986296722E+03  0.00000000000E+00 0.  1.
<mgrwt>
<rscale>  0 0.10730449E+04</rscale>
<asrwt>0</asrwt>
<pdfrwt beam="1">  1        2 0.36639377E+00 0.10730449E+04</pdfrwt>
<pdfrwt beam="2">  1       -2 0.88397172E-01 0.10730449E+04</pdfrwt>
<totfact> 0.44783534E+00</totfact>
</mgrwt>
</event>
<event>
12    1  0.7781383E-008  0.1296682E+04  0.7818608E-02  0.9032200E-01
         -1   -1    0    0    0  501 -0.00000000000E+00  0.00000000000E+00  0.21019444977E+04  0.21019444977E+04  0.00000000000E+00 0.  1.
          1   -1    0    0  501    0  0.00000000000E+00 -0.00000000000E+00 -0.81778969842E+03  0.81778969842E+03  0.00000000000E+00 0. -1.
         23    2    1    2    0    0 -0.78457203574E+03  0.95947497794E+03  0.54708310920E+03  0.13578755199E+04  0.91544997257E+02 0.  0.
    5000000    2    1    2    0    0  0.78457203574E+03 -0.95947497794E+03  0.73707169012E+03  0.15618586763E+04  0.59998527965E+03 0.  0.
         23    2    4    4    0    0 -0.72000746399E+02 -0.17381898682E+03  0.14483435934E+03  0.25430254589E+03  0.91080434463E+02 0.  0.
         23    2    4    4    0    0  0.85657278214E+03 -0.78565599112E+03  0.59223733078E+03  0.13075561304E+04  0.89362803793E+02 0.  0.
          2    1    3    3  502    0 -0.32294533836E+03  0.43141478172E+03  0.28053206302E+03  0.60754476694E+03  0.00000000000E+00 0. -1.
         -2    1    3    3    0  502 -0.46162669738E+03  0.52806019622E+03  0.26655104618E+03  0.75033075293E+03  0.00000000000E+00 0.  1.
         15    1    5    5    0    0 -0.61328761027E+02 -0.15139612048E+03  0.74216941146E+02  0.17942495453E+03  0.17770000000E+01 0.  1.
        -15    1    5    5    0    0 -0.10671985372E+02 -0.22422866330E+02  0.70617418195E+02  0.74877591359E+02  0.17770000000E+01 0. -1.
          3    1    6    6  503    0  0.11709568067E+03 -0.73934694579E+02  0.87593717911E+02  0.16386090721E+03  0.00000000000E+00 0. -1.
         -3    1    6    6    0  503  0.73947710147E+03 -0.71172129654E+03  0.50464361287E+03  0.11436952232E+04  0.00000000000E+00 0.  1.
<mgrwt>
<rscale>  0 0.12966822E+04</rscale>
<asrwt>0</asrwt>
<pdfrwt beam="1">  1        1 0.12581380E+00 0.12966822E+04</pdfrwt>
<pdfrwt beam="2">  1       -1 0.32337607E+00 0.12966822E+04</pdfrwt>
<totfact> 0.48485065E-01</totfact>
</mgrwt>
</event>
<event>
12    1  0.7781383E-008  0.1198267E+04  0.7818608E-02  0.9114375E-01
         -2   -1    0    0    0  501 -0.00000000000E+00  0.00000000000E+00  0.38724703397E+04  0.38724703397E+04  0.00000000000E+00 0.  1.
          2   -1    0    0  501    0  0.00000000000E+00 -0.00000000000E+00 -0.43878480276E+03  0.43878480276E+03  0.00000000000E+00 0. -1.
         23    2    1    2    0    0  0.44560256243E+03  0.11065391680E+04  0.11128736715E+04  0.16336322475E+04  0.85299105844E+02 0.  0.
    5000000    2    1    2    0    0 -0.44560256243E+03 -0.11065391680E+04  0.23208118654E+04  0.26776228949E+04  0.60042158414E+03 0.  0.
         23    2    4    4    0    0 -0.29636585155E+03 -0.73144182684E+03  0.20067705282E+04  0.21582707915E+04  0.90360348000E+02 0.  0.
         23    2    4    4    0    0 -0.14923671088E+03 -0.37509734117E+03  0.31404133717E+03  0.51935210338E+03  0.90194426733E+02 0.  0.
          2    1    3    3  502    0  0.26703975277E+03  0.69584110962E+03  0.64062648541E+03  0.98280586751E+03  0.00000000000E+00 0.  1.
         -2    1    3    3    0  502  0.17856280966E+03  0.41069805839E+03  0.47224718611E+03  0.65082638003E+03  0.00000000000E+00 0. -1.
         15    1    5    5    0    0 -0.91672534061E+02 -0.34584908407E+03  0.90610672095E+03  0.97419094121E+03  0.17770000000E+01 0.  1.
        -15    1    5    5    0    0 -0.20469331749E+03 -0.38559274278E+03  0.11006638073E+04  0.11840798503E+04  0.17770000000E+01 0. -1.
          4    1    6    6  503    0 -0.14739582862E+03 -0.30350434823E+03  0.28646779031E+03  0.44261068059E+03  0.00000000000E+00 0. -1.
         -4    1    6    6    0  503 -0.18408822544E+01 -0.71592992942E+02  0.27573546855E+02  0.76741422791E+02  0.00000000000E+00 0.  1.
<mgrwt>
<rscale>  0 0.11982671E+04</rscale>
<asrwt>0</asrwt>
<pdfrwt beam="1">  1        2 0.67505357E-01 0.11982671E+04</pdfrwt>
<pdfrwt beam="2">  1       -2 0.59576464E+00 0.11982671E+04</pdfrwt>
<totfact> 0.36292582E-02</totfact>
</mgrwt>
</event>
<event>
12    1  0.7781383E-008  0.6149091E+03  0.7818608E-02  0.9874948E-01
         -2   -1    0    0    0  501 -0.00000000000E+00  0.00000000000E+00  0.30111473539E+03  0.30111473539E+03  0.00000000000E+00 0.  1.
          2   -1    0    0  501    0  0.00000000000E+00 -0.00000000000E+00 -0.17760292201E+04  0.17760292201E+04  0.00000000000E+00 0. -1.
         23    2    1    2    0    0 -0.50434077393E+02  0.49975835671E+03 -0.10940290883E+04  0.12072411852E+04  0.90717263343E+02 0.  0.
    5000000    2    1    2    0    0  0.50434077393E+02 -0.49975835671E+03 -0.38088539631E+03  0.86990277023E+03  0.59946237018E+03 0.  0.
         23    2    4    4    0    0  0.49942565020E+02  0.10175694353E+03 -0.18031436561E+03  0.22927884532E+03  0.84892774190E+02 0.  0.
         23    2    4    4    0    0  0.49151237263E+00 -0.60151530024E+03 -0.20057103071E+03  0.64062392491E+03  0.91374924381E+02 0.  0.
          4    1    3    3  502    0  0.12581377974E+02  0.24270959211E+03 -0.46170289332E+03  0.52176220530E+03  0.00000000000E+00 0. -1.
         -4    1    3    3    0  502 -0.63015455367E+02  0.25704876461E+03 -0.63232619502E+03  0.68547897992E+03  0.00000000000E+00 0.  1.
         15    1    5    5    0    0  0.54926086962E+01  0.57726357121E+02 -0.14773227865E+03  0.15871510622E+03  0.17770000000E+01 0.  1.
        -15    1    5    5    0    0  0.44449956324E+02  0.44030586406E+02 -0.32582086951E+02  0.70563739098E+02  0.17770000000E+01 0. -1.
          1    1    6    6  503    0  0.97118885668E+00 -0.31637583417E+03 -0.15341272608E+03  0.35161068837E+03  0.00000000000E+00 0. -1.
         -1    1    6    6    0  503 -0.47967648405E+00 -0.28513946607E+03 -0.47158304626E+02  0.28901323654E+03  0.00000000000E+00 0.  1.
<mgrwt>
<rscale>  0 0.61490913E+03</rscale>
<asrwt>0</asrwt>
<pdfrwt beam="1">  1        2 0.27323526E+00 0.61490913E+03</pdfrwt>
<pdfrwt beam="2">  1       -2 0.46325345E-01 0.61490913E+03</pdfrwt>
<totfact> 0.41085576E+01</totfact>
</mgrwt>
</event>
<event>
12    1  0.7781383E-008  0.1261278E+04  0.7818608E-02  0.9060848E-01
         -2   -1    0    0    0  501 -0.00000000000E+00  0.00000000000E+00  0.79943180642E+03  0.79943180642E+03  0.00000000000E+00 0.  1.
          2   -1    0    0  501    0  0.00000000000E+00 -0.00000000000E+00 -0.20153309319E+04  0.20153309319E+04  0.00000000000E+00 0. -1.
         23    2    1    2    0    0  0.39661007615E+02  0.11956688726E+04 -0.60990833411E+03  0.13456175091E+04  0.86609794906E+02 0.  0.
    5000000    2    1    2    0    0 -0.39661007615E+02 -0.11956688726E+04 -0.60599079140E+03  0.14691452292E+04  0.59997151345E+03 0.  0.
         23    2    4    4    0    0 -0.29125837263E+03 -0.53494387959E+03 -0.19647157109E+03  0.64695282699E+03  0.94607019648E+02 0.  0.
         23    2    4    4    0    0  0.25159736502E+03 -0.66072499296E+03 -0.40951922031E+03  0.82219240223E+03  0.91845544608E+02 0.  0.
          1    1    3    3  502    0  0.63853470246E+02  0.77275234050E+03 -0.41223854266E+03  0.87815947383E+03  0.00000000000E+00 0. -1.
         -1    1    3    3    0  502 -0.24192462631E+02  0.42291653205E+03 -0.19766979145E+03  0.46745803532E+03  0.00000000000E+00 0.  1.
         15    1    5    5    0    0 -0.98230251945E+02 -0.23116102788E+03 -0.12271330810E+03  0.27954662745E+03  0.17770000000E+01 0. -1.
        -15    1    5    5    0    0 -0.19302812069E+03 -0.30378285171E+03 -0.73758262988E+02  0.36740619954E+03  0.17770000000E+01 0.  1.
          2    1    6    6  503    0  0.13615977380E+02 -0.13137466085E+03 -0.87870754013E+02  0.15863784468E+03  0.00000000000E+00 0. -1.
         -2    1    6    6    0  503  0.23798138764E+03 -0.52935033211E+03 -0.32164846630E+03  0.66355455754E+03  0.00000000000E+00 0.  1.
<mgrwt>
<rscale>  0 0.12612783E+04</rscale>
<asrwt>0</asrwt>
<pdfrwt beam="1">  1        2 0.31005091E+00 0.12612783E+04</pdfrwt>
<pdfrwt beam="2">  1       -2 0.12298951E+00 0.12612783E+04</pdfrwt>
<totfact> 0.31729003E+00</totfact>
</mgrwt>
</event>
<event>
12    1  0.7781383E-008  0.9104199E+03  0.7818608E-02  0.9412649E-01
          1   -1    0    0  501    0  0.00000000000E+00  0.00000000000E+00  0.12797558672E+04  0.12797558672E+04  0.00000000000E+00 0. -1.
         -1   -1    0    0    0  501 -0.00000000000E+00 -0.00000000000E+00 -0.97286218301E+03  0.97286218301E+03  0.00000000000E+00 0.  1.
         23    2    1    2    0    0 -0.55042013800E+03  0.61344499271E+03  0.77121450949E+03  0.11324257311E+04  0.91318834324E+02 0.  0.
    5000000    2    1    2    0    0  0.55042013800E+03 -0.61344499271E+03 -0.46432082526E+03  0.11201923191E+04  0.59996659542E+03 0.  0.
         23    2    4    4    0    0  0.76610444171E+02  0.84996774065E+02  0.97196543806E+01  0.14768642287E+03  0.92861165521E+02 0.  0.
         23    2    4    4    0    0  0.47380969383E+03 -0.69844176677E+03 -0.47404047965E+03  0.97250589623E+03  0.93470927728E+02 0.  0.
          1    1    3    3  502    0 -0.51403842023E+03  0.53204407952E+03  0.67922568894E+03  0.10043176472E+04  0.00000000000E+00 0. -1.
         -1    1    3    3    0  502 -0.36381717763E+02  0.81400913188E+02  0.91988820550E+02  0.12810808390E+03  0.00000000000E+00 0.  1.
         15    1    5    5    0    0  0.87788046591E+02  0.40283589882E+02  0.23738661329E+02  0.99479598455E+02  0.17770000000E+01 0. -1.
        -15    1    5    5    0    0 -0.11177602420E+02  0.44713184182E+02 -0.14019006948E+02  0.48206824417E+02  0.17770000000E+01 0.  1.
          3    1    6    6  503    0  0.35067912050E+02 -0.17732493797E+02 -0.21660386460E+02  0.44870615479E+02  0.00000000000E+00 0. -1.
         -3    1    6    6    0  503  0.43874178178E+03 -0.68070927297E+03 -0.45238009318E+03  0.92763528075E+03  0.00000000000E+00 0.  1.
<mgrwt>
<rscale>  0 0.91041991E+03</rscale>
<asrwt>0</asrwt>
<pdfrwt beam="1">  1        1 0.19688552E+00 0.91041991E+03</pdfrwt>
<pdfrwt beam="2">  1       -1 0.14967111E+00 0.91041991E+03</pdfrwt>
<totfact> 0.33348649E+00</totfact>
</mgrwt>
</event>
<event>
12    1  0.7781383E-008  0.1487629E+04  0.7818608E-02  0.8892721E-01
          1   -1    0    0  501    0  0.00000000000E+00  0.00000000000E+00  0.13152519887E+04  0.13152519887E+04  0.00000000000E+00 0. -1.
         -1   -1    0    0    0  501 -0.00000000000E+00 -0.00000000000E+00 -0.18066659924E+04  0.18066659924E+04  0.00000000000E+00 0.  1.
         23    2    1    2    0    0 -0.11562677234E+04 -0.92339254365E+03 -0.15993047875E+03  0.14911262366E+04  0.90944255950E+02 0.  0.
    5000000    2    1    2    0    0  0.11562677234E+04  0.92339254365E+03 -0.33148352498E+03  0.16307917444E+04  0.59999295697E+03 0.  0.
         23    2    4    4    0    0  0.80624678464E+03  0.74391216952E+03 -0.47949923609E+03  0.12006675771E+04  0.90796033313E+02 0.  0.
         23    2    4    4    0    0  0.35002093878E+03  0.17948037413E+03  0.14801571111E+03  0.43012416728E+03  0.91489268550E+02 0.  0.
          2    1    3    3  502    0 -0.85087411138E+03 -0.63754898356E+03 -0.90079496971E+02  0.10670378511E+04  0.00000000000E+00 0. -1.
         -2    1    3    3    0  502 -0.30539361204E+03 -0.28584356009E+03 -0.69850981781E+02  0.42408838557E+03  0.00000000000E+00 0.  1.
         15    1    5    5    0    0  0.26348082474E+03  0.18992459786E+03 -0.15633109219E+03  0.36046645613E+03  0.17770000000E+01 0. -1.
        -15    1    5    5    0    0  0.54276595990E+03  0.55398757166E+03 -0.32316814390E+03  0.84020112100E+03  0.17770000000E+01 0.  1.
          1    1    6    6  503    0  0.16069984253E+03  0.80681473704E+02  0.19463952464E+02  0.18086676045E+03  0.00000000000E+00 0. -1.
         -1    1    6    6    0  503  0.18932109624E+03  0.98798900426E+02  0.12855175864E+03  0.24925740683E+03  0.00000000000E+00 0.  1.
<mgrwt>
<rscale>  0 0.14876294E+04</rscale>
<asrwt>0</asrwt>
<pdfrwt beam="1">  1        1 0.20234646E+00 0.14876294E+04</pdfrwt>
<pdfrwt beam="2">  1       -1 0.27794861E+00 0.14876294E+04</pdfrwt>
<totfact> 0.38396760E-01</totfact>
</mgrwt>
</event>
<event>
12    1  0.7781383E-008  0.1791089E+04  0.7818608E-02  0.8711053E-01
          2   -1    0    0  501    0  0.00000000000E+00  0.00000000000E+00  0.15780487563E+04  0.15780487563E+04  0.00000000000E+00 0.  1.
         -2   -1    0    0    0  501 -0.00000000000E+00 -0.00000000000E+00 -0.23304377328E+04  0.23304377328E+04  0.00000000000E+00 0. -1.
         23    2    1    2    0    0 -0.17404306984E+04 -0.20800790593E+03 -0.10301162696E+04  0.20351888876E+04  0.92130204552E+02 0.  0.
    5000000    2    1    2    0    0  0.17404306984E+04  0.20800790593E+03  0.27772729306E+03  0.18732976015E+04  0.59978758708E+03 0.  0.
         23    2    4    4    0    0  0.10141635239E+03 -0.11523353186E+03  0.21287902884E+02  0.18090193318E+03  0.93318225561E+02 0.  0.
         23    2    4    4    0    0  0.16390143460E+04  0.32324143779E+03  0.25643939017E+03  0.16923956683E+04  0.87114199738E+02 0.  0.
          3    1    3    3  502    0 -0.90417610998E+03 -0.14960868593E+03 -0.51434303041E+03  0.10509357496E+04  0.00000000000E+00 0. -1.
         -3    1    3    3    0  502 -0.83625458838E+03 -0.58399220003E+02 -0.51577323921E+03  0.98425313806E+03  0.00000000000E+00 0.  1.
         15    1    5    5    0    0  0.49975614508E+02 -0.34195420077E+02 -0.34651306077E+02  0.69790827059E+02  0.17770000000E+01 0. -1.
        -15    1    5    5    0    0  0.51440737886E+02 -0.81038111783E+02  0.55939208961E+02  0.11111110612E+03  0.17770000000E+01 0.  1.
          1    1    6    6  503    0  0.11091952866E+04  0.20498073768E+03  0.13406040961E+03  0.11359152610E+04  0.00000000000E+00 0. -1.
         -1    1    6    6    0  503  0.52981905936E+03  0.11826070011E+03  0.12237898057E+03  0.55648040732E+03  0.00000000000E+00 0.  1.
<mgrwt>
<rscale>  0 0.17910892E+04</rscale>
<asrwt>0</asrwt>
<pdfrwt beam="1">  1        2 0.24277673E+00 0.17910892E+04</pdfrwt>
<pdfrwt beam="2">  1       -2 0.35852888E+00 0.17910892E+04</pdfrwt>
<totfact> 0.14378662E-01</totfact>
</mgrwt>
</event>
<event>
12    1  0.7781383E-008  0.1159046E+04  0.7818608E-02  0.9149479E-01
          1   -1    0    0  501    0  0.00000000000E+00  0.00000000000E+00  0.23497576489E+04  0.23497576489E+04  0.00000000000E+00 0. -1.
         -1   -1    0    0    0  501 -0.00000000000E+00 -0.00000000000E+00 -0.89773620018E+03  0.89773620018E+03  0.00000000000E+00 0.  1.
         23    2    1    2    0    0  0.51090945675E+03  0.97138467805E+03 -0.25583801620E+03  0.11305524974E+04  0.89884331598E+02 0.  0.
    5000000    2    1    2    0    0 -0.51090945675E+03 -0.97138467805E+03  0.17078594649E+04  0.21169413517E+04  0.60003338980E+03 0.  0.
         23    2    4    4    0    0 -0.94633470131E+02 -0.72112354493E+03  0.81247346931E+03  0.10942047590E+04  0.90533173509E+02 0.  0.
         23    2    4    4    0    0 -0.41627598662E+03 -0.25026113311E+03  0.89538599563E+03  0.10227365927E+04  0.91420594909E+02 0.  0.
          1    1    3    3  502    0  0.16555937299E+03  0.24422241214E+03 -0.45650478148E+02  0.29856064498E+03  0.00000000000E+00 0. -1.
         -1    1    3    3    0  502  0.34535008376E+03  0.72716226591E+03 -0.21018753805E+03  0.83199185240E+03  0.00000000000E+00 0.  1.
         15    1    5    5    0    0  0.90298778280E+01 -0.22087559709E+03  0.27170445020E+03  0.35027708185E+03  0.17770000000E+01 0. -1.
        -15    1    5    5    0    0 -0.10366334796E+03 -0.50024794785E+03  0.54076901911E+03  0.74392767713E+03  0.17770000000E+01 0.  1.
          1    1    6    6  503    0 -0.34463264338E+03 -0.21547135066E+03  0.66945824308E+03  0.78318190803E+03  0.00000000000E+00 0. -1.
         -1    1    6    6    0  503 -0.71643343246E+02 -0.34789782452E+02  0.22592775255E+03  0.23955468471E+03  0.00000000000E+00 0.  1.
<mgrwt>
<rscale>  0 0.11590457E+04</rscale>
<asrwt>0</asrwt>
<pdfrwt beam="1">  1        1 0.36150117E+00 0.11590457E+04</pdfrwt>
<pdfrwt beam="2">  1       -1 0.13811326E+00 0.11590457E+04</pdfrwt>
<totfact> 0.74092205E-01</totfact>
</mgrwt>
</event>
<event>
12    1  0.7781383E-008  0.5348804E+03  0.7818608E-02  0.1005055E+00
          1   -1    0    0  501    0  0.00000000000E+00  0.00000000000E+00  0.10542307796E+04  0.10542307796E+04  0.00000000000E+00 0. -1.
         -1   -1    0    0    0  501 -0.00000000000E+00 -0.00000000000E+00 -0.27737425738E+03  0.27737425738E+03  0.00000000000E+00 0.  1.
         23    2    1    2    0    0 -0.22791047667E+03 -0.28436154758E+03  0.32367453528E+03  0.49604540208E+03  0.92147495988E+02 0.  0.
    5000000    2    1    2    0    0  0.22791047667E+03  0.28436154758E+03  0.45318198697E+03  0.83555963494E+03  0.59998442905E+03 0.  0.
         23    2    4    4    0    0 -0.18951844660E+03  0.95810512816E+02  0.17789693421E+03  0.29314812569E+03  0.95872876379E+02 0.  0.
         23    2    4    4    0    0  0.41742892328E+03  0.18855103476E+03  0.27528505276E+03  0.54241150925E+03  0.92897720061E+02 0.  0.
          2    1    3    3  502    0 -0.20866226567E+03 -0.20161355816E+03  0.26341680721E+03  0.39188822676E+03  0.00000000000E+00 0. -1.
         -2    1    3    3    0  502 -0.19248211004E+02 -0.82747989415E+02  0.60257728067E+02  0.10415717532E+03  0.00000000000E+00 0.  1.
         15    1    5    5    0    0 -0.14494820121E+03  0.28102455138E+02  0.14063823749E+03  0.20391665109E+03  0.17770000000E+01 0. -1.
        -15    1    5    5    0    0 -0.44570245390E+02  0.67708057678E+02  0.37258696724E+02  0.89231474599E+02  0.17770000000E+01 0.  1.
          1    1    6    6  503    0  0.21829541197E+03  0.51834184962E+02  0.15392807146E+03  0.27209101566E+03  0.00000000000E+00 0. -1.
         -1    1    6    6    0  503  0.19913351130E+03  0.13671684980E+03  0.12135698131E+03  0.27032049359E+03  0.00000000000E+00 0.  1.
<mgrwt>
<rscale>  0 0.53488040E+03</rscale>
<asrwt>0</asrwt>
<pdfrwt beam="1">  1        1 0.16218935E+00 0.53488040E+03</pdfrwt>
<pdfrwt beam="2">  1       -1 0.42672963E-01 0.53488040E+03</pdfrwt>
<totfact> 0.77589507E+01</totfact>
</mgrwt>
</event>
<event>
12    1  0.7781383E-008  0.1124246E+04  0.7818608E-02  0.9181877E-01
          1   -1    0    0  501    0  0.00000000000E+00  0.00000000000E+00  0.28226258425E+04  0.28226258425E+04  0.00000000000E+00 0. -1.
         -1   -1    0    0    0  501 -0.00000000000E+00 -0.00000000000E+00 -0.80333567636E+03  0.80333567636E+03  0.00000000000E+00 0.  1.
         23    2    1    2    0    0  0.62453249859E+03  0.86201898671E+03 -0.20509404745E+03  0.10878031328E+04  0.90191530871E+02 0.  0.
    5000000    2    1    2    0    0 -0.62453249859E+03 -0.86201898671E+03  0.22243842136E+04  0.25381583861E+04  0.60103684393E+03 0.  0.
         23    2    4    4    0    0 -0.65000679879E+03 -0.53292090874E+03  0.12837043530E+04  0.15370943125E+04  0.90821395875E+02 0.  0.
         23    2    4    4    0    0  0.25474300204E+02 -0.32909807796E+03  0.94067986061E+03  0.10010640736E+04  0.91083447861E+02 0.  0.
          4    1    3    3  502    0  0.15087222281E+03  0.16869238333E+03 -0.73006585139E+02  0.23780140724E+03  0.00000000000E+00 0. -1.
         -4    1    3    3    0  502  0.47366027577E+03  0.69332660338E+03 -0.13208746231E+03  0.85000172558E+03  0.00000000000E+00 0.  1.
         15    1    5    5    0    0 -0.37266393695E+03 -0.33599505555E+03  0.83276166937E+03  0.97224803572E+03  0.17770000000E+01 0. -1.
        -15    1    5    5    0    0 -0.27734286184E+03 -0.19692585319E+03  0.45094268365E+03  0.56484627673E+03  0.17770000000E+01 0.  1.
          1    1    6    6  503    0  0.18244444816E+01 -0.31046463977E+03  0.88312323341E+03  0.93610804213E+03  0.00000000000E+00 0. -1.
         -1    1    6    6    0  503  0.23649855723E+02 -0.18633438189E+02  0.57556627200E+02  0.64956031507E+02  0.00000000000E+00 0.  1.
<mgrwt>
<rscale>  0 0.11242465E+04</rscale>
<asrwt>0</asrwt>
<pdfrwt beam="1">  1        1 0.43425012E+00 0.11242465E+04</pdfrwt>
<pdfrwt beam="2">  1       -1 0.12359011E+00 0.11242465E+04</pdfrwt>
<totfact> 0.46376457E-01</totfact>
</mgrwt>
</event>
<event>
12    1  0.7781383E-008  0.5049980E+03  0.7818608E-02  0.1012483E+00
          2   -1    0    0  501    0  0.00000000000E+00  0.00000000000E+00  0.15781742217E+04  0.15781742217E+04  0.00000000000E+00 0. -1.
         -2   -1    0    0    0  501 -0.00000000000E+00 -0.00000000000E+00 -0.42171946981E+03  0.42171946981E+03  0.00000000000E+00 0.  1.
         23    2    1    2    0    0 -0.29102254334E+03 -0.23439235777E+03  0.12304904406E+04  0.12891798068E+04  0.90796210244E+02 0.  0.
    5000000    2    1    2    0    0  0.29102254334E+03  0.23439235777E+03 -0.74035688652E+02  0.71071388475E+03  0.59999920389E+03 0.  0.
         23    2    4    4    0    0 -0.10639743763E+03 -0.60903952959E+02 -0.13630452698E+03  0.20366301222E+03  0.88712976773E+02 0.  0.
         23    2    4    4    0    0  0.39741998097E+03  0.29529631073E+03  0.62268838332E+02  0.50705087253E+03  0.89892306158E+02 0.  0.
          3    1    3    3  502    0 -0.28181661575E+03 -0.22079201695E+03  0.10799044586E+04  0.11377009094E+04  0.00000000000E+00 0. -1.
         -3    1    3    3    0  502 -0.92059275895E+01 -0.13600340822E+02  0.15058598203E+03  0.15147889740E+03  0.00000000000E+00 0.  1.
         15    1    5    5    0    0 -0.17786659431E+02 -0.41312825105E+02 -0.68122148215E+01  0.45526681975E+02  0.17770000000E+01 0. -1.
        -15    1    5    5    0    0 -0.88610778199E+02 -0.19591127854E+02 -0.12949231216E+03  0.15813633024E+03  0.17770000000E+01 0.  1.
          1    1    6    6  503    0  0.36772686304E+03  0.24663498942E+03  0.73814760531E+02  0.44888805139E+03  0.00000000000E+00 0. -1.
         -1    1    6    6    0  503  0.29693117928E+02  0.48661321315E+02 -0.11545922200E+02  0.58162821147E+02  0.00000000000E+00 0.  1.
<mgrwt>
<rscale>  0 0.50499802E+03</rscale>
<asrwt>0</asrwt>
<pdfrwt beam="1">  1        2 0.24279603E+00 0.50499802E+03</pdfrwt>
<pdfrwt beam="2">  1       -2 0.64879919E-01 0.50499802E+03</pdfrwt>
<totfact> 0.26708585E+01</totfact>
</mgrwt>
</event>
<event>
12    1  0.7781383E-008  0.1583857E+04  0.7818608E-02  0.8830527E-01
         -2   -1    0    0    0  501 -0.00000000000E+00  0.00000000000E+00  0.11175750113E+04  0.11175750113E+04  0.00000000000E+00 0. -1.
          2   -1    0    0  501    0  0.00000000000E+00 -0.00000000000E+00 -0.35896059896E+04  0.35896059896E+04  0.00000000000E+00 0.  1.
         23    2    1    2    0    0  0.12939052406E+04  0.88237767456E+03 -0.25876918072E+04  0.30260982723E+04  0.91327610666E+02 0.  0.
    5000000    2    1    2    0    0 -0.12939052406E+04 -0.88237767456E+03  0.11566082890E+03  0.16810827286E+04  0.59990047587E+03 0.  0.
         23    2    4    4    0    0 -0.12695582536E+04 -0.77660501374E+03  0.21598153740E+03  0.15066363625E+04  0.91714762441E+02 0.  0.
         23    2    4    4    0    0 -0.24346987036E+02 -0.10577266082E+03 -0.10032070850E+03  0.17444636617E+03  0.92664224810E+02 0.  0.
          3    1    3    3  502    0  0.12041108489E+04  0.82350673912E+03 -0.23619542995E+04  0.27761257894E+04  0.00000000000E+00 0. -1.
         -3    1    3    3    0  502  0.89794391732E+02  0.58870935437E+02 -0.22573750769E+03  0.24997248289E+03  0.00000000000E+00 0.  1.
         15    1    5    5    0    0 -0.11321719093E+04 -0.65759304563E+03  0.19133747266E+03  0.13231987878E+04  0.17770000000E+01 0. -1.
        -15    1    5    5    0    0 -0.13738634429E+03 -0.11901196811E+03  0.24644064741E+02  0.18343757469E+03  0.17770000000E+01 0.  1.
          4    1    6    6  503    0 -0.18807964702E+02 -0.37071458501E+02  0.11463616534E+02  0.43121306516E+02  0.00000000000E+00 0. -1.
         -4    1    6    6    0  503 -0.55390223335E+01 -0.68701202321E+02 -0.11178432503E+03  0.13132505965E+03  0.00000000000E+00 0.  1.
<mgrwt>
<rscale>  0 0.15838575E+04</rscale>
<asrwt>0</asrwt>
<pdfrwt beam="1">  1        2 0.55224708E+00 0.15838575E+04</pdfrwt>
<pdfrwt beam="2">  1       -2 0.17193462E+00 0.15838575E+04</pdfrwt>
<totfact> 0.13653063E-01</totfact>
</mgrwt>
</event>
<event>
12    1  0.7781383E-008  0.7749489E+03  0.7818608E-02  0.9597003E-01
         -3   -1    0    0    0  501 -0.00000000000E+00  0.00000000000E+00  0.84671197375E+03  0.84671197375E+03  0.00000000000E+00 0.  1.
          3   -1    0    0  501    0  0.00000000000E+00 -0.00000000000E+00 -0.89077411099E+03  0.89077411099E+03  0.00000000000E+00 0. -1.
         23    2    1    2    0    0  0.65997171475E+01 -0.76200292315E+03 -0.86710042865E+01  0.76698391400E+03  0.86585950734E+02 0.  0.
    5000000    2    1    2    0    0 -0.65997171475E+01  0.76200292315E+03 -0.35391132949E+02  0.97050217074E+03  0.59994159713E+03 0.  0.
         23    2    4    4    0    0 -0.47839595154E+02  0.30146929557E+03 -0.29339759014E+03  0.43336641658E+03  0.92476711067E+02 0.  0.
         23    2    4    4    0    0  0.41239878007E+02  0.46053362759E+03  0.25800645719E+03  0.53713575416E+03  0.90308010550E+02 0.  0.
          1    1    3    3  502    0 -0.14988277498E+02 -0.13753556895E+03  0.27661673603E+02  0.14108809083E+03  0.00000000000E+00 0. -1.
         -1    1    3    3    0  502  0.21587994645E+02 -0.62446735420E+03 -0.36332677889E+02  0.62589582317E+03  0.00000000000E+00 0.  1.
         15    1    5    5    0    0 -0.68456964639E+02  0.13823845011E+03 -0.14827053286E+03  0.21397087124E+03  0.17770000000E+01 0. -1.
        -15    1    5    5    0    0  0.20617369484E+02  0.16323084545E+03 -0.14512705728E+03  0.21939554534E+03  0.17770000000E+01 0.  1.
          3    1    6    6  503    0 -0.20635665243E+02  0.12930775741E+03  0.10113809871E+03  0.16545465185E+03  0.00000000000E+00 0. -1.
         -3    1    6    6    0  503  0.61875543250E+02  0.33122587017E+03  0.15686835848E+03  0.37168110231E+03  0.00000000000E+00 0.  1.
<mgrwt>
<rscale>  0 0.77494890E+03</rscale>
<asrwt>0</asrwt>
<pdfrwt beam="1">  1        3 0.13704217E+00 0.77494890E+03</pdfrwt>
<pdfrwt beam="2">  1       -3 0.13026338E+00 0.77494890E+03</pdfrwt>
<totfact> 0.48637636E-01</totfact>
</mgrwt>
</event>
<event>
12    1  0.7781383E-008  0.5411893E+03  0.7818608E-02  0.1003554E+00
          2   -1    0    0  501    0  0.00000000000E+00  0.00000000000E+00  0.38963108276E+04  0.38963108276E+04  0.00000000000E+00 0. -1.
         -2   -1    0    0    0  501 -0.00000000000E+00 -0.00000000000E+00 -0.81573152422E+02  0.81573152422E+02  0.00000000000E+00 0.  1.
         23    2    1    2    0    0 -0.31846697089E+03 -0.22546664920E+03  0.16435350335E+04  0.16916590020E+04  0.90809422260E+02 0.  0.
    5000000    2    1    2    0    0  0.31846697089E+03  0.22546664920E+03  0.21712026416E+04  0.22862249780E+04  0.60037264891E+03 0.  0.
         23    2    4    4    0    0  0.28938387524E+02 -0.17468593590E+03  0.85771189380E+03  0.87998925615E+03  0.85783399964E+02 0.  0.
         23    2    4    4    0    0  0.28952858336E+03  0.40015258510E+03  0.13134907478E+04  0.14062357218E+04  0.91060797348E+02 0.  0.
          3    1    3    3  502    0 -0.13988988361E+03 -0.12221475469E+03  0.60656359216E+03  0.63436977950E+03  0.00000000000E+00 0. -1.
         -3    1    3    3    0  502 -0.17857708728E+03 -0.10325189452E+03  0.10369714414E+04  0.10572892225E+04  0.00000000000E+00 0.  1.
         15    1    5    5    0    0  0.56289756862E+01 -0.17274595396E+03  0.77304551112E+03  0.79213342940E+03  0.17770000000E+01 0. -1.
        -15    1    5    5    0    0  0.23309411838E+02 -0.19399819362E+01  0.84666382678E+02  0.87855826756E+02  0.17770000000E+01 0.  1.
          2    1    6    6  503    0  0.11881141091E+03  0.15484986527E+03  0.39959243244E+03  0.44471197893E+03  0.00000000000E+00 0. -1.
         -2    1    6    6    0  503  0.17071717245E+03  0.24530271983E+03  0.91389831539E+03  0.96152374292E+03  0.00000000000E+00 0.  1.
<mgrwt>
<rscale>  0 0.54118931E+03</rscale>
<asrwt>0</asrwt>
<pdfrwt beam="1">  1        2 0.59943229E+00 0.54118931E+03</pdfrwt>
<pdfrwt beam="2">  1       -2 0.12549719E-01 0.54118931E+03</pdfrwt>
<totfact> 0.22404810E+01</totfact>
</mgrwt>
</event>
<event>
12    1  0.7781383E-008  0.1113178E+04  0.7818608E-02  0.9192442E-01
          2   -1    0    0  501    0  0.00000000000E+00  0.00000000000E+00  0.27347170204E+04  0.27347170204E+04  0.00000000000E+00 0. -1.
         -2   -1    0    0    0  501 -0.00000000000E+00 -0.00000000000E+00 -0.48763783499E+03  0.48763783499E+03  0.00000000000E+00 0.  1.
         23    2    1    2    0    0 -0.41711164966E+03 -0.95954279768E+03  0.70469593442E+03  0.12643179320E+04  0.84846711532E+02 0.  0.
    5000000    2    1    2    0    0  0.41711164966E+03  0.95954279768E+03  0.15423832510E+04  0.19580369233E+04  0.60021495427E+03 0.  0.
         23    2    4    4    0    0  0.13108504976E+03  0.85523907233E+03  0.97339977737E+03  0.13058637854E+04  0.95686667243E+02 0.  0.
         23    2    4    4    0    0  0.28602659990E+03  0.10430372535E+03  0.56898347358E+03  0.65217313791E+03  0.94324575985E+02 0.  0.
          4    1    3    3  502    0 -0.28356660653E+03 -0.69814767247E+03  0.46605700491E+03  0.88601880609E+03  0.00000000000E+00 0. -1.
         -4    1    3    3    0  502 -0.13354504313E+03 -0.26139512521E+03  0.23863892951E+03  0.37829912596E+03  0.00000000000E+00 0.  1.
         15    1    5    5    0    0  0.27899459274E+02  0.28290738380E+03  0.25800316713E+03  0.38390592548E+03  0.17770000000E+01 0. -1.
        -15    1    5    5    0    0  0.10318559049E+03  0.57233168853E+03  0.71539661024E+03  0.92195785991E+03  0.17770000000E+01 0.  1.
          1    1    6    6  503    0  0.91894438925E+02 -0.23740344267E+01  0.11668531039E+03  0.14854523084E+03  0.00000000000E+00 0. -1.
         -1    1    6    6    0  503  0.19413216098E+03  0.10667775977E+03  0.45229816319E+03  0.50362790708E+03  0.00000000000E+00 0.  1.
<mgrwt>
<rscale>  0 0.11131777E+04</rscale>
<asrwt>0</asrwt>
<pdfrwt beam="1">  1        2 0.42072569E+00 0.11131777E+04</pdfrwt>
<pdfrwt beam="2">  1       -2 0.75021207E-01 0.11131777E+04</pdfrwt>
<totfact> 0.40418134E+00</totfact>
</mgrwt>
</event>
<event>
12    1  0.7781383E-008  0.1418229E+04  0.7818608E-02  0.8940729E-01
         -1   -1    0    0    0  501 -0.00000000000E+00  0.00000000000E+00  0.11983769542E+04  0.11983769542E+04  0.00000000000E+00 0.  1.
          1   -1    0    0  501    0  0.00000000000E+00 -0.00000000000E+00 -0.18972795950E+04  0.18972795950E+04  0.00000000000E+00 0. -1.
         23    2    1    2    0    0  0.11219755727E+04 -0.86529694192E+03 -0.36228103186E+02  0.14203345252E+04  0.92030998404E+02 0.  0.
    5000000    2    1    2    0    0 -0.11219755727E+04  0.86529694192E+03 -0.66267453768E+03  0.16753220240E+04  0.59999863147E+03 0.  0.
         23    2    4    4    0    0 -0.43655349186E+03  0.34312093364E+03 -0.57579483686E+03  0.80505001458E+03  0.90856510309E+02 0.  0.
         23    2    4    4    0    0 -0.68542208082E+03  0.52217600827E+03 -0.86879700820E+02  0.87027200940E+03  0.85755906126E+02 0.  0.
          1    1    3    3  502    0  0.86785591611E+03 -0.63451344911E+03  0.75509846174E+00  0.10750729177E+04  0.00000000000E+00 0. -1.
         -1    1    3    3    0  502  0.25411965656E+03 -0.23078349281E+03 -0.36983201648E+02  0.34526160749E+03  0.00000000000E+00 0.  1.
         15    1    5    5    0    0 -0.29437723767E+03  0.22405927292E+03 -0.44188595637E+03  0.57630449591E+03  0.17770000000E+01 0. -1.
        -15    1    5    5    0    0 -0.14217625419E+03  0.11906166072E+03 -0.13390888049E+03  0.22874551867E+03  0.17770000000E+01 0.  1.
          3    1    6    6  503    0 -0.36354596065E+03  0.30341776786E+03 -0.10346193999E+02  0.47364021270E+03  0.00000000000E+00 0. -1.
         -3    1    6    6    0  503 -0.32187612017E+03  0.21875824042E+03 -0.76533506821E+02  0.39663179670E+03  0.00000000000E+00 0.  1.
<mgrwt>
<rscale>  0 0.14182285E+04</rscale>
<asrwt>0</asrwt>
<pdfrwt beam="1">  1        1 0.29188917E+00 0.14182285E+04</pdfrwt>
<pdfrwt beam="2">  1       -1 0.18436568E+00 0.14182285E+04</pdfrwt>
<totfact> 0.64739370E-01</totfact>
</mgrwt>
</event>
<event>
12    1  0.7781383E-008  0.8427306E+03  0.7818608E-02  0.9500146E-01
          2   -1    0    0  501    0  0.00000000000E+00  0.00000000000E+00  0.18443724554E+04  0.18443724554E+04  0.00000000000E+00 0. -1.
         -2   -1    0    0    0  501 -0.00000000000E+00 -0.00000000000E+00 -0.43428382410E+03  0.43428382410E+03  0.00000000000E+00 0.  1.
         23    2    1    2    0    0 -0.46899199474E+03 -0.60151469461E+03  0.89515125554E+03  0.11800307198E+04  0.96970667281E+02 0.  0.
    5000000    2    1    2    0    0  0.46899199474E+03  0.60151469461E+03  0.51493737577E+03  0.10986255598E+04  0.60003683272E+03 0.  0.
         23    2    4    4    0    0  0.55740006931E+03  0.60517680294E+03  0.51015081402E+03  0.97240090127E+03  0.91519722781E+02 0.  0.
         23    2    4    4    0    0 -0.88408074571E+02 -0.36621083271E+01  0.47865617517E+01  0.12622465849E+03  0.89890792356E+02 0.  0.
          3    1    3    3  502    0 -0.38077777022E+03 -0.46482956204E+03  0.75782505599E+03  0.96713858755E+03  0.00000000000E+00 0. -1.
         -3    1    3    3    0  502 -0.88214224522E+02 -0.13668513257E+03  0.13732619955E+03  0.21289213221E+03  0.00000000000E+00 0.  1.
         15    1    5    5    0    0  0.43560936676E+03  0.45098981560E+03  0.34465004045E+03  0.71549573184E+03  0.17770000000E+01 0. -1.
        -15    1    5    5    0    0  0.12179070256E+03  0.15418698735E+03  0.16550077357E+03  0.25690516943E+03  0.17770000000E+01 0.  1.
          1    1    6    6  503    0 -0.16978314631E+02  0.17005464515E+02  0.37859423940E+02  0.44841777085E+02  0.00000000000E+00 0. -1.
         -1    1    6    6    0  503 -0.71429759940E+02 -0.20667572842E+02 -0.33072862188E+02  0.81382881403E+02  0.00000000000E+00 0.  1.
<mgrwt>
<rscale>  0 0.84273060E+03</rscale>
<asrwt>0</asrwt>
<pdfrwt beam="1">  1        2 0.28374960E+00 0.84273060E+03</pdfrwt>
<pdfrwt beam="2">  1       -2 0.66812897E-01 0.84273060E+03</pdfrwt>
<totfact> 0.17088320E+01</totfact>
</mgrwt>
</event>
<event>
12    1  0.7781383E-008  0.9814033E+03  0.7818608E-02  0.9329180E-01
          1   -1    0    0  501    0  0.00000000000E+00  0.00000000000E+00  0.24904630945E+04  0.24904630945E+04  0.00000000000E+00 0. -1.
         -1   -1    0    0    0  501 -0.00000000000E+00 -0.00000000000E+00 -0.44689973629E+03  0.44689973629E+03  0.00000000000E+00 0.  1.
         23    2    1    2    0    0  0.61876376318E+03  0.72555238837E+03  0.71439292320E+03  0.11949450617E+04  0.90783196803E+02 0.  0.
    5000000    2    1    2    0    0 -0.61876376318E+03 -0.72555238837E+03  0.13291704350E+04  0.17424177691E+04  0.60002564439E+03 0.  0.
         23    2    4    4    0    0 -0.53205606560E+03 -0.69030819307E+03  0.76526697039E+03  0.11634137950E+04  0.91044297086E+02 0.  0.
         23    2    4    4    0    0 -0.86707697573E+02 -0.35244195295E+02  0.56390346465E+03  0.57900397414E+03  0.92185175115E+02 0.  0.
          3    1    3    3  502    0  0.36021286550E+03  0.36917103662E+03  0.42178405121E+03  0.66628998837E+03  0.00000000000E+00 0. -1.
         -3    1    3    3    0  502  0.25855089767E+03  0.35638135175E+03  0.29260887200E+03  0.52865507331E+03  0.00000000000E+00 0.  1.
         15    1    5    5    0    0 -0.42695626282E+03 -0.48907089510E+03  0.56194444934E+03  0.85864236599E+03  0.17770000000E+01 0.  1.
        -15    1    5    5    0    0 -0.10509980278E+03 -0.20123729797E+03  0.20332252105E+03  0.30477142900E+03  0.17770000000E+01 0. -1.
          2    1    6    6  503    0  0.19375011380E+02 -0.30867358142E+01  0.63120909263E+02  0.66099683737E+02  0.00000000000E+00 0. -1.
         -2    1    6    6    0  503 -0.10608270895E+03 -0.32157459480E+02  0.50078255538E+03  0.51290429040E+03  0.00000000000E+00 0.  1.
<mgrwt>
<rscale>  0 0.98140333E+03</rscale>
<asrwt>0</asrwt>
<pdfrwt beam="1">  1        1 0.38314816E+00 0.98140333E+03</pdfrwt>
<pdfrwt beam="2">  1       -1 0.68753807E-01 0.98140333E+03</pdfrwt>
<totfact> 0.30078148E+00</totfact>
</mgrwt>
</event>
<event>
12    1  0.7781383E-008  0.7820117E+03  0.7818608E-02  0.9586426E-01
         -2   -1    0    0    0  501 -0.00000000000E+00  0.00000000000E+00  0.69026780013E+03  0.69026780013E+03  0.00000000000E+00 0.  1.
          2   -1    0    0  501    0  0.00000000000E+00 -0.00000000000E+00 -0.21827506531E+04  0.21827506531E+04  0.00000000000E+00 0. -1.
         23    2    1    2    0    0 -0.58518662411E+03 -0.36996845099E+03  0.37511157046E+03  0.79267678176E+03  0.91146861117E+02 0.  0.
    5000000    2    1    2    0    0  0.58518662411E+03  0.36996845099E+03 -0.18675944234E+04  0.20803416715E+04  0.60049354690E+03 0.  0.
         23    2    4    4    0    0  0.44515176846E+03  0.50188133943E+03 -0.11839223148E+04  0.13641416555E+04  0.95736268101E+02 0.  0.
         23    2    4    4    0    0  0.14003485565E+03 -0.13191288844E+03 -0.68367210861E+03  0.71620001592E+03  0.92326268128E+02 0.  0.
          4    1    3    3  502    0 -0.37636038446E+03 -0.21767238757E+03  0.18844906881E+03  0.47385805768E+03  0.00000000000E+00 0. -1.
         -4    1    3    3    0  502 -0.20882623965E+03 -0.15229606342E+03  0.18666250165E+03  0.31881872408E+03  0.00000000000E+00 0.  1.
         15    1    5    5    0    0  0.11834210735E+03  0.20176418478E+03 -0.41427953711E+03  0.47575659031E+03  0.17770000000E+01 0.  1.
        -15    1    5    5    0    0  0.32680966111E+03  0.30011715465E+03 -0.76964277772E+03  0.88838506523E+03  0.17770000000E+01 0. -1.
          2    1    6    6  503    0  0.45965619494E+02 -0.32482029535E+02 -0.84059884370E+02  0.10116315821E+03  0.00000000000E+00 0. -1.
         -2    1    6    6    0  503  0.94069236154E+02 -0.99430858908E+02 -0.59961222424E+03  0.61503685772E+03  0.00000000000E+00 0.  1.
<mgrwt>
<rscale>  0 0.78201169E+03</rscale>
<asrwt>0</asrwt>
<pdfrwt beam="1">  1        2 0.33580778E+00 0.78201169E+03</pdfrwt>
<pdfrwt beam="2">  1       -2 0.10619505E+00 0.78201169E+03</pdfrwt>
<totfact> 0.39108690E+00</totfact>
</mgrwt>
</event>
<event>
12    1  0.7781383E-008  0.7996946E+03  0.7818608E-02  0.9560459E-01
         -1   -1    0    0    0  501 -0.00000000000E+00  0.00000000000E+00  0.63188902858E+03  0.63188902858E+03  0.00000000000E+00 0.  1.
          1   -1    0    0  501    0  0.00000000000E+00 -0.00000000000E+00 -0.12618881494E+04  0.12618881494E+04  0.00000000000E+00 0. -1.
         23    2    1    2    0    0  0.38316129992E+03  0.67074506750E+03 -0.10604943168E+03  0.78417587109E+03  0.83509206065E+02 0.  0.
    5000000    2    1    2    0    0 -0.38316129992E+03 -0.67074506750E+03 -0.52394968912E+03  0.11096013069E+04  0.59998354657E+03 0.  0.
         23    2    4    4    0    0  0.45881245380E+02 -0.56855437094E+02 -0.30035872387E+03  0.32266640570E+03  0.92523602159E+02 0.  0.
         23    2    4    4    0    0 -0.42904254531E+03 -0.61388963041E+03 -0.22359096524E+03  0.78693490118E+03  0.91299698492E+02 0.  0.
          4    1    3    3  502    0  0.74770040059E+02  0.15175770257E+03 -0.56854917270E+02  0.17847532266E+03  0.00000000000E+00 0. -1.
         -4    1    3    3    0  502  0.30839125987E+03  0.51898736493E+03 -0.49194514411E+02  0.60570054843E+03  0.00000000000E+00 0.  1.
         15    1    5    5    0    0  0.35229091858E+02 -0.53869452824E+02 -0.30410877373E+03  0.31085094635E+03  0.17770000000E+01 0. -1.
        -15    1    5    5    0    0  0.10652153522E+02 -0.29859842700E+01  0.37500498544E+01  0.11815459349E+02  0.17770000000E+01 0.  1.
          1    1    6    6  503    0 -0.17230805247E+03 -0.20133576201E+03 -0.11585078969E+03  0.28921887815E+03  0.00000000000E+00 0. -1.
         -1    1    6    6    0  503 -0.25673449284E+03 -0.41255386840E+03 -0.10774017555E+03  0.49771602302E+03  0.00000000000E+00 0.  1.
<mgrwt>
<rscale>  0 0.79969457E+03</rscale>
<asrwt>0</asrwt>
<pdfrwt beam="1">  1        1 0.19413664E+00 0.79969457E+03</pdfrwt>
<pdfrwt beam="2">  1       -1 0.97213697E-01 0.79969457E+03</pdfrwt>
<totfact> 0.10069170E+01</totfact>
</mgrwt>
</event>
<event>
12    1  0.7781383E-008  0.1360982E+04  0.7818608E-02  0.8982556E-01
          1   -1    0    0  501    0  0.00000000000E+00  0.00000000000E+00  0.23538300261E+04  0.23538300261E+04  0.00000000000E+00 0. -1.
         -1   -1    0    0    0  501 -0.00000000000E+00 -0.00000000000E+00 -0.85287538844E+03  0.85287538844E+03  0.00000000000E+00 0.  1.
         23    2    1    2    0    0  0.46710424005E+02 -0.13428229240E+04  0.88512800247E+03  0.16115463213E+04  0.90965356552E+02 0.  0.
    5000000    2    1    2    0    0 -0.46710424005E+02  0.13428229240E+04  0.61582663517E+03  0.15951590932E+04  0.59994568002E+03 0.  0.
         23    2    4    4    0    0 -0.11160523656E+03  0.28316205828E+03 -0.73203641509E+02  0.32604818186E+03  0.91171068228E+02 0.  0.
         23    2    4    4    0    0  0.64894812556E+02  0.10596608657E+04  0.68903027668E+03  0.12691109113E+04  0.93740578097E+02 0.  0.
          2    1    3    3  502    0  0.16153248488E+02 -0.11703776436E+04  0.79123220484E+03  0.14128316100E+04  0.00000000000E+00 0. -1.
         -2    1    3    3    0  502  0.30557175517E+02 -0.17244528040E+03  0.93895797628E+02  0.19871471139E+03  0.00000000000E+00 0.  1.
         15    1    5    5    0    0 -0.40367048256E+02  0.18457721651E+03 -0.10610762182E+02  0.18924585449E+03  0.17770000000E+01 0. -1.
        -15    1    5    5    0    0 -0.71238188304E+02  0.98584841773E+02 -0.62592879328E+02  0.13680232736E+03  0.17770000000E+01 0.  1.
          2    1    6    6  503    0 -0.77617612899E+01  0.62593979539E+03  0.40051393329E+03  0.74315024265E+03  0.00000000000E+00 0. -1.
         -2    1    6    6    0  503  0.72656573845E+02  0.43372107034E+03  0.28851634339E+03  0.52596066866E+03  0.00000000000E+00 0.  1.
<mgrwt>
<rscale>  0 0.13609822E+04</rscale>
<asrwt>0</asrwt>
<pdfrwt beam="1">  1        1 0.36212769E+00 0.13609822E+04</pdfrwt>
<pdfrwt beam="2">  1       -1 0.13121160E+00 0.13609822E+04</pdfrwt>
<totfact> 0.81868967E-01</totfact>
</mgrwt>
</event>
<event>
12    1  0.7781383E-008  0.6525269E+03  0.7818608E-02  0.9802049E-01
          1   -1    0    0  501    0  0.00000000000E+00  0.00000000000E+00  0.79010956295E+03  0.79010956295E+03  0.00000000000E+00 0. -1.
         -1   -1    0    0    0  501 -0.00000000000E+00 -0.00000000000E+00 -0.72712005884E+03  0.72712005884E+03  0.00000000000E+00 0.  1.
         23    2    1    2    0    0  0.30807832186E+03  0.51883239396E+03 -0.17356998384E+03  0.63406376699E+03  0.88379951906E+02 0.  0.
    5000000    2    1    2    0    0 -0.30807832186E+03 -0.51883239396E+03  0.23655948796E+03  0.88316585480E+03  0.59993518844E+03 0.  0.
         23    2    4    4    0    0 -0.36694121444E+03 -0.33654519098E+03  0.37578192934E+03  0.63002413735E+03  0.88373269685E+02 0.  0.
         23    2    4    4    0    0  0.58862892583E+02 -0.18228720298E+03 -0.13922244139E+03  0.25314171745E+03  0.89467180765E+02 0.  0.
          3    1    3    3  502    0  0.12518409369E+03  0.18442813343E+03 -0.22381386279E+02  0.22402169574E+03  0.00000000000E+00 0. -1.
         -3    1    3    3    0  502  0.18289422817E+03  0.33440426053E+03 -0.15118859756E+03  0.41004207125E+03  0.00000000000E+00 0.  1.
         15    1    5    5    0    0 -0.18668392904E+03 -0.21452355499E+03  0.24979646028E+03  0.37851377030E+03  0.17770000000E+01 0. -1.
        -15    1    5    5    0    0 -0.18025728541E+03 -0.12202163599E+03  0.12598546906E+03  0.25151036705E+03  0.17770000000E+01 0.  1.
          4    1    6    6  503    0  0.65275461339E+02 -0.12250243823E+03 -0.54218177377E+02  0.14902128701E+03  0.00000000000E+00 0. -1.
         -4    1    6    6    0  503 -0.64125687553E+01 -0.59784764753E+02 -0.85004264012E+02  0.10412043044E+03  0.00000000000E+00 0.  1.
<mgrwt>
<rscale>  0 0.65252693E+03</rscale>
<asrwt>0</asrwt>
<pdfrwt beam="1">  1        1 0.12155532E+00 0.65252693E+03</pdfrwt>
<pdfrwt beam="2">  1       -1 0.11186462E+00 0.65252693E+03</pdfrwt>
<totfact> 0.17221839E+01</totfact>
</mgrwt>
</event>
<event>
12    1  0.7781383E-008  0.6481897E+03  0.7818608E-02  0.9810182E-01
          2   -1    0    0  501    0  0.00000000000E+00  0.00000000000E+00  0.17428190478E+04  0.17428190478E+04  0.00000000000E+00 0. -1.
         -2   -1    0    0    0  501 -0.00000000000E+00 -0.00000000000E+00 -0.43118637958E+03  0.43118637958E+03  0.00000000000E+00 0.  1.
         23    2    1    2    0    0 -0.27886133516E+03  0.57295668634E+03  0.10985001439E+04  0.12731786078E+04  0.90764489480E+02 0.  0.
    5000000    2    1    2    0    0  0.27886133516E+03 -0.57295668634E+03  0.21313252435E+03  0.90082681960E+03  0.60001706418E+03 0.  0.
         23    2    4    4    0    0  0.16264447792E+03 -0.23432993335E+03  0.38959529394E+03  0.49155759455E+03  0.92090346069E+02 0.  0.
         23    2    4    4    0    0  0.11621685724E+03 -0.33862675299E+03 -0.17646276959E+03  0.40926922505E+03  0.90486207646E+02 0.  0.
          3    1    3    3  502    0 -0.22323248473E+03  0.37002287787E+03  0.77276247960E+03  0.88538778073E+03  0.00000000000E+00 0. -1.
         -3    1    3    3    0  502 -0.55628850429E+02  0.20293380847E+03  0.32573766432E+03  0.38779082709E+03  0.00000000000E+00 0.  1.
         15    1    5    5    0    0  0.12725938233E+03 -0.15308942175E+03  0.32777145589E+03  0.38349524960E+03  0.17770000000E+01 0.  1.
        -15    1    5    5    0    0  0.35385095593E+02 -0.81240511607E+02  0.61823838049E+02  0.10806234495E+03  0.17770000000E+01 0. -1.
          4    1    6    6  503    0  0.16723024013E+02 -0.16610241348E+03 -0.53934024934E+02  0.17543816672E+03  0.00000000000E+00 0. -1.
         -4    1    6    6    0  503  0.99493833223E+02 -0.17252433951E+03 -0.12252874466E+03  0.23383105833E+03  0.00000000000E+00 0.  1.
<mgrwt>
<rscale>  0 0.64818969E+03</rscale>
<asrwt>0</asrwt>
<pdfrwt beam="1">  1        2 0.26812600E+00 0.64818969E+03</pdfrwt>
<pdfrwt beam="2">  1       -2 0.66336367E-01 0.64818969E+03</pdfrwt>
<totfact> 0.20239406E+01</totfact>
</mgrwt>
</event>
<event>
12    1  0.7781383E-008  0.7959872E+03  0.7818608E-02  0.9565844E-01
         -3   -1    0    0    0  501 -0.00000000000E+00  0.00000000000E+00  0.54638610351E+03  0.54638610351E+03  0.00000000000E+00 0.  1.
          3   -1    0    0  501    0  0.00000000000E+00 -0.00000000000E+00 -0.12144196725E+04  0.12144196725E+04  0.00000000000E+00 0. -1.
         23    2    1    2    0    0 -0.22700196823E+03 -0.66217452633E+03 -0.26345852005E+03  0.75389863076E+03  0.94592583092E+02 0.  0.
    5000000    2    1    2    0    0  0.22700196823E+03  0.66217452633E+03 -0.40457504896E+03  0.10069071453E+04  0.60014667544E+03 0.  0.
         23    2    4    4    0    0  0.33847746756E+03  0.18871988987E+03 -0.58834135569E+02  0.40443062308E+03  0.99601608903E+02 0.  0.
         23    2    4    4    0    0 -0.11147549933E+03  0.47345463646E+03 -0.34574091339E+03  0.60247652218E+03  0.82795536428E+02 0.  0.
          1    1    3    3  502    0 -0.29404629703E+02 -0.13089228632E+03 -0.14971720046E+02  0.13498731521E+03  0.00000000000E+00 0. -1.
         -1    1    3    3    0  502 -0.19759733853E+03 -0.53128224001E+03 -0.24848680000E+03  0.61891131555E+03  0.00000000000E+00 0.  1.
         15    1    5    5    0    0  0.31939902578E+02 -0.10241494306E+02  0.32442423127E+01  0.33745050296E+02  0.17770000000E+01 0. -1.
        -15    1    5    5    0    0  0.30653756498E+03  0.19896138418E+03 -0.62078377882E+02  0.37068557278E+03  0.17770000000E+01 0.  1.
          2    1    6    6  503    0 -0.10551075552E+03  0.29349966331E+03 -0.19664752335E+03  0.36870695726E+03  0.00000000000E+00 0. -1.
         -2    1    6    6    0  503 -0.59647438155E+01  0.17995497315E+03 -0.14909339003E+03  0.23376956492E+03  0.00000000000E+00 0.  1.
<mgrwt>
<rscale>  0 0.79598721E+03</rscale>
<asrwt>0</asrwt>
<pdfrwt beam="1">  1        3 0.18683379E+00 0.79598721E+03</pdfrwt>
<pdfrwt beam="2">  1       -3 0.84059401E-01 0.79598721E+03</pdfrwt>
<totfact> 0.60418731E-01</totfact>
</mgrwt>
</event>
<event>
12    1  0.7781383E-008  0.5149081E+03  0.7818608E-02  0.1009959E+00
          2   -1    0    0  501    0  0.00000000000E+00  0.00000000000E+00  0.17933408075E+04  0.17933408075E+04  0.00000000000E+00 0. -1.
         -2   -1    0    0    0  501 -0.00000000000E+00 -0.00000000000E+00 -0.44706322078E+03  0.44706322078E+03  0.00000000000E+00 0.  1.
         23    2    1    2    0    0  0.29463229577E+02 -0.50443901545E+03 -0.16253881170E+03  0.53983227381E+03  0.98352510580E+02 0.  0.
    5000000    2    1    2    0    0 -0.29463229577E+02  0.50443901545E+03  0.15088163984E+04  0.17005717544E+04  0.60007546668E+03 0.  0.
         23    2    4    4    0    0  0.15244649135E+02  0.37872737388E+03  0.14882460003E+04  0.15380355791E+04  0.83728503537E+02 0.  0.
         23    2    4    4    0    0 -0.44707878712E+02  0.12571164156E+03  0.20570398132E+02  0.16253617531E+03  0.90513290522E+02 0.  0.
          4    1    3    3  502    0  0.29258467362E+02 -0.26485767710E+03 -0.13487643110E+03  0.29865916811E+03  0.00000000000E+00 0.  1.
         -4    1    3    3    0  502  0.20476221538E+00 -0.23958133835E+03 -0.27662380600E+02  0.24117310570E+03  0.00000000000E+00 0. -1.
         15    1    5    5    0    0  0.32382614531E+02  0.30836256925E+03  0.10894826123E+04  0.11327451735E+04  0.17770000000E+01 0. -1.
        -15    1    5    5    0    0 -0.17137965396E+02  0.70364804629E+02  0.39876338800E+03  0.40529040566E+03  0.17770000000E+01 0.  1.
          1    1    6    6  503    0  0.93538055410E+01  0.28892740130E+02  0.39725538796E+02  0.50004025268E+02  0.00000000000E+00 0. -1.
         -1    1    6    6    0  503 -0.54061684253E+02  0.96818901432E+02 -0.19155140664E+02  0.11253215004E+03  0.00000000000E+00 0.  1.
<mgrwt>
<rscale>  0 0.51490810E+03</rscale>
<asrwt>0</asrwt>
<pdfrwt beam="1">  1        2 0.27589858E+00 0.51490810E+03</pdfrwt>
<pdfrwt beam="2">  1       -2 0.68778958E-01 0.51490810E+03</pdfrwt>
<totfact> 0.17989133E+01</totfact>
</mgrwt>
</event>
<event>
12    1  0.7781383E-008  0.1722485E+04  0.7818608E-02  0.8748643E-01
          1   -1    0    0  501    0  0.00000000000E+00  0.00000000000E+00  0.15265989256E+04  0.15265989256E+04  0.00000000000E+00 0. -1.
         -1   -1    0    0    0  501 -0.00000000000E+00 -0.00000000000E+00 -0.20740300639E+04  0.20740300639E+04  0.00000000000E+00 0.  1.
         23    2    1    2    0    0 -0.10123181723E+04  0.13727799102E+04  0.11339899102E+02  0.17081350522E+04  0.91016477759E+02 0.  0.
    5000000    2    1    2    0    0  0.10123181723E+04 -0.13727799102E+04 -0.55877103734E+03  0.18924939373E+04  0.59999622236E+03 0.  0.
         23    2    4    4    0    0  0.21347609012E+03 -0.55437974695E+03 -0.42974102347E+03  0.73800358555E+03  0.84041657218E+02 0.  0.
         23    2    4    4    0    0  0.79884208222E+03 -0.81840016324E+03 -0.12903001387E+03  0.11544903518E+04  0.90949042831E+02 0.  0.
          3    1    3    3  502    0 -0.29560133501E+03  0.40646938748E+03 -0.38024244965E+02  0.50402713758E+03  0.00000000000E+00 0. -1.
         -3    1    3    3    0  502 -0.71671683732E+03  0.96631052272E+03  0.49364144067E+02  0.12041079146E+04  0.00000000000E+00 0.  1.
         15    1    5    5    0    0  0.15916014681E+03 -0.44453269926E+03 -0.29939242371E+03  0.55908877126E+03  0.17770000000E+01 0. -1.
        -15    1    5    5    0    0  0.54315943302E+02 -0.10984704770E+03 -0.13034859977E+03  0.17891481429E+03  0.17770000000E+01 0.  1.
          1    1    6    6  503    0  0.59646183023E+03 -0.63883516105E+03 -0.64712409851E+02  0.87639304761E+03  0.00000000000E+00 0. -1.
         -1    1    6    6    0  503  0.20238025199E+03 -0.17956500219E+03 -0.64317604018E+02  0.27809730418E+03  0.00000000000E+00 0.  1.
<mgrwt>
<rscale>  0 0.17224848E+04</rscale>
<asrwt>0</asrwt>
<pdfrwt beam="1">  1        1 0.23486138E+00 0.17224848E+04</pdfrwt>
<pdfrwt beam="2">  1       -1 0.31908155E+00 0.17224848E+04</pdfrwt>
<totfact> 0.14350173E-01</totfact>
</mgrwt>
</event>
<event>
12    1  0.7781383E-008  0.1001391E+04  0.7818608E-02  0.9307021E-01
         -1   -1    0    0    0  501 -0.00000000000E+00  0.00000000000E+00  0.45163963905E+03  0.45163963905E+03  0.00000000000E+00 0.  1.
          1   -1    0    0  501    0  0.00000000000E+00 -0.00000000000E+00 -0.33193199839E+04  0.33193199839E+04  0.00000000000E+00 0. -1.
         23    2    1    2    0    0  0.94460933266E+03  0.28069359854E+02 -0.23559664994E+04  0.25400734612E+04  0.91216017634E+02 0.  0.
    5000000    2    1    2    0    0 -0.94460933266E+03 -0.28069359854E+02 -0.51171384548E+03  0.12308861617E+04  0.60012915544E+03 0.  0.
         23    2    4    4    0    0 -0.28388986434E+03 -0.21675802685E+03 -0.37244219796E+03  0.52407623483E+03  0.91461531912E+02 0.  0.
         23    2    4    4    0    0 -0.66071946832E+03  0.18868866699E+03 -0.13927164752E+03  0.70680992691E+03  0.89610558045E+02 0.  0.
          4    1    3    3  502    0  0.73899073736E+03  0.53664246844E+02 -0.18937562681E+04  0.20335436961E+04  0.00000000000E+00 0. -1.
         -4    1    3    3    0  502  0.20561859530E+03 -0.25594886991E+02 -0.46221023131E+03  0.50652976507E+03  0.00000000000E+00 0.  1.
         15    1    5    5    0    0 -0.25321135799E+03 -0.15201813892E+03 -0.31863404661E+03  0.43446095309E+03  0.17770000000E+01 0.  1.
        -15    1    5    5    0    0 -0.30678506354E+02 -0.64739887930E+02 -0.53808151353E+02  0.89615281746E+02  0.17770000000E+01 0. -1.
          4    1    6    6  503    0 -0.45072990163E+03  0.14132507917E+03 -0.54680513812E+02  0.47552095729E+03  0.00000000000E+00 0. -1.
         -4    1    6    6    0  503 -0.20998956668E+03  0.47363587822E+02 -0.84591133712E+02  0.23128896963E+03  0.00000000000E+00 0.  1.
<mgrwt>
<rscale>  0 0.10013908E+04</rscale>
<asrwt>0</asrwt>
<pdfrwt beam="1">  1        1 0.51066462E+00 0.10013908E+04</pdfrwt>
<pdfrwt beam="2">  1       -1 0.69483021E-01 0.10013908E+04</pdfrwt>
<totfact> 0.74857896E-01</totfact>
</mgrwt>
</event>
<event>
12    1  0.1335405E-007  0.7499417E+03  0.7818608E-02  0.9635442E-01
         -2   -1    0    0    0  501 -0.00000000000E+00  0.00000000000E+00  0.32232558122E+03  0.32232558122E+03  0.00000000000E+00 0.  1.
          2   -1    0    0  501    0  0.00000000000E+00 -0.00000000000E+00 -0.22188581750E+04  0.22188581750E+04  0.00000000000E+00 0. -1.
         23    2    1    2    0    0  0.73195609000E+03 -0.71616651372E+02 -0.87815507688E+03  0.11491179888E+04  0.91799514156E+02 0.  0.
    5000000    2    1    2    0    0 -0.73195609000E+03  0.71616651372E+02 -0.10183775169E+04  0.13920657674E+04  0.59988804897E+03 0.  0.
         23    2    4    4    0    0 -0.30897821999E+03  0.10616176811E+03 -0.86905753241E+03  0.93286631521E+03  0.90778334295E+02 0.  0.
         23    2    4    4    0    0 -0.42297787001E+03 -0.34545116741E+02 -0.14931998448E+03  0.45919945215E+03  0.92000192814E+02 0.  0.
          2    1    3    3  502    0  0.21285705678E+03  0.18758833031E+02 -0.27405669009E+03  0.34751559651E+03  0.00000000000E+00 0. -1.
         -2    1    3    3    0  502  0.51909903322E+03 -0.90375484403E+02 -0.60409838680E+03  0.80160239233E+03  0.00000000000E+00 0.  1.
         15    1    5    5    0    0 -0.14218058755E+03  0.22132472721E+02 -0.48332525202E+03  0.50429319131E+03  0.17770000000E+01 0.  1.
        -15    1    5    5    0    0 -0.16679763244E+03  0.84029295392E+02 -0.38573228039E+03  0.42857312390E+03  0.17770000000E+01 0. -1.
          4    1    6    6  503    0 -0.16555925263E+03  0.15821776052E+02 -0.22428934659E+02  0.16781910451E+03  0.00000000000E+00 0. -1.
         -4    1    6    6    0  503 -0.25741861738E+03 -0.50366892793E+02 -0.12689104982E+03  0.29138034763E+03  0.00000000000E+00 0.  1.
<mgrwt>
<rscale>  0 0.74994172E+03</rscale>
<asrwt>0</asrwt>
<pdfrwt beam="1">  1        2 0.34136279E+00 0.74994172E+03</pdfrwt>
<pdfrwt beam="2">  1       -2 0.49588552E-01 0.74994172E+03</pdfrwt>
<totfact> 0.20148821E+01</totfact>
</mgrwt>
</event>
<event>
12    1  0.7781383E-008  0.7976956E+03  0.7818608E-02  0.9563359E-01
          1   -1    0    0  501    0  0.00000000000E+00  0.00000000000E+00  0.76406668654E+03  0.76406668654E+03  0.00000000000E+00 0. -1.
         -1   -1    0    0    0  501 -0.00000000000E+00 -0.00000000000E+00 -0.10660802591E+04  0.10660802591E+04  0.00000000000E+00 0.  1.
         23    2    1    2    0    0  0.36470078876E+03  0.69609167536E+03  0.16753267561E+02  0.79132225199E+03  0.91432755035E+02 0.  0.
    5000000    2    1    2    0    0 -0.36470078876E+03 -0.69609167536E+03 -0.31876684008E+03  0.10388246936E+04  0.59999513325E+03 0.  0.
         23    2    4    4    0    0 -0.34346810883E+03 -0.54711558180E+03  0.24347835497E+02  0.65292612270E+03  0.91727329508E+02 0.  0.
         23    2    4    4    0    0 -0.21232679930E+02 -0.14897609355E+03 -0.34311467558E+03  0.38589857092E+03  0.92440917847E+02 0.  0.
          1    1    3    3  502    0  0.16826794164E+03  0.34856877592E+03 -0.35667407992E+02  0.38869841230E+03  0.00000000000E+00 0. -1.
         -1    1    3    3    0  502  0.19643284712E+03  0.34752289943E+03  0.52420675553E+02  0.40262383969E+03  0.00000000000E+00 0.  1.
         15    1    5    5    0    0 -0.44341551774E+02 -0.14202260897E+03  0.10591522817E+02  0.14917081738E+03  0.17770000000E+01 0. -1.
        -15    1    5    5    0    0 -0.29912655706E+03 -0.40509297283E+03  0.13756312681E+02  0.50375530532E+03  0.17770000000E+01 0.  1.
          1    1    6    6  503    0  0.12433137237E+02 -0.67181369826E+02 -0.65940182445E+02  0.94952762014E+02  0.00000000000E+00 0. -1.
         -1    1    6    6    0  503 -0.33665817167E+02 -0.81794723726E+02 -0.27717449314E+03  0.29094580891E+03  0.00000000000E+00 0.  1.
<mgrwt>
<rscale>  0 0.79769562E+03</rscale>
<asrwt>0</asrwt>
<pdfrwt beam="1">  1        1 0.11754872E+00 0.79769562E+03</pdfrwt>
<pdfrwt beam="2">  1       -1 0.16401235E+00 0.79769562E+03</pdfrwt>
<totfact> 0.66584614E+00</totfact>
</mgrwt>
</event>
<event>
12    1  0.7781383E-008  0.1207658E+04  0.7818608E-02  0.9106179E-01
          1   -1    0    0  501    0  0.00000000000E+00  0.00000000000E+00  0.12535040491E+04  0.12535040491E+04  0.00000000000E+00 0. -1.
         -1   -1    0    0    0  501 -0.00000000000E+00 -0.00000000000E+00 -0.17629491061E+04  0.17629491061E+04  0.00000000000E+00 0.  1.
         23    2    1    2    0    0  0.10635238859E+04 -0.41555601401E+03  0.61954596489E+03  0.13023026268E+04  0.91570041840E+02 0.  0.
    5000000    2    1    2    0    0 -0.10635238859E+04  0.41555601401E+03 -0.11289910219E+04  0.17141505283E+04  0.59993453773E+03 0.  0.
         23    2    4    4    0    0 -0.96067113143E+03  0.14378329504E+03 -0.95500280054E+03  0.13646717313E+04  0.82072689855E+02 0.  0.
         23    2    4    4    0    0 -0.10285275449E+03  0.27177271898E+03 -0.17398822133E+03  0.34947879703E+03  0.86165123624E+02 0.  0.
          1    1    3    3  502    0  0.83813635268E+03 -0.36243307862E+03  0.51335908755E+03  0.10475532611E+04  0.00000000000E+00 0. -1.
         -1    1    3    3    0  502  0.22538753324E+03 -0.53122935398E+02  0.10618687734E+03  0.25474936570E+03  0.00000000000E+00 0.  1.
         15    1    5    5    0    0 -0.34972520879E+03  0.20344080037E+02 -0.37668906962E+03  0.51441171852E+03  0.17770000000E+01 0. -1.
        -15    1    5    5    0    0 -0.61094592264E+03  0.12343921500E+03 -0.57831373093E+03  0.85026001276E+03  0.17770000000E+01 0.  1.
          4    1    6    6  503    0 -0.79318890361E+02  0.12289522290E+03 -0.12060239806E+03  0.18957758464E+03  0.00000000000E+00 0. -1.
         -4    1    6    6    0  503 -0.23533864128E+02  0.14887749608E+03 -0.53385823266E+02  0.15990121240E+03  0.00000000000E+00 0.  1.
<mgrwt>
<rscale>  0 0.12076584E+04</rscale>
<asrwt>0</asrwt>
<pdfrwt beam="1">  1        1 0.19284678E+00 0.12076584E+04</pdfrwt>
<pdfrwt beam="2">  1       -1 0.27122294E+00 0.12076584E+04</pdfrwt>
<totfact> 0.48637264E-01</totfact>
</mgrwt>
</event>
<event>
12    1  0.7781383E-008  0.8791298E+03  0.7818608E-02  0.9452053E-01
         -2   -1    0    0    0  501 -0.00000000000E+00  0.00000000000E+00  0.12622141836E+04  0.12622141836E+04  0.00000000000E+00 0.  1.
          2   -1    0    0  501    0  0.00000000000E+00 -0.00000000000E+00 -0.82548412727E+03  0.82548412727E+03  0.00000000000E+00 0. -1.
         23    2    1    2    0    0  0.17040341126E+01  0.86170848866E+03 -0.15764113055E+03  0.88113051842E+03  0.94846408887E+02 0.  0.
    5000000    2    1    2    0    0 -0.17040341126E+01 -0.86170848866E+03  0.59437118686E+03  0.12065677924E+04  0.59998692221E+03 0.  0.
         23    2    4    4    0    0 -0.30058429108E+02 -0.68342057844E+03  0.13346646722E+03  0.70328505632E+03  0.93964761363E+02 0.  0.
         23    2    4    4    0    0  0.28354394995E+02 -0.17828791023E+03  0.46090471963E+03  0.50328273612E+03  0.90938447572E+02 0.  0.
          4    1    3    3  502    0  0.48252363346E+02  0.44146392640E+03 -0.79056415214E+02  0.45107494463E+03  0.00000000000E+00 0. -1.
         -4    1    3    3    0  502 -0.46548329234E+02  0.42024456226E+03 -0.78584715337E+02  0.43005557379E+03  0.00000000000E+00 0.  1.
         15    1    5    5    0    0 -0.61130997460E+02 -0.55399510714E+03  0.11027628215E+03  0.56816511132E+03  0.17770000000E+01 0.  1.
        -15    1    5    5    0    0  0.31072568352E+02 -0.12942547129E+03  0.23190185068E+02  0.13511994500E+03  0.17770000000E+01 0. -1.
          4    1    6    6  503    0 -0.26401124382E+02 -0.11114255565E+03  0.28954045595E+03  0.31126092379E+03  0.00000000000E+00 0. -1.
         -4    1    6    6    0  503  0.54755519378E+02 -0.67145354578E+02  0.17136426368E+03  0.19202181233E+03  0.00000000000E+00 0.  1.
<mgrwt>
<rscale>  0 0.87912978E+03</rscale>
<asrwt>0</asrwt>
<pdfrwt beam="1">  1        2 0.12699756E+00 0.87912978E+03</pdfrwt>
<pdfrwt beam="2">  1       -2 0.19418680E+00 0.87912978E+03</pdfrwt>
<totfact> 0.48242811E+00</totfact>
</mgrwt>
</event>
<event>
12    1  0.7781383E-008  0.9076355E+03  0.7818608E-02  0.9416087E-01
         -1   -1    0    0    0  501 -0.00000000000E+00  0.00000000000E+00  0.10251820373E+04  0.10251820373E+04  0.00000000000E+00 0.  1.
          1   -1    0    0  501    0  0.00000000000E+00 -0.00000000000E+00 -0.89514529278E+03  0.89514529278E+03  0.00000000000E+00 0. -1.
         23    2    1    2    0    0 -0.84146119167E+03 -0.37752543404E+02 -0.12176787423E+03  0.85597954685E+03  0.91604463956E+02 0.  0.
    5000000    2    1    2    0    0  0.84146119167E+03  0.37752543404E+02  0.25180461873E+03  0.10643477832E+04  0.59995703679E+03 0.  0.
         23    2    4    4    0    0  0.41524996745E+03 -0.20857688703E+03 -0.56096761610E+02  0.47702069607E+03  0.92005676673E+02 0.  0.
         23    2    4    4    0    0  0.42621122422E+03  0.24632943043E+03  0.30790138034E+03  0.58732708715E+03  0.88406172474E+02 0.  0.
          1    1    3    3  502    0 -0.46219894637E+03 -0.49892580757E+02 -0.31597622499E+02  0.46595659174E+03  0.00000000000E+00 0. -1.
         -1    1    3    3    0  502 -0.37926224530E+03  0.12140037353E+02 -0.90170251728E+02  0.39002295511E+03  0.00000000000E+00 0.  1.
         15    1    5    5    0    0  0.22365962962E+03 -0.69475816312E+02 -0.53485756240E+02  0.24023822099E+03  0.17770000000E+01 0.  1.
        -15    1    5    5    0    0  0.19159033783E+03 -0.13910107072E+03 -0.26110053697E+01  0.23678247507E+03  0.17770000000E+01 0. -1.
          2    1    6    6  503    0  0.30027317727E+03  0.12556237690E+03  0.19257089934E+03  0.37817118181E+03  0.00000000000E+00 0. -1.
         -2    1    6    6    0  503  0.12593804695E+03  0.12076705353E+03  0.11533048101E+03  0.20915590534E+03  0.00000000000E+00 0.  1.
<mgrwt>
<rscale>  0 0.90763554E+03</rscale>
<asrwt>0</asrwt>
<pdfrwt beam="1">  1        1 0.13771466E+00 0.90763554E+03</pdfrwt>
<pdfrwt beam="2">  1       -1 0.15772031E+00 0.90763554E+03</pdfrwt>
<totfact> 0.56600133E+00</totfact>
</mgrwt>
</event>
<event>
12    1  0.7781383E-008  0.6313843E+03  0.7818608E-02  0.9842351E-01
         -2   -1    0    0    0  501 -0.00000000000E+00  0.00000000000E+00  0.27847200018E+03  0.27847200018E+03  0.00000000000E+00 0.  1.
          2   -1    0    0  501    0  0.00000000000E+00 -0.00000000000E+00 -0.15141543181E+04  0.15141543181E+04  0.00000000000E+00 0. -1.
         23    2    1    2    0    0  0.47292986522E+03 -0.14143733697E+03 -0.33678689930E+03  0.60449657221E+03  0.91233286548E+02 0.  0.
    5000000    2    1    2    0    0 -0.47292986522E+03  0.14143733697E+03 -0.89889541858E+03  0.11881297460E+04  0.59997678466E+03 0.  0.
         23    2    4    4    0    0 -0.24532706446E+03  0.36105654983E+03 -0.47558475762E+03  0.65211602413E+03  0.92343091315E+02 0.  0.
         23    2    4    4    0    0 -0.22760280076E+03 -0.21961921286E+03 -0.42331066096E+03  0.53601372189E+03  0.89906400259E+02 0.  0.
          2    1    3    3  502    0  0.17266777118E+03 -0.68498645368E+01 -0.10927585247E+03  0.20445608766E+03  0.00000000000E+00 0. -1.
         -2    1    3    3    0  502  0.30026209404E+03 -0.13458747244E+03 -0.22751104683E+03  0.40004048455E+03  0.00000000000E+00 0.  1.
         15    1    5    5    0    0 -0.11544467905E+03  0.18655293268E+03 -0.17272748480E+03  0.27922645352E+03  0.17770000000E+01 0.  1.
        -15    1    5    5    0    0 -0.12988238541E+03  0.17450361715E+03 -0.30285727282E+03  0.37288957060E+03  0.17770000000E+01 0. -1.
          4    1    6    6  503    0 -0.21993676381E+03 -0.18165278715E+03 -0.39828831408E+03  0.48990151693E+03  0.00000000000E+00 0. -1.
         -4    1    6    6    0  503 -0.76660369454E+01 -0.37966425708E+02 -0.25022346880E+02  0.46112204966E+02  0.00000000000E+00 0.  1.
<mgrwt>
<rscale>  0 0.63138433E+03</rscale>
<asrwt>0</asrwt>
<pdfrwt beam="1">  1        2 0.23294682E+00 0.63138433E+03</pdfrwt>
<pdfrwt beam="2">  1       -2 0.42841846E-01 0.63138433E+03</pdfrwt>
<totfact> 0.66555122E+01</totfact>
</mgrwt>
</event>
<event>
12    1  0.7781383E-008  0.9140182E+03  0.7818608E-02  0.9408226E-01
         -2   -1    0    0    0  501 -0.00000000000E+00  0.00000000000E+00  0.19091989362E+03  0.19091989362E+03  0.00000000000E+00 0.  1.
          2   -1    0    0  501    0  0.00000000000E+00 -0.00000000000E+00 -0.48474562327E+04  0.48474562327E+04  0.00000000000E+00 0. -1.
         23    2    1    2    0    0 -0.18685850933E+03  0.80803764331E+03 -0.14555858077E+04  0.16777345648E+04  0.90676848218E+02 0.  0.
    5000000    2    1    2    0    0  0.18685850933E+03 -0.80803764331E+03 -0.32009505314E+04  0.33606415615E+04  0.59998872096E+03 0.  0.
         23    2    4    4    0    0  0.37975117757E+03 -0.50084044874E+03 -0.22828395334E+04  0.23694507723E+04  0.88817314168E+02 0.  0.
         23    2    4    4    0    0 -0.19289266824E+03 -0.30719719458E+03 -0.91811099804E+03  0.99119078926E+03  0.89183396342E+02 0.  0.
          2    1    3    3  502    0 -0.15912391515E+03  0.56584002427E+03 -0.96506796647E+03  0.11299785544E+04  0.00000000000E+00 0.  1.
         -2    1    3    3    0  502 -0.27734594183E+02  0.24219761904E+03 -0.49051784125E+03  0.54775601044E+03  0.00000000000E+00 0. -1.
         15    1    5    5    0    0  0.33022206788E+02 -0.87248995575E+02 -0.40371888651E+03  0.41436089394E+03  0.17770000000E+01 0. -1.
        -15    1    5    5    0    0  0.34672897079E+03 -0.41359145316E+03 -0.18791206468E+04  0.19550898784E+04  0.17770000000E+01 0.  1.
          4    1    6    6  503    0 -0.14423721269E+03 -0.24727298774E+03 -0.80383940833E+03  0.85329133266E+03  0.00000000000E+00 0. -1.
         -4    1    6    6    0  503 -0.48655455545E+02 -0.59924206833E+02 -0.11427158970E+03  0.13789945660E+03  0.00000000000E+00 0.  1.
<mgrwt>
<rscale>  0 0.91401820E+03</rscale>
<asrwt>0</asrwt>
<pdfrwt beam="1">  1        2 0.74576254E+00 0.91401820E+03</pdfrwt>
<pdfrwt beam="2">  1       -2 0.29372290E-01 0.91401820E+03</pdfrwt>
<totfact> 0.62466983E-01</totfact>
</mgrwt>
</event>
<event>
12    1  0.7781383E-008  0.5704847E+03  0.7818608E-02  0.9968607E-01
          2   -1    0    0  501    0  0.00000000000E+00  0.00000000000E+00  0.23477531203E+04  0.23477531203E+04  0.00000000000E+00 0. -1.
         -2   -1    0    0    0  501 -0.00000000000E+00 -0.00000000000E+00 -0.16944403297E+03  0.16944403297E+03  0.00000000000E+00 0.  1.
         23    2    1    2    0    0  0.29167736529E+03  0.35703918886E+03  0.56365981894E+03  0.73399477883E+03  0.92104701618E+02 0.  0.
    5000000    2    1    2    0    0 -0.29167736529E+03 -0.35703918886E+03  0.16146492684E+04  0.17832023745E+04  0.60013813452E+03 0.  0.
         23    2    4    4    0    0  0.12218455238E+03 -0.17106938031E+03  0.23662808838E+03  0.32942174521E+03  0.91279988437E+02 0.  0.
         23    2    4    4    0    0 -0.41386191766E+03 -0.18596980855E+03  0.13780211801E+04  0.14537806293E+04  0.93109015609E+02 0.  0.
          4    1    3    3  502    0  0.57047390679E+02  0.77956783339E+02  0.18273953271E+03  0.20670123770E+03  0.00000000000E+00 0. -1.
         -4    1    3    3    0  502  0.23462997461E+03  0.27908240552E+03  0.38092028623E+03  0.52729354113E+03  0.00000000000E+00 0.  1.
         15    1    5    5    0    0  0.62586464586E+02 -0.15019243505E+03  0.14391497003E+03  0.21723146509E+03  0.17770000000E+01 0.  1.
        -15    1    5    5    0    0  0.59598087790E+02 -0.20876945261E+02  0.92713118349E+02  0.11219028013E+03  0.17770000000E+01 0. -1.
          3    1    6    6  503    0 -0.21821109774E+03 -0.10427307953E+03  0.87720700565E+03  0.90993466197E+03  0.00000000000E+00 0. -1.
         -3    1    6    6    0  503 -0.19565081992E+03 -0.81696729023E+02  0.50081417441E+03  0.54384596731E+03  0.00000000000E+00 0.  1.
<mgrwt>
<rscale>  0 0.57048473E+03</rscale>
<asrwt>0</asrwt>
<pdfrwt beam="1">  1        2 0.36119276E+00 0.57048473E+03</pdfrwt>
<pdfrwt beam="2">  1       -2 0.26068315E-01 0.57048473E+03</pdfrwt>
<totfact> 0.60163506E+01</totfact>
</mgrwt>
</event>
<event>
12    1  0.7781383E-008  0.5379371E+03  0.7818608E-02  0.1004325E+00
         -2   -1    0    0    0  501 -0.00000000000E+00  0.00000000000E+00  0.74987276761E+03  0.74987276761E+03  0.00000000000E+00 0.  1.
          2   -1    0    0  501    0  0.00000000000E+00 -0.00000000000E+00 -0.67391462122E+03  0.67391462122E+03  0.00000000000E+00 0. -1.
         23    2    1    2    0    0 -0.38092902221E+03 -0.14724822654E+03 -0.38114163039E+03  0.56615214939E+03  0.92034524309E+02 0.  0.
    5000000    2    1    2    0    0  0.38092902221E+03  0.14724822654E+03  0.45709977678E+03  0.85763523944E+03  0.59984084374E+03 0.  0.
         23    2    4    4    0    0 -0.63147998815E+02  0.18589179857E+03  0.31276582042E+03  0.38019614239E+03  0.90461139366E+02 0.  0.
         23    2    4    4    0    0  0.44407702102E+03 -0.38643572026E+02  0.14433395636E+03  0.47743909705E+03  0.91750063615E+02 0.  0.
          4    1    3    3  502    0 -0.18679306330E+03 -0.55201589645E+02 -0.23997241339E+03  0.30907219737E+03  0.00000000000E+00 0. -1.
         -4    1    3    3    0  502 -0.19413595891E+03 -0.92046636894E+02 -0.14116921700E+03  0.25707995203E+03  0.00000000000E+00 0.  1.
         15    1    5    5    0    0 -0.63431849261E+02  0.55468155916E+02  0.14465612376E+03  0.16741824181E+03  0.17770000000E+01 0. -1.
        -15    1    5    5    0    0  0.28385044662E+00  0.13042364265E+03  0.16810969666E+03  0.21277790058E+03  0.17770000000E+01 0.  1.
          2    1    6    6  503    0  0.53084586596E+02 -0.28832910564E+02 -0.37731738226E+00  0.60410698010E+02  0.00000000000E+00 0. -1.
         -2    1    6    6    0  503  0.39099243443E+03 -0.98106614626E+01  0.14471127374E+03  0.41702839904E+03  0.00000000000E+00 0.  1.
<mgrwt>
<rscale>  0 0.53793706E+03</rscale>
<asrwt>0</asrwt>
<pdfrwt beam="1">  1        2 0.10367917E+00 0.53793706E+03</pdfrwt>
<pdfrwt beam="2">  1       -2 0.11536504E+00 0.53793706E+03</pdfrwt>
<totfact> 0.26048082E+01</totfact>
</mgrwt>
</event>
<event>
12    1  0.7816952E-008  0.9980374E+03  0.7818608E-02  0.9310700E-01
          2   -1    0    0  501    0  0.00000000000E+00  0.00000000000E+00  0.22358154008E+04  0.22358154008E+04  0.00000000000E+00 0.  1.
         -2   -1    0    0    0  501 -0.00000000000E+00 -0.00000000000E+00 -0.77546194789E+03  0.77546194789E+03  0.00000000000E+00 0. -1.
         23    2    1    2    0    0  0.58545719239E+02 -0.98624672106E+03  0.15630371530E+04  0.18510223108E+04  0.84191788846E+02 0.  0.
    5000000    2    1    2    0    0 -0.58545719239E+02  0.98624672106E+03 -0.10268370007E+03  0.11602550379E+04  0.59961455514E+03 0.  0.
         23    2    4    4    0    0 -0.10088174180E+03  0.46794474341E+03 -0.32676987439E+03  0.58667070536E+03  0.90854592677E+02 0.  0.
         23    2    4    4    0    0  0.42336022560E+02  0.51830197765E+03  0.22408617433E+03  0.57358433256E+03  0.91406204351E+02 0.  0.
          4    1    3    3  502    0  0.29593148193E+02 -0.50198453825E+03  0.87401157759E+03  0.10083454115E+04  0.00000000000E+00 0. -1.
         -4    1    3    3    0  502  0.28952571046E+02 -0.48426218281E+03  0.68902557538E+03  0.84267689929E+03  0.00000000000E+00 0.  1.
         15    1    5    5    0    0 -0.50843489506E+02  0.11743003476E+03 -0.12620762607E+03  0.17973980109E+03  0.17770000000E+01 0. -1.
        -15    1    5    5    0    0 -0.50038252293E+02  0.35051470865E+03 -0.20056224832E+03  0.40693090427E+03  0.17770000000E+01 0.  1.
          2    1    6    6  503    0 -0.23752125665E+02  0.14628249131E+03  0.85711832981E+02  0.17119944232E+03  0.00000000000E+00 0. -1.
         -2    1    6    6    0  503  0.66088148225E+02  0.37201948634E+03  0.13837434135E+03  0.40238489025E+03  0.00000000000E+00 0.  1.
<mgrwt>
<rscale>  0 0.99803740E+03</rscale>
<asrwt>0</asrwt>
<pdfrwt beam="1">  1        2 0.34397160E+00 0.99803740E+03</pdfrwt>
<pdfrwt beam="2">  1       -2 0.11930184E+00 0.99803740E+03</pdfrwt>
<totfact> 0.26631059E+00</totfact>
</mgrwt>
</event>
<event>
12    1  0.7781383E-008  0.4822409E+03  0.7818608E-02  0.1018521E+00
          2   -1    0    0  501    0  0.00000000000E+00  0.00000000000E+00  0.34880805449E+03  0.34880805449E+03  0.00000000000E+00 0.  1.
         -2   -1    0    0    0  501 -0.00000000000E+00 -0.00000000000E+00 -0.80424210586E+03  0.80424210586E+03  0.00000000000E+00 0. -1.
         23    2    1    2    0    0 -0.89911599330E+02  0.31320139425E+03 -0.11795691187E+02  0.33878559880E+03  0.91963767729E+02 0.  0.
    5000000    2    1    2    0    0  0.89911599330E+02 -0.31320139425E+03 -0.44363836018E+03  0.81426456155E+03  0.60002714315E+03 0.  0.
         23    2    4    4    0    0 -0.19304830298E+03  0.19573781467E+02 -0.51493176730E+02  0.22034171648E+03  0.90819296229E+02 0.  0.
         23    2    4    4    0    0  0.28295990231E+03 -0.33277517571E+03 -0.39214518345E+03  0.59392284507E+03  0.90337573072E+02 0.  0.
          1    1    3    3  502    0 -0.36244728047E+02  0.68717403221E+02  0.33168126027E+02  0.84474175941E+02  0.00000000000E+00 0. -1.
         -1    1    3    3    0  502 -0.53666871283E+02  0.24448399102E+03 -0.44963817214E+02  0.25431142286E+03  0.00000000000E+00 0.  1.
         15    1    5    5    0    0 -0.12862985129E+03  0.22588068384E+01  0.10723224898E+02  0.12910804054E+03  0.17770000000E+01 0. -1.
        -15    1    5    5    0    0 -0.64418451685E+02  0.17314974628E+02 -0.62216401629E+02  0.91233675934E+02  0.17770000000E+01 0.  1.
          2    1    6    6  503    0  0.12277172904E+03 -0.19169155341E+03 -0.15809324851E+03  0.27714982288E+03  0.00000000000E+00 0. -1.
         -2    1    6    6    0  503  0.16018817326E+03 -0.14108362231E+03 -0.23405193494E+03  0.31677302219E+03  0.00000000000E+00 0.  1.
<mgrwt>
<rscale>  0 0.48224086E+03</rscale>
<asrwt>0</asrwt>
<pdfrwt beam="1">  1        2 0.53662778E-01 0.48224086E+03</pdfrwt>
<pdfrwt beam="2">  1       -2 0.12372955E+00 0.48224086E+03</pdfrwt>
<totfact> 0.47082959E+01</totfact>
</mgrwt>
</event>
<event>
12    1  0.7781383E-008  0.4109152E+03  0.7818608E-02  0.1040064E+00
         -2   -1    0    0    0  501 -0.00000000000E+00  0.00000000000E+00  0.52633713354E+03  0.52633713354E+03  0.00000000000E+00 0.  1.
          2   -1    0    0  501    0  0.00000000000E+00 -0.00000000000E+00 -0.11621488613E+04  0.11621488613E+04  0.00000000000E+00 0. -1.
         23    2    1    2    0    0 -0.24785297624E+03  0.14755457746E+03 -0.91715158617E+03  0.96572014981E+03  0.90801566980E+02 0.  0.
    5000000    2    1    2    0    0  0.24785297624E+03 -0.14755457746E+03  0.28133985838E+03  0.72276584505E+03  0.60002908238E+03 0.  0.
         23    2    4    4    0    0 -0.11730990329E+03 -0.57608347623E+02 -0.93367829043E+02  0.18420445748E+03  0.90185339873E+02 0.  0.
         23    2    4    4    0    0  0.36516287953E+03 -0.89946229840E+02  0.37470768743E+03  0.53856138758E+03  0.90599471995E+02 0.  0.
          4    1    3    3  502    0 -0.15372808838E+03  0.40709812490E+02 -0.52261988502E+03  0.54627937743E+03  0.00000000000E+00 0. -1.
         -4    1    3    3    0  502 -0.94124887856E+02  0.10684476497E+03 -0.39453170115E+03  0.41944077238E+03  0.00000000000E+00 0.  1.
         15    1    5    5    0    0 -0.35491108318E+02 -0.32012373347E+02 -0.85664009747E+02  0.98111625773E+02  0.17770000000E+01 0. -1.
        -15    1    5    5    0    0 -0.81818794972E+02 -0.25595974275E+02 -0.77038192962E+01  0.86092831702E+02  0.17770000000E+01 0.  1.
          2    1    6    6  503    0  0.16838171168E+03 -0.88120589500E+02  0.18365439729E+03  0.26428502940E+03  0.00000000000E+00 0.  1.
         -2    1    6    6    0  503  0.19678116785E+03 -0.18256403395E+01  0.19105329014E+03  0.27427635818E+03  0.00000000000E+00 0. -1.
<mgrwt>
<rscale>  0 0.41091524E+03</rscale>
<asrwt>0</asrwt>
<pdfrwt beam="1">  1        2 0.17879213E+00 0.41091524E+03</pdfrwt>
<pdfrwt beam="2">  1       -2 0.80974943E-01 0.41091524E+03</pdfrwt>
<totfact> 0.28664278E+01</totfact>
</mgrwt>
</event>
<event>
12    1  0.7781383E-008  0.1152039E+04  0.7818608E-02  0.9155905E-01
          1   -1    0    0  501    0  0.00000000000E+00  0.00000000000E+00  0.18715494704E+04  0.18715494704E+04  0.00000000000E+00 0. -1.
         -1   -1    0    0    0  501 -0.00000000000E+00 -0.00000000000E+00 -0.85348613693E+03  0.85348613693E+03  0.00000000000E+00 0.  1.
         23    2    1    2    0    0 -0.53320901420E+03 -0.93862705516E+03  0.10226948576E+04  0.14901219230E+04  0.96051924503E+02 0.  0.
    5000000    2    1    2    0    0  0.53320901420E+03  0.93862705516E+03 -0.46315241273E+01  0.12349136843E+04  0.59971472821E+03 0.  0.
         23    2    4    4    0    0  0.45969484901E+03  0.24151030961E+03  0.17465937177E+02  0.52762790398E+03  0.91867090103E+02 0.  0.
         23    2    4    4    0    0  0.73514165183E+02  0.69711674555E+03 -0.22097461304E+02  0.70728578035E+03  0.91590326317E+02 0.  0.
          4    1    3    3  502    0 -0.20918070068E+03 -0.38544934308E+03  0.47995410787E+03  0.65014129793E+03  0.00000000000E+00 0.  1.
         -4    1    3    3    0  502 -0.32402831352E+03 -0.55317771208E+03  0.54274074976E+03  0.83998062511E+03  0.00000000000E+00 0. -1.
         15    1    5    5    0    0  0.23446370036E+03  0.13638925601E+03 -0.35261466154E+02  0.27353571003E+03  0.17770000000E+01 0. -1.
        -15    1    5    5    0    0  0.22523114866E+03  0.10512105360E+03  0.52727403331E+02  0.25409219395E+03  0.17770000000E+01 0.  1.
          3    1    6    6  503    0 -0.10405419647E+02  0.21501722381E+03  0.19623787431E+02  0.21616144968E+03  0.00000000000E+00 0. -1.
         -3    1    6    6    0  503  0.83919584830E+02  0.48209952174E+03 -0.41721248735E+02  0.49112433067E+03  0.00000000000E+00 0.  1.
<mgrwt>
<rscale>  0 0.11520386E+04</rscale>
<asrwt>0</asrwt>
<pdfrwt beam="1">  1        1 0.28793069E+00 0.11520386E+04</pdfrwt>
<pdfrwt beam="2">  1       -1 0.13130556E+00 0.11520386E+04</pdfrwt>
<totfact> 0.17812207E+00</totfact>
</mgrwt>
</event>
<event>
12    1  0.7781383E-008  0.5433346E+03  0.7818608E-02  0.1003049E+00
          2   -1    0    0  501    0  0.00000000000E+00  0.00000000000E+00  0.75861760546E+03  0.75861760546E+03  0.00000000000E+00 0. -1.
         -2   -1    0    0    0  501 -0.00000000000E+00 -0.00000000000E+00 -0.48465278802E+03  0.48465278802E+03  0.00000000000E+00 0.  1.
         23    2    1    2    0    0  0.41982283769E+03  0.15912161589E+03  0.16496289341E+03  0.48600345621E+03  0.86114456086E+02 0.  0.
    5000000    2    1    2    0    0 -0.41982283769E+03 -0.15912161589E+03  0.10900192403E+03  0.75726693727E+03  0.60000074262E+03 0.  0.
         23    2    4    4    0    0  0.91017876508E+02 -0.35760500765E+02 -0.11642495096E+03  0.17804591612E+03  0.92641846817E+02 0.  0.
         23    2    4    4    0    0 -0.51084071420E+03 -0.12336111513E+03  0.22542687498E+03  0.57922102115E+03  0.92214507370E+02 0.  0.
          3    1    3    3  502    0  0.22987620940E+03  0.13139835437E+03  0.10578036592E+03  0.28512819046E+03  0.00000000000E+00 0. -1.
         -3    1    3    3    0  502  0.18994662829E+03  0.27723261526E+02  0.59182527491E+02  0.20087526575E+03  0.00000000000E+00 0.  1.
         15    1    5    5    0    0  0.56525530589E+02 -0.34704939554E+01 -0.11782865292E+03  0.13074375364E+03  0.17770000000E+01 0. -1.
        -15    1    5    5    0    0  0.34492345919E+02 -0.32290006810E+02  0.14037019689E+01  0.47302162477E+02  0.17770000000E+01 0.  1.
          3    1    6    6  503    0 -0.27474138664E+03 -0.55009990274E+02  0.71381878776E+02  0.28914408377E+03  0.00000000000E+00 0. -1.
         -3    1    6    6    0  503 -0.23609932756E+03 -0.68351124853E+02  0.15404499621E+03  0.29007693738E+03  0.00000000000E+00 0.  1.
<mgrwt>
<rscale>  0 0.54333459E+03</rscale>
<asrwt>0</asrwt>
<pdfrwt beam="1">  1        2 0.11671040E+00 0.54333459E+03</pdfrwt>
<pdfrwt beam="2">  1       -2 0.74561968E-01 0.54333459E+03</pdfrwt>
<totfact> 0.61636285E+01</totfact>
</mgrwt>
</event>
<event>
12    1  0.7781383E-008  0.7612865E+03  0.7818608E-02  0.9617808E-01
         -2   -1    0    0    0  501 -0.00000000000E+00  0.00000000000E+00  0.74637703708E+03  0.74637703708E+03  0.00000000000E+00 0.  1.
          2   -1    0    0  501    0  0.00000000000E+00 -0.00000000000E+00 -0.16872704835E+04  0.16872704835E+04  0.00000000000E+00 0. -1.
         23    2    1    2    0    0  0.73790321395E+03 -0.12133703731E+03  0.34614366371E+03  0.82868953138E+03  0.87675958620E+02 0.  0.
    5000000    2    1    2    0    0 -0.73790321395E+03  0.12133703731E+03 -0.12870371102E+04  0.16049579892E+04  0.60016813852E+03 0.  0.
         23    2    4    4    0    0 -0.34185541844E+03 -0.39251963972E+02 -0.10461584928E+04  0.11051190769E+04  0.91840831116E+02 0.  0.
         23    2    4    4    0    0 -0.39604779551E+03  0.16058900128E+03 -0.24087861733E+03  0.49983891231E+03  0.95779675883E+02 0.  0.
          2    1    3    3  502    0  0.46899009875E+03 -0.67116962156E+02  0.17338357084E+03  0.50449802970E+03  0.00000000000E+00 0. -1.
         -2    1    3    3    0  502  0.26891311520E+03 -0.54220075153E+02  0.17276009287E+03  0.32419150168E+03  0.00000000000E+00 0.  1.
         15    1    5    5    0    0 -0.84072743192E+02  0.78499231173E+01 -0.15864859486E+03  0.17972863383E+03  0.17770000000E+01 0.  1.
        -15    1    5    5    0    0 -0.25778267525E+03 -0.47101887090E+02 -0.88750989799E+03  0.92539044311E+03  0.17770000000E+01 0. -1.
          4    1    6    6  503    0 -0.17170560270E+03  0.81761190477E+02 -0.54853970040E+02  0.19793095841E+03  0.00000000000E+00 0. -1.
         -4    1    6    6    0  503 -0.22434219280E+03  0.78827810804E+02 -0.18602464729E+03  0.30190795390E+03  0.00000000000E+00 0.  1.
<mgrwt>
<rscale>  0 0.76128655E+03</rscale>
<asrwt>0</asrwt>
<pdfrwt beam="1">  1        2 0.25958007E+00 0.76128655E+03</pdfrwt>
<pdfrwt beam="2">  1       -2 0.11482724E+00 0.76128655E+03</pdfrwt>
<totfact> 0.60593208E+00</totfact>
</mgrwt>
</event>
<event>
12    1  0.7781383E-008  0.5634398E+03  0.7818608E-02  0.9984301E-01
         -2   -1    0    0    0  501 -0.00000000000E+00  0.00000000000E+00  0.31524913442E+03  0.31524913442E+03  0.00000000000E+00 0.  1.
          2   -1    0    0  501    0  0.00000000000E+00 -0.00000000000E+00 -0.11038072074E+04  0.11038072074E+04  0.00000000000E+00 0. -1.
         23    2    1    2    0    0 -0.49724489639E+02  0.41303273038E+03 -0.42968322476E+03  0.60513331851E+03  0.92141729409E+02 0.  0.
    5000000    2    1    2    0    0  0.49724489639E+02 -0.41303273038E+03 -0.35887484822E+03  0.81392302331E+03  0.60050892580E+03 0.  0.
         23    2    4    4    0    0  0.16871787737E+03 -0.50055142459E+03 -0.18487116573E+03  0.56743022887E+03  0.93713744544E+02 0.  0.
         23    2    4    4    0    0 -0.11899338773E+03  0.87518694212E+02 -0.17400368248E+03  0.24649279444E+03  0.93072380626E+02 0.  0.
          3    1    3    3  502    0 -0.14136281123E+02  0.32931673166E+03 -0.29343481489E+03  0.44130866158E+03  0.00000000000E+00 0. -1.
         -3    1    3    3    0  502 -0.35588208517E+02  0.83715998717E+02 -0.13624840987E+03  0.16382465693E+03  0.00000000000E+00 0.  1.
         15    1    5    5    0    0  0.13448120009E+03 -0.27218376828E+03 -0.81002659692E+02  0.31421932706E+03  0.17770000000E+01 0. -1.
        -15    1    5    5    0    0  0.34236677276E+02 -0.22836765631E+03 -0.10386850604E+03  0.25321090181E+03  0.17770000000E+01 0.  1.
          1    1    6    6  503    0 -0.24021828667E+02  0.71534622028E+02 -0.98692127562E+02  0.12423520614E+03  0.00000000000E+00 0. -1.
         -1    1    6    6    0  503 -0.94971559059E+02  0.15984072184E+02 -0.75311554920E+02  0.12225758831E+03  0.00000000000E+00 0.  1.
<mgrwt>
<rscale>  0 0.56343977E+03</rscale>
<asrwt>0</asrwt>
<pdfrwt beam="1">  1        2 0.16981649E+00 0.56343977E+03</pdfrwt>
<pdfrwt beam="2">  1       -2 0.48499867E-01 0.56343977E+03</pdfrwt>
<totfact> 0.90064013E+01</totfact>
</mgrwt>
</event>
<event>
12    1  0.7781383E-008  0.8539494E+03  0.7818608E-02  0.9485051E-01
         -1   -1    0    0    0  501 -0.00000000000E+00  0.00000000000E+00  0.80282578448E+03  0.80282578448E+03  0.00000000000E+00 0.  1.
          1   -1    0    0  501    0  0.00000000000E+00 -0.00000000000E+00 -0.11504424915E+04  0.11504424915E+04  0.00000000000E+00 0. -1.
         23    2    1    2    0    0  0.67030059607E+03 -0.41000039820E+03 -0.52471090944E+03  0.94887370147E+03  0.87387340208E+02 0.  0.
    5000000    2    1    2    0    0 -0.67030059607E+03  0.41000039820E+03  0.17709420242E+03  0.10043945745E+04  0.60003573992E+03 0.  0.
         23    2    4    4    0    0 -0.34474387991E+03  0.47007595557E+03 -0.49649814184E+02  0.59237032088E+03  0.92831817134E+02 0.  0.
         23    2    4    4    0    0 -0.32555671616E+03 -0.60075557373E+02  0.22674401660E+03  0.41202425364E+03  0.93567561093E+02 0.  0.
          1    1    3    3  502    0  0.11112443214E+03 -0.96229159449E+02 -0.12769679724E+03  0.19471816189E+03  0.00000000000E+00 0. -1.
         -1    1    3    3    0  502  0.55917616394E+03 -0.31377123875E+03 -0.39701411220E+03  0.75415553958E+03  0.00000000000E+00 0.  1.
         15    1    5    5    0    0 -0.26159688672E+03  0.32717986739E+03 -0.73555516525E+02  0.42531537535E+03  0.17770000000E+01 0. -1.
        -15    1    5    5    0    0 -0.83146993186E+02  0.14289608818E+03  0.23905702341E+02  0.16705494553E+03  0.17770000000E+01 0.  1.
          2    1    6    6  503    0 -0.18664733890E+03 -0.61586793086E+02  0.86868901175E+02  0.21488687301E+03  0.00000000000E+00 0. -1.
         -2    1    6    6    0  503 -0.13890937726E+03  0.15112357130E+01  0.13987511543E+03  0.19713738063E+03  0.00000000000E+00 0.  1.
<mgrwt>
<rscale>  0 0.85394943E+03</rscale>
<asrwt>0</asrwt>
<pdfrwt beam="1">  1        1 0.17699115E+00 0.85394943E+03</pdfrwt>
<pdfrwt beam="2">  1       -1 0.12351166E+00 0.85394943E+03</pdfrwt>
<totfact> 0.68415274E+00</totfact>
</mgrwt>
</event>
<event>
12    1  0.7781383E-008  0.6851147E+03  0.7818608E-02  0.9743032E-01
         -1   -1    0    0    0  501 -0.00000000000E+00  0.00000000000E+00  0.38945431162E+03  0.38945431162E+03  0.00000000000E+00 0.  1.
          1   -1    0    0  501    0  0.00000000000E+00 -0.00000000000E+00 -0.13867382860E+04  0.13867382860E+04  0.00000000000E+00 0. -1.
         23    2    1    2    0    0 -0.56633199551E+03 -0.19631891003E+03 -0.29125289569E+03  0.67266590663E+03  0.91532120729E+02 0.  0.
    5000000    2    1    2    0    0  0.56633199551E+03  0.19631891003E+03 -0.70603107874E+03  0.11035266910E+04  0.60001519155E+03 0.  0.
         23    2    4    4    0    0  0.35484417623E+03 -0.12959606253E+03 -0.55384006899E+03  0.67674745582E+03  0.92405454988E+02 0.  0.
         23    2    4    4    0    0  0.21148781928E+03  0.32591497257E+03 -0.15219100975E+03  0.42677923521E+03  0.89614424683E+02 0.  0.
          3    1    3    3  502    0 -0.24833884632E+03 -0.60919096362E+02 -0.16692754903E+03  0.30536556046E+03  0.00000000000E+00 0. -1.
         -3    1    3    3    0  502 -0.31799314919E+03 -0.13539981367E+03 -0.12432534666E+03  0.36730034617E+03  0.00000000000E+00 0.  1.
         15    1    5    5    0    0  0.17654600218E+03 -0.74596254982E+02 -0.35904295196E+03  0.40699888356E+03  0.17770000000E+01 0.  1.
        -15    1    5    5    0    0  0.17829817406E+03 -0.54999807551E+02 -0.19479711703E+03  0.26974857226E+03  0.17770000000E+01 0. -1.
          1    1    6    6  503    0  0.17354413140E+03  0.23504412608E+03 -0.74962354021E+02  0.30163332254E+03  0.00000000000E+00 0. -1.
         -1    1    6    6    0  503  0.37943687876E+02  0.90870846492E+02 -0.77228655733E+02  0.12514591267E+03  0.00000000000E+00 0.  1.
<mgrwt>
<rscale>  0 0.68511469E+03</rscale>
<asrwt>0</asrwt>
<pdfrwt beam="1">  1        1 0.21334435E+00 0.68511469E+03</pdfrwt>
<pdfrwt beam="2">  1       -1 0.59916048E-01 0.68511469E+03</pdfrwt>
<totfact> 0.23087041E+01</totfact>
</mgrwt>
</event>
<event>
12    1  0.7781383E-008  0.9347042E+03  0.7818608E-02  0.9383210E-01
          2   -1    0    0  501    0  0.00000000000E+00  0.00000000000E+00  0.78671879999E+03  0.78671879999E+03  0.00000000000E+00 0.  1.
         -2   -1    0    0    0  501 -0.00000000000E+00 -0.00000000000E+00 -0.17672294525E+04  0.17672294525E+04  0.00000000000E+00 0. -1.
         23    2    1    2    0    0 -0.90423305623E+03 -0.12610501029E+03 -0.11249322950E+04  0.14519267638E+04  0.95282555810E+02 0.  0.
    5000000    2    1    2    0    0  0.90423305623E+03  0.12610501029E+03  0.14442164249E+03  0.11020214887E+04  0.60004487926E+03 0.  0.
         23    2    4    4    0    0  0.79957895740E+03  0.13528456139E+03  0.32149637651E+03  0.87698011511E+03  0.90032108221E+02 0.  0.
         23    2    4    4    0    0  0.10465409883E+03 -0.91795510969E+01 -0.17707473401E+03  0.22504137359E+03  0.90837293221E+02 0.  0.
          3    1    3    3  502    0 -0.46722008554E+03 -0.99491132174E+02 -0.63951148000E+03  0.79822805436E+03  0.00000000000E+00 0. -1.
         -3    1    3    3    0  502 -0.43701297069E+03 -0.26613878116E+02 -0.48542081497E+03  0.65369870940E+03  0.00000000000E+00 0.  1.
         15    1    5    5    0    0  0.75713201385E+03  0.10705710505E+03  0.29601067139E+03  0.81996072189E+03  0.17770000000E+01 0.  1.
        -15    1    5    5    0    0  0.42446943553E+02  0.28227456335E+02  0.25485705117E+02  0.57019393214E+02  0.17770000000E+01 0. -1.
          2    1    6    6  503    0 -0.15431448045E+02 -0.95204750358E+01 -0.31313448910E+02  0.36184266143E+02  0.00000000000E+00 0. -1.
         -2    1    6    6    0  503  0.12008554687E+03  0.34092393887E+00 -0.14576128510E+03  0.18885710744E+03  0.00000000000E+00 0.  1.
<mgrwt>
<rscale>  0 0.93470423E+03</rscale>
<asrwt>0</asrwt>
<pdfrwt beam="1">  1        2 0.12103366E+00 0.93470423E+03</pdfrwt>
<pdfrwt beam="2">  1       -2 0.27188145E+00 0.93470423E+03</pdfrwt>
<totfact> 0.16772047E+00</totfact>
</mgrwt>
</event>
<event>
12    1  0.7781383E-008  0.3391101E+03  0.7818608E-02  0.1067176E+00
          2   -1    0    0  501    0  0.00000000000E+00  0.00000000000E+00  0.45411182282E+03  0.45411182282E+03  0.00000000000E+00 0. -1.
         -2   -1    0    0    0  501 -0.00000000000E+00 -0.00000000000E+00 -0.48424177366E+03  0.48424177366E+03  0.00000000000E+00 0.  1.
         23    2    1    2    0    0  0.10614490933E+03  0.14289645548E+03  0.19121624211E+03  0.27622826788E+03  0.89734419054E+02 0.  0.
    5000000    2    1    2    0    0 -0.10614490933E+03 -0.14289645548E+03 -0.22134619294E+03  0.66212532860E+03  0.59810507010E+03 0.  0.
         23    2    4    4    0    0  0.57118333021E+02  0.12985570192E+03 -0.27917551038E+03  0.32628121040E+03  0.91626717611E+02 0.  0.
         23    2    4    4    0    0 -0.16326324235E+03 -0.27275215740E+03  0.57829317432E+02  0.33584411820E+03  0.91642872640E+02 0.  0.
          3    1    3    3  502    0  0.58423669722E+02  0.12363064731E+03  0.17537249739E+03  0.22238114798E+03  0.00000000000E+00 0. -1.
         -3    1    3    3    0  502  0.47721239608E+02  0.19265808177E+02  0.15843744718E+02  0.53847119896E+02  0.00000000000E+00 0.  1.
         15    1    5    5    0    0  0.82959742752E+00  0.10514290028E+03 -0.20066140057E+03  0.22654772812E+03  0.17770000000E+01 0.  1.
        -15    1    5    5    0    0  0.56288735593E+02  0.24712801637E+02 -0.78514109810E+02  0.99733482280E+02  0.17770000000E+01 0. -1.
          4    1    6    6  503    0 -0.66415076225E+01 -0.53482639877E+02 -0.16421550586E+02  0.56339770282E+02  0.00000000000E+00 0. -1.
         -4    1    6    6    0  503 -0.15662173473E+03 -0.21926951752E+03  0.74250868018E+02  0.27950434792E+03  0.00000000000E+00 0.  1.
<mgrwt>
<rscale>  0 0.33911006E+03</rscale>
<asrwt>0</asrwt>
<pdfrwt beam="1">  1        2 0.69863358E-01 0.33911006E+03</pdfrwt>
<pdfrwt beam="2">  1       -2 0.74498734E-01 0.33911006E+03</pdfrwt>
<totfact> 0.11593062E+02</totfact>
</mgrwt>
</event>
<event>
12    1  0.7781383E-008  0.4355837E+03  0.7818608E-02  0.1032111E+00
         -1   -1    0    0    0  501 -0.00000000000E+00  0.00000000000E+00  0.50127869227E+03  0.50127869227E+03  0.00000000000E+00 0.  1.
          1   -1    0    0  501    0  0.00000000000E+00 -0.00000000000E+00 -0.62324532311E+03  0.62324532311E+03  0.00000000000E+00 0. -1.
         23    2    1    2    0    0  0.37706796667E+03  0.91476923565E+02  0.54279020190E+01  0.39874346871E+03  0.91752998238E+02 0.  0.
    5000000    2    1    2    0    0 -0.37706796667E+03 -0.91476923565E+02 -0.12739453286E+03  0.72578054667E+03  0.59998312967E+03 0.  0.
         23    2    4    4    0    0 -0.11958769099E+03  0.88635409007E+02  0.19817222864E+03  0.26401098936E+03  0.90951188727E+02 0.  0.
         23    2    4    4    0    0 -0.25748027568E+03 -0.18011233257E+03 -0.32556676149E+03  0.46176955731E+03  0.92200125612E+02 0.  0.
          3    1    3    3  502    0  0.51552533853E+02  0.15011629813E+02  0.33343300414E+02  0.63204338924E+02  0.00000000000E+00 0. -1.
         -3    1    3    3    0  502  0.32551543282E+03  0.76465293751E+02 -0.27915398395E+02  0.33553912979E+03  0.00000000000E+00 0.  1.
         15    1    5    5    0    0 -0.79088955854E+02  0.25268765938E+02  0.47667945306E+02  0.95754708546E+02  0.17770000000E+01 0.  1.
        -15    1    5    5    0    0 -0.40498735136E+02  0.63366643069E+02  0.15050428333E+03  0.16825628081E+03  0.17770000000E+01 0. -1.
          3    1    6    6  503    0 -0.14173645582E+03 -0.49075055153E+02 -0.17972922282E+03  0.23409437729E+03  0.00000000000E+00 0. -1.
         -3    1    6    6    0  503 -0.11574381986E+03 -0.13103727742E+03 -0.14583753868E+03  0.22767518002E+03  0.00000000000E+00 0.  1.
<mgrwt>
<rscale>  0 0.43558368E+03</rscale>
<asrwt>0</asrwt>
<pdfrwt beam="1">  1        1 0.95883896E-01 0.43558368E+03</pdfrwt>
<pdfrwt beam="2">  1       -1 0.77119799E-01 0.43558368E+03</pdfrwt>
<totfact> 0.57771524E+01</totfact>
</mgrwt>
</event>
<event>
12    1  0.7781383E-008  0.5325085E+03  0.7818608E-02  0.1005626E+00
          1   -1    0    0  501    0  0.00000000000E+00  0.00000000000E+00  0.28091348854E+04  0.28091348854E+04  0.00000000000E+00 0. -1.
         -1   -1    0    0    0  501 -0.00000000000E+00 -0.00000000000E+00 -0.15742497560E+03  0.15742497560E+03  0.00000000000E+00 0.  1.
         23    2    1    2    0    0  0.44491953200E+03 -0.27500965495E+03  0.96226585312E+03  0.10990703583E+04  0.91740831659E+02 0.  0.
    5000000    2    1    2    0    0 -0.44491953200E+03  0.27500965495E+03  0.16894440567E+04  0.18674895027E+04  0.59976005344E+03 0.  0.
         23    2    4    4    0    0 -0.23104019692E+03  0.17089362984E+03  0.21392751336E+03  0.36984685843E+03  0.91855932896E+02 0.  0.
         23    2    4    4    0    0 -0.21387933508E+03  0.10411602511E+03  0.14755165433E+04  0.14976426442E+04  0.95916127946E+02 0.  0.
          3    1    3    3  502    0  0.18056990324E+03 -0.16490833588E+03  0.45556696343E+03  0.51705077833E+03  0.00000000000E+00 0. -1.
         -3    1    3    3    0  502  0.26434962876E+03 -0.11010131906E+03  0.50669888969E+03  0.58201958000E+03  0.00000000000E+00 0.  1.
         15    1    5    5    0    0 -0.15957975170E+03  0.74549560416E+02  0.16131964275E+03  0.23885250465E+03  0.17770000000E+01 0. -1.
        -15    1    5    5    0    0 -0.71460445217E+02  0.96344069423E+02  0.52607870605E+02  0.13099435378E+03  0.17770000000E+01 0.  1.
          3    1    6    6  503    0 -0.20553657780E+03  0.10168754348E+03  0.11843204803E+04  0.12063169739E+04  0.00000000000E+00 0. -1.
         -3    1    6    6    0  503 -0.83427572849E+01  0.24284816297E+01  0.29119606297E+03  0.29132567036E+03  0.00000000000E+00 0.  1.
<mgrwt>
<rscale>  0 0.53250849E+03</rscale>
<asrwt>0</asrwt>
<pdfrwt beam="1">  1        1 0.43217456E+00 0.53250849E+03</pdfrwt>
<pdfrwt beam="2">  1       -1 0.24219229E-01 0.53250849E+03</pdfrwt>
<totfact> 0.13369813E+01</totfact>
</mgrwt>
</event>
<event>
12    1  0.7781383E-008  0.5840935E+03  0.7818608E-02  0.9938968E-01
          2   -1    0    0  501    0  0.00000000000E+00  0.00000000000E+00  0.89677215893E+03  0.89677215893E+03  0.00000000000E+00 0. -1.
         -2   -1    0    0    0  501 -0.00000000000E+00 -0.00000000000E+00 -0.52552207450E+03  0.52552207450E+03  0.00000000000E+00 0.  1.
         23    2    1    2    0    0  0.42821010881E+03 -0.34350309472E+03  0.19985905220E+03  0.59129051080E+03  0.91228033197E+02 0.  0.
    5000000    2    1    2    0    0 -0.42821010881E+03  0.34350309472E+03  0.17139103223E+03  0.83100372262E+03  0.59986167382E+03 0.  0.
         23    2    4    4    0    0 -0.86710164614E+02  0.18885053880E+03  0.34033155707E+03  0.40955370338E+03  0.93410323670E+02 0.  0.
         23    2    4    4    0    0 -0.34149994420E+03  0.15465255592E+03 -0.16894052484E+03  0.42145001924E+03  0.92409917448E+02 0.  0.
          1    1    3    3  502    0  0.10804209635E+03 -0.14107824701E+03  0.63321786224E+02  0.18864202865E+03  0.00000000000E+00 0. -1.
         -1    1    3    3    0  502  0.32016801246E+03 -0.20242484771E+03  0.13653726598E+03  0.40264848215E+03  0.00000000000E+00 0.  1.
         15    1    5    5    0    0 -0.61599201900E+02  0.33693118334E+02  0.11674863108E+03  0.13624642559E+03  0.17770000000E+01 0. -1.
        -15    1    5    5    0    0 -0.25110962713E+02  0.15515742046E+03  0.22358292599E+03  0.27330727779E+03  0.17770000000E+01 0.  1.
          2    1    6    6  503    0 -0.33586444277E+03  0.13189724715E+03 -0.16789730152E+03  0.39798405946E+03  0.00000000000E+00 0. -1.
         -2    1    6    6    0  503 -0.56355014263E+01  0.22755308770E+02 -0.10432233190E+01  0.23465959781E+02  0.00000000000E+00 0.  1.
<mgrwt>
<rscale>  0 0.58409351E+03</rscale>
<asrwt>0</asrwt>
<pdfrwt beam="1">  1        2 0.13796495E+00 0.58409351E+03</pdfrwt>
<pdfrwt beam="2">  1       -2 0.80849550E-01 0.58409351E+03</pdfrwt>
<totfact> 0.41027877E+01</totfact>
</mgrwt>
</event>
<event>
12    1  0.7781383E-008  0.4350890E+03  0.7818608E-02  0.1032264E+00
         -2   -1    0    0    0  501 -0.00000000000E+00  0.00000000000E+00  0.53952791445E+03  0.53952791445E+03  0.00000000000E+00 0.  1.
          2   -1    0    0  501    0  0.00000000000E+00 -0.00000000000E+00 -0.40631040095E+03  0.40631040095E+03  0.00000000000E+00 0. -1.
         23    2    1    2    0    0 -0.19289636165E+03 -0.15794293050E+03  0.12802642484E+03  0.29603362249E+03  0.95342354465E+02 0.  0.
    5000000    2    1    2    0    0  0.19289636165E+03  0.15794293050E+03  0.51910886631E+01  0.64980469291E+03  0.60005351086E+03 0.  0.
         23    2    4    4    0    0  0.38784700460E+03  0.14228088507E+03  0.58471088884E+02  0.42713417406E+03  0.91408890094E+02 0.  0.
         23    2    4    4    0    0 -0.19495064295E+03  0.15662045433E+02 -0.53280000221E+02  0.22267051885E+03  0.92153940161E+02 0.  0.
          4    1    3    3  502    0 -0.15971503188E+03 -0.13671083053E+03  0.14259657321E+03  0.25403252800E+03  0.00000000000E+00 0.  1.
         -4    1    3    3    0  502 -0.33181329767E+02 -0.21232099972E+02 -0.14570148373E+02  0.42001094485E+02  0.00000000000E+00 0. -1.
         15    1    5    5    0    0  0.21105019916E+03  0.10610923068E+03  0.69756456763E+02  0.24631377629E+03  0.17770000000E+01 0.  1.
        -15    1    5    5    0    0  0.17679680544E+03  0.36171654383E+02 -0.11285367880E+02  0.18082039778E+03  0.17770000000E+01 0. -1.
          1    1    6    6  503    0 -0.47684260395E+01  0.12788407639E+02 -0.27535157989E+02  0.30732168526E+02  0.00000000000E+00 0. -1.
         -1    1    6    6    0  503 -0.19018221691E+03  0.28736377938E+01 -0.25744842231E+02  0.19193835032E+03  0.00000000000E+00 0.  1.
<mgrwt>
<rscale>  0 0.43508899E+03</rscale>
<asrwt>0</asrwt>
<pdfrwt beam="1">  1        2 0.62509292E-01 0.43508899E+03</pdfrwt>
<pdfrwt beam="2">  1       -2 0.83004295E-01 0.43508899E+03</pdfrwt>
<totfact> 0.10237517E+02</totfact>
</mgrwt>
</event>
<event>
12    1  0.7781383E-008  0.8765303E+03  0.7818608E-02  0.9455405E-01
         -1   -1    0    0    0  501 -0.00000000000E+00  0.00000000000E+00  0.65365721338E+03  0.65365721338E+03  0.00000000000E+00 0.  1.
          1   -1    0    0  501    0  0.00000000000E+00 -0.00000000000E+00 -0.14215119343E+04  0.14215119343E+04  0.00000000000E+00 0. -1.
         23    2    1    2    0    0  0.71826291241E+03  0.46750003435E+03 -0.19853017851E+03  0.88412373795E+03  0.88332659673E+02 0.  0.
    5000000    2    1    2    0    0 -0.71826291241E+03 -0.46750003435E+03 -0.56932454241E+03  0.11910454097E+04  0.60000070000E+03 0.  0.
         23    2    4    4    0    0 -0.27094655072E+03 -0.28600336855E+03  0.43589712116E+02  0.40608678314E+03  0.88297521312E+02 0.  0.
         23    2    4    4    0    0 -0.44731636169E+03 -0.18149666579E+03 -0.61291425452E+03  0.78495862659E+03  0.86389784876E+02 0.  0.
          1    1    3    3  502    0  0.13577500706E+03  0.51777702154E+02 -0.46058726635E+02  0.15243749303E+03  0.00000000000E+00 0. -1.
         -1    1    3    3    0  502  0.58248790536E+03  0.41572233219E+03 -0.15247145187E+03  0.73168624492E+03  0.00000000000E+00 0.  1.
         15    1    5    5    0    0 -0.18376714838E+03 -0.13440178382E+03  0.39966574589E+02  0.23115944525E+03  0.17770000000E+01 0.  1.
        -15    1    5    5    0    0 -0.87179402349E+02 -0.15160158473E+03  0.36231375271E+01  0.17492733789E+03  0.17770000000E+01 0. -1.
          1    1    6    6  503    0 -0.10002749536E+03 -0.54013696498E+01 -0.14467081752E+03  0.17596681524E+03  0.00000000000E+00 0. -1.
         -1    1    6    6    0  503 -0.34728886633E+03 -0.17609529614E+03 -0.46824343700E+03  0.60899181135E+03  0.00000000000E+00 0.  1.
<mgrwt>
<rscale>  0 0.87653029E+03</rscale>
<asrwt>0</asrwt>
<pdfrwt beam="1">  1        1 0.21869415E+00 0.87653029E+03</pdfrwt>
<pdfrwt beam="2">  1       -1 0.10056265E+00 0.87653029E+03</pdfrwt>
<totfact> 0.71236440E+00</totfact>
</mgrwt>
</event>
<event>
12    1  0.7781383E-008  0.5077586E+03  0.7818608E-02  0.1011773E+00
         -2   -1    0    0    0  501 -0.00000000000E+00  0.00000000000E+00  0.25726140627E+03  0.25726140627E+03  0.00000000000E+00 0.  1.
          2   -1    0    0  501    0  0.00000000000E+00 -0.00000000000E+00 -0.15447147228E+04  0.15447147228E+04  0.00000000000E+00 0. -1.
         23    2    1    2    0    0  0.36891289796E+03  0.21707584716E+02 -0.57132487871E+02  0.38411524661E+03  0.87820589793E+02 0.  0.
    5000000    2    1    2    0    0 -0.36891289796E+03 -0.21707584716E+02 -0.12303208287E+04  0.14178608825E+04  0.60006015957E+03 0.  0.
         23    2    4    4    0    0  0.39459096706E+02 -0.17579815992E+03 -0.68682123041E+03  0.71481439737E+03  0.82305569688E+02 0.  0.
         23    2    4    4    0    0 -0.40837199466E+03  0.15409057520E+03 -0.54349959827E+03  0.70304648512E+03  0.91492926146E+02 0.  0.
          1    1    3    3  502    0  0.91189736629E+02 -0.30804739501E+02 -0.27789885088E+01  0.96292381938E+02  0.00000000000E+00 0. -1.
         -1    1    3    3    0  502  0.27772316133E+03  0.52512324217E+02 -0.54353499362E+02  0.28782286467E+03  0.00000000000E+00 0.  1.
         15    1    5    5    0    0  0.62694905361E+02 -0.11036859426E+03 -0.39777352327E+03  0.41753899375E+03  0.17770000000E+01 0.  1.
        -15    1    5    5    0    0 -0.23235808656E+02 -0.65429565658E+02 -0.28904770714E+03  0.29727540362E+03  0.17770000000E+01 0. -1.
          3    1    6    6  503    0 -0.25844382031E+03  0.12662544914E+03 -0.40675419385E+03  0.49827320503E+03  0.00000000000E+00 0. -1.
         -3    1    6    6    0  503 -0.14992817435E+03  0.27465126055E+02 -0.13674540441E+03  0.20477328010E+03  0.00000000000E+00 0.  1.
<mgrwt>
<rscale>  0 0.50775865E+03</rscale>
<asrwt>0</asrwt>
<pdfrwt beam="1">  1        2 0.23764842E+00 0.50775865E+03</pdfrwt>
<pdfrwt beam="2">  1       -2 0.39578678E-01 0.50775865E+03</pdfrwt>
<totfact> 0.75959487E+01</totfact>
</mgrwt>
</event>
<event>
12    1  0.7781383E-008  0.1161284E+04  0.7818608E-02  0.9147437E-01
          2   -1    0    0  501    0  0.00000000000E+00  0.00000000000E+00  0.96562527764E+03  0.96562527764E+03  0.00000000000E+00 0. -1.
         -2   -1    0    0    0  501 -0.00000000000E+00 -0.00000000000E+00 -0.15946331412E+04  0.15946331412E+04  0.00000000000E+00 0.  1.
         23    2    1    2    0    0 -0.57704223282E+03  0.91735985608E+03 -0.74172120295E+03  0.13162458203E+04  0.88463961793E+02 0.  0.
    5000000    2    1    2    0    0  0.57704223282E+03 -0.91735985608E+03  0.11271333936E+03  0.12440125986E+04  0.60028010502E+03 0.  0.
         23    2    4    4    0    0  0.10417055726E+03 -0.69233326738E+03  0.43078789056E+02  0.70778902290E+03  0.94512754471E+02 0.  0.
         23    2    4    4    0    0  0.47287167556E+03 -0.22502658871E+03  0.69634550307E+02  0.53622357566E+03  0.91881256617E+02 0.  0.
          3    1    3    3  502    0 -0.97690526993E+02  0.22273416423E+03 -0.17586865682E+03  0.30013951994E+03  0.00000000000E+00 0. -1.
         -3    1    3    3    0  502 -0.47935170583E+03  0.69462569186E+03 -0.56585254613E+03  0.10161063004E+04  0.00000000000E+00 0.  1.
         15    1    5    5    0    0 -0.43133516886E+01 -0.24241396887E+03 -0.47674425853E+01  0.24250571858E+03  0.17770000000E+01 0.  1.
        -15    1    5    5    0    0  0.10848390895E+03 -0.44991929851E+03  0.47846231642E+02  0.46528330432E+03  0.17770000000E+01 0. -1.
          2    1    6    6  503    0  0.19913250859E+03 -0.14016460975E+03  0.52563802879E+02  0.24912412002E+03  0.00000000000E+00 0. -1.
         -2    1    6    6    0  503  0.27373916697E+03 -0.84861978960E+02  0.17070747428E+02  0.28709945564E+03  0.00000000000E+00 0.  1.
<mgrwt>
<rscale>  0 0.11612835E+04</rscale>
<asrwt>0</asrwt>
<pdfrwt beam="1">  1        2 0.14855774E+00 0.11612835E+04</pdfrwt>
<pdfrwt beam="2">  1       -2 0.24532817E+00 0.11612835E+04</pdfrwt>
<totfact> 0.17811019E+00</totfact>
</mgrwt>
</event>
<event>
12    1  0.7781383E-008  0.8597785E+03  0.7818608E-02  0.9477306E-01
         -1   -1    0    0    0  501 -0.00000000000E+00  0.00000000000E+00  0.24838216861E+04  0.24838216861E+04  0.00000000000E+00 0.  1.
          1   -1    0    0  501    0  0.00000000000E+00 -0.00000000000E+00 -0.32136637114E+03  0.32136637114E+03  0.00000000000E+00 0. -1.
         23    2    1    2    0    0 -0.76977205754E+03  0.87536222737E+01  0.12389825651E+04  0.14615273631E+04  0.91426419241E+02 0.  0.
    5000000    2    1    2    0    0  0.76977205754E+03 -0.87536222737E+01  0.92347274993E+03  0.13436606941E+04  0.59999707889E+03 0.  0.
         23    2    4    4    0    0  0.84482345961E+03 -0.18704476137E+02  0.75180060129E+03  0.11349135559E+04  0.93531277374E+02 0.  0.
         23    2    4    4    0    0 -0.75051402068E+02  0.99508538632E+01  0.17167214864E+03  0.20874713829E+03  0.91500320662E+02 0.  0.
          1    1    3    3  502    0 -0.21138280245E+03 -0.38142939269E+02  0.33397526015E+03  0.39708569274E+03  0.00000000000E+00 0. -1.
         -1    1    3    3    0  502 -0.55838925509E+03  0.46896561543E+02  0.90500730490E+03  0.10644416704E+04  0.00000000000E+00 0.  1.
         15    1    5    5    0    0  0.57880175408E+03  0.20828018790E+02  0.47594922619E+03  0.74965065233E+03  0.17770000000E+01 0.  1.
        -15    1    5    5    0    0  0.26602170552E+03 -0.39532494927E+02  0.27585137510E+03  0.38526290353E+03  0.17770000000E+01 0. -1.
          2    1    6    6  503    0  0.71804666054E+01  0.12040415144E+02  0.95865766887E+02  0.96885375359E+02  0.00000000000E+00 0. -1.
         -2    1    6    6    0  503 -0.82231868674E+02 -0.20895612810E+01  0.75806381749E+02  0.11186176293E+03  0.00000000000E+00 0.  1.
<mgrwt>
<rscale>  0 0.85977854E+03</rscale>
<asrwt>0</asrwt>
<pdfrwt beam="1">  1        1 0.49440982E-01 0.85977854E+03</pdfrwt>
<pdfrwt beam="2">  1       -1 0.38212640E+00 0.85977854E+03</pdfrwt>
<totfact> 0.79350626E-01</totfact>
</mgrwt>
</event>
<event>
12    1  0.7781383E-008  0.1399421E+04  0.7818608E-02  0.8954237E-01
         -2   -1    0    0    0  501 -0.00000000000E+00  0.00000000000E+00  0.96040762382E+03  0.96040762382E+03  0.00000000000E+00 0.  1.
          2   -1    0    0  501    0  0.00000000000E+00 -0.00000000000E+00 -0.28711903423E+04  0.28711903423E+04  0.00000000000E+00 0. -1.
         23    2    1    2    0    0  0.13798923828E+04  0.94516484955E+02  0.14449187369E+02  0.13862795356E+04  0.92335354539E+02 0.  0.
    5000000    2    1    2    0    0 -0.13798923828E+04 -0.94516484955E+02 -0.19252319058E+04  0.24453184305E+04  0.60002331711E+03 0.  0.
         23    2    4    4    0    0 -0.11418130718E+03 -0.46428524270E+02 -0.56110531109E+03  0.58145506899E+03  0.89765518721E+02 0.  0.
         23    2    4    4    0    0 -0.12657110757E+04 -0.48087960685E+02 -0.13641265947E+04  0.18638633615E+04  0.93852462915E+02 0.  0.
          4    1    3    3  502    0  0.12540330796E+04  0.11196981181E+03  0.18357437397E+02  0.12591557485E+04  0.00000000000E+00 0. -1.
         -4    1    3    3    0  502  0.12585930325E+03 -0.17453326855E+02 -0.39082500277E+01  0.12712378711E+03  0.00000000000E+00 0.  1.
         15    1    5    5    0    0 -0.74994024211E+02 -0.66099439787E+02 -0.28834525958E+03  0.30518746052E+03  0.17770000000E+01 0.  1.
        -15    1    5    5    0    0 -0.39187282969E+02  0.19670915517E+02 -0.27276005150E+03  0.27626760847E+03  0.17770000000E+01 0. -1.
          3    1    6    6  503    0 -0.12538135415E+04 -0.39898263162E+02 -0.13561158399E+04  0.18473468650E+04  0.00000000000E+00 0. -1.
         -3    1    6    6    0  503 -0.11897534114E+02 -0.81896975234E+01 -0.80107548690E+01  0.16516496514E+02  0.00000000000E+00 0.  1.
<mgrwt>
<rscale>  0 0.13994214E+04</rscale>
<asrwt>0</asrwt>
<pdfrwt beam="1">  1        2 0.44172158E+00 0.13994214E+04</pdfrwt>
<pdfrwt beam="2">  1       -2 0.14775502E+00 0.13994214E+04</pdfrwt>
<totfact> 0.62521401E-01</totfact>
</mgrwt>
</event>
<event>
12    1  0.7781383E-008  0.1382316E+04  0.7818608E-02  0.8966720E-01
          2   -1    0    0  501    0  0.00000000000E+00  0.00000000000E+00  0.47976708954E+04  0.47976708954E+04  0.00000000000E+00 0.  1.
         -2   -1    0    0    0  501 -0.00000000000E+00 -0.00000000000E+00 -0.42675194627E+03  0.42675194627E+03  0.00000000000E+00 0. -1.
         23    2    1    2    0    0  0.35246926066E+03 -0.13177004844E+04  0.22285271495E+04  0.26146986877E+04  0.98726010808E+02 0.  0.
    5000000    2    1    2    0    0 -0.35246926066E+03  0.13177004844E+04  0.21423917996E+04  0.26097241539E+04  0.60020695627E+03 0.  0.
         23    2    4    4    0    0 -0.15563702146E+03  0.17504641332E+03  0.77495982852E+03  0.81459251712E+03  0.90189266951E+02 0.  0.
         23    2    4    4    0    0 -0.19683223920E+03  0.11426540711E+04  0.13674319711E+04  0.17951316368E+04  0.90698078275E+02 0.  0.
          1    1    3    3  502    0  0.32652997307E+03 -0.12625335471E+04  0.20918912065E+04  0.24650804450E+04  0.00000000000E+00 0. -1.
         -1    1    3    3    0  502  0.25939287594E+02 -0.55166937305E+02  0.13663594304E+03  0.14961824268E+03  0.00000000000E+00 0.  1.
         15    1    5    5    0    0 -0.17975190332E+02  0.14120063852E+01  0.15818722572E+03  0.15922140980E+03  0.17770000000E+01 0.  1.
        -15    1    5    5    0    0 -0.13766183113E+03  0.17363440693E+03  0.61677260280E+03  0.65537110732E+03  0.17770000000E+01 0. -1.
          4    1    6    6  503    0 -0.16648028622E+03  0.89218062043E+03  0.11223429946E+04  0.14433834358E+04  0.00000000000E+00 0. -1.
         -4    1    6    6    0  503 -0.30351952979E+02  0.25047345064E+03  0.24508897642E+03  0.35174820097E+03  0.00000000000E+00 0.  1.
<mgrwt>
<rscale>  0 0.13823160E+04</rscale>
<asrwt>0</asrwt>
<pdfrwt beam="1">  1        2 0.73810317E+00 0.13823160E+04</pdfrwt>
<pdfrwt beam="2">  1       -2 0.65654149E-01 0.13823160E+04</pdfrwt>
<totfact> 0.12985806E-01</totfact>
</mgrwt>
</event>
<event>
12    1  0.7781383E-008  0.1486023E+04  0.7818608E-02  0.8893801E-01
          2   -1    0    0  501    0  0.00000000000E+00  0.00000000000E+00  0.37769908225E+04  0.37769908225E+04  0.00000000000E+00 0. -1.
         -2   -1    0    0    0  501 -0.00000000000E+00 -0.00000000000E+00 -0.87737073351E+03  0.87737073351E+03  0.00000000000E+00 0.  1.
         23    2    1    2    0    0 -0.74550376458E+02 -0.14297792740E+04  0.27415796955E+04  0.30942482375E+04  0.91029650492E+02 0.  0.
    5000000    2    1    2    0    0  0.74550376458E+02  0.14297792740E+04  0.15804039342E+03  0.15601133185E+04  0.59929147308E+03 0.  0.
         23    2    4    4    0    0 -0.49894750275E+02 -0.21168668100E+01 -0.30113830792E+02  0.10780060115E+03  0.90665095672E+02 0.  0.
         23    2    4    4    0    0  0.12444512673E+03  0.14318961408E+04  0.18815422422E+03  0.14523127174E+04  0.89426334683E+02 0.  0.
          3    1    3    3  502    0  0.76702112580E+01 -0.63388990338E+03  0.11694650916E+04  0.13302345065E+04  0.00000000000E+00 0. -1.
         -3    1    3    3    0  502 -0.82220587716E+02 -0.79588937060E+03  0.15721146039E+04  0.17640137310E+04  0.00000000000E+00 0.  1.
         15    1    5    5    0    0 -0.67737967627E+02 -0.22220943457E+02 -0.36507229611E+02  0.80113283101E+02  0.17770000000E+01 0. -1.
        -15    1    5    5    0    0  0.17843217352E+02  0.20104076647E+02  0.63933988187E+01  0.27687318049E+02  0.17770000000E+01 0.  1.
          2    1    6    6  503    0  0.76381416887E+02  0.12228580584E+04  0.14886439437E+03  0.12342514167E+04  0.00000000000E+00 0. -1.
         -2    1    6    6    0  503  0.48063709846E+02  0.20903808238E+03  0.39289829850E+02  0.21806130060E+03  0.00000000000E+00 0.  1.
<mgrwt>
<rscale>  0 0.14860229E+04</rscale>
<asrwt>0</asrwt>
<pdfrwt beam="1">  1        2 0.58107550E+00 0.14860229E+04</pdfrwt>
<pdfrwt beam="2">  1       -2 0.13498011E+00 0.14860229E+04</pdfrwt>
<totfact> 0.19396350E-01</totfact>
</mgrwt>
</event>
<event>
12    1  0.7781383E-008  0.1008970E+04  0.7818608E-02  0.9298761E-01
         -2   -1    0    0    0  501 -0.00000000000E+00  0.00000000000E+00  0.62863556335E+03  0.62863556335E+03  0.00000000000E+00 0.  1.
          2   -1    0    0  501    0  0.00000000000E+00 -0.00000000000E+00 -0.19848916340E+04  0.19848916340E+04  0.00000000000E+00 0. -1.
         23    2    1    2    0    0 -0.67020228190E+03  0.69064691474E+03 -0.10739696794E+04  0.14449214285E+04  0.90679670525E+02 0.  0.
    5000000    2    1    2    0    0  0.67020228190E+03 -0.69064691474E+03 -0.28228639128E+03  0.11686057689E+04  0.59982462182E+03 0.  0.
         23    2    4    4    0    0  0.26437490149E+03 -0.57127370274E+03  0.26940220828E+02  0.63685407781E+03  0.92787978434E+02 0.  0.
         23    2    4    4    0    0  0.40582738041E+03 -0.11937321200E+03 -0.30922661211E+03  0.53175169110E+03  0.90514843693E+02 0.  0.
          2    1    3    3  502    0 -0.38527643224E+03  0.40852332010E+03 -0.56005312391E+03  0.79308809971E+03  0.00000000000E+00 0. -1.
         -2    1    3    3    0  502 -0.28492584966E+03  0.28212359464E+03 -0.51391655550E+03  0.65183332875E+03  0.00000000000E+00 0.  1.
         15    1    5    5    0    0  0.15326102100E+03 -0.39212044078E+03 -0.17602947842E+02  0.42137916671E+03  0.17770000000E+01 0. -1.
        -15    1    5    5    0    0  0.11111388049E+03 -0.17915326197E+03  0.44543168670E+02  0.21547491110E+03  0.17770000000E+01 0.  1.
          4    1    6    6  503    0  0.22560691881E+03 -0.77793369859E+02 -0.22693094869E+03  0.32931435693E+03  0.00000000000E+00 0. -1.
         -4    1    6    6    0  503  0.18022046159E+03 -0.41579842137E+02 -0.82295663420E+02  0.20243733417E+03  0.00000000000E+00 0.  1.
<mgrwt>
<rscale>  0 0.10089703E+04</rscale>
<asrwt>0</asrwt>
<pdfrwt beam="1">  1        2 0.30536794E+00 0.10089703E+04</pdfrwt>
<pdfrwt beam="2">  1       -2 0.96713165E-01 0.10089703E+04</pdfrwt>
<totfact> 0.60851848E+00</totfact>
</mgrwt>
</event>
<event>
12    1  0.7781383E-008  0.1202482E+04  0.7818608E-02  0.9110687E-01
         -2   -1    0    0    0  501 -0.00000000000E+00  0.00000000000E+00  0.10916352031E+04  0.10916352031E+04  0.00000000000E+00 0.  1.
          2   -1    0    0  501    0  0.00000000000E+00 -0.00000000000E+00 -0.14505073295E+04  0.14505073295E+04  0.00000000000E+00 0. -1.
         23    2    1    2    0    0  0.54551056684E+03  0.10199341123E+04 -0.42950244426E+03  0.12371916818E+04  0.91233414031E+02 0.  0.
    5000000    2    1    2    0    0 -0.54551056684E+03 -0.10199341123E+04  0.70630317868E+02  0.13049508508E+04  0.60005058884E+03 0.  0.
         23    2    4    4    0    0  0.58330154571E+02 -0.15173340363E+03  0.15136068535E+03  0.24044553079E+03  0.92079115428E+02 0.  0.
         23    2    4    4    0    0 -0.60384072141E+03 -0.86820070870E+03 -0.80730367479E+02  0.10645053200E+04  0.90874070411E+02 0.  0.
          3    1    3    3  502    0  0.25612336994E+03  0.38510451789E+03 -0.16454669707E+03  0.49089742905E+03  0.00000000000E+00 0. -1.
         -3    1    3    3    0  502  0.28938719689E+03  0.63482959444E+03 -0.26495574719E+03  0.74629425274E+03  0.00000000000E+00 0.  1.
         15    1    5    5    0    0 -0.19829691992E+02 -0.10237599899E+02  0.33880097838E+02  0.40608421475E+02  0.17770000000E+01 0. -1.
        -15    1    5    5    0    0  0.78159846563E+02 -0.14149580373E+03  0.11748058751E+03  0.19983710932E+03  0.17770000000E+01 0.  1.
          2    1    6    6  503    0 -0.40263413310E+03 -0.64390145483E+03 -0.75156895407E+02  0.76313294228E+03  0.00000000000E+00 0.  1.
         -2    1    6    6    0  503 -0.20120658830E+03 -0.22429925387E+03 -0.55734720717E+01  0.30137237772E+03  0.00000000000E+00 0. -1.
<mgrwt>
<rscale>  0 0.12024821E+04</rscale>
<asrwt>0</asrwt>
<pdfrwt beam="1">  1        2 0.22315497E+00 0.12024821E+04</pdfrwt>
<pdfrwt beam="2">  1       -2 0.16794388E+00 0.12024821E+04</pdfrwt>
<totfact> 0.28980004E+00</totfact>
</mgrwt>
</event>
<event>
12    1  0.7781383E-008  0.5244500E+03  0.7818608E-02  0.1007587E+00
          4   -1    0    0  501    0  0.00000000000E+00  0.00000000000E+00  0.54698642456E+03  0.54698642456E+03  0.00000000000E+00 0. -1.
         -4   -1    0    0    0  501 -0.00000000000E+00 -0.00000000000E+00 -0.63845250682E+03  0.63845250682E+03  0.00000000000E+00 0.  1.
         23    2    1    2    0    0  0.29916493511E+03  0.30207494078E+03 -0.11461941416E+03  0.44975564788E+03  0.91616616694E+02 0.  0.
    5000000    2    1    2    0    0 -0.29916493511E+03 -0.30207494078E+03  0.23153331900E+02  0.73568328349E+03  0.59995407206E+03 0.  0.
         23    2    4    4    0    0 -0.11637162961E+03  0.11034803893E+03 -0.15693517441E+03  0.24230890937E+03  0.91465363503E+02 0.  0.
         23    2    4    4    0    0 -0.18279330550E+03 -0.41242297971E+03  0.18008850631E+03  0.49337437412E+03  0.86488705671E+02 0.  0.
          3    1    3    3  502    0  0.87337716231E+02  0.89044711265E+02  0.86532014251E+01  0.12502685782E+03  0.00000000000E+00 0. -1.
         -3    1    3    3    0  502  0.21182721888E+03  0.21303022952E+03 -0.12327261558E+03  0.32472879007E+03  0.00000000000E+00 0.  1.
         15    1    5    5    0    0 -0.59137403419E+00  0.33128027074E+02 -0.86252685223E+00  0.33192131336E+02  0.17770000000E+01 0. -1.
        -15    1    5    5    0    0 -0.11578025557E+03  0.77220011856E+02 -0.15607264755E+03  0.20911677803E+03  0.17770000000E+01 0.  1.
          3    1    6    6  503    0 -0.11268090426E+03 -0.27270971046E+03  0.16031445750E+03  0.33580991297E+03  0.00000000000E+00 0. -1.
         -3    1    6    6    0  503 -0.70112401246E+02 -0.13971326925E+03  0.19774048802E+02  0.15756446115E+03  0.00000000000E+00 0.  1.
<mgrwt>
<rscale>  0 0.52444997E+03</rscale>
<asrwt>0</asrwt>
<pdfrwt beam="1">  1        4 0.84151758E-01 0.52444997E+03</pdfrwt>
<pdfrwt beam="2">  1       -4 0.98223462E-01 0.52444997E+03</pdfrwt>
<totfact> 0.20775813E+00</totfact>
</mgrwt>
</event>
<event>
12    1  0.7781383E-008  0.1247087E+04  0.7818608E-02  0.9072611E-01
          2   -1    0    0  501    0  0.00000000000E+00  0.00000000000E+00  0.29894799077E+04  0.29894799077E+04  0.00000000000E+00 0. -1.
         -2   -1    0    0    0  501 -0.00000000000E+00 -0.00000000000E+00 -0.59075121370E+03  0.59075121370E+03  0.00000000000E+00 0.  1.
         23    2    1    2    0    0 -0.45240556275E+03  0.11569673194E+04  0.14199333855E+04  0.18887542092E+04  0.89092491596E+02 0.  0.
    5000000    2    1    2    0    0  0.45240556275E+03 -0.11569673194E+04  0.97879530849E+03  0.16914769122E+04  0.59984141002E+03 0.  0.
         23    2    4    4    0    0  0.23644231706E+03 -0.57040642386E+03  0.83551745061E+03  0.10434031272E+04  0.96603405407E+02 0.  0.
         23    2    4    4    0    0  0.21596324568E+03 -0.58656089555E+03  0.14327785787E+03  0.64807378497E+03  0.93687131103E+02 0.  0.
          3    1    3    3  502    0 -0.22232260082E+03  0.66218618968E+03  0.83968102641E+03  0.10922372063E+04  0.00000000000E+00 0. -1.
         -3    1    3    3    0  502 -0.23008296192E+03  0.49478112973E+03  0.58025235909E+03  0.79651700291E+03  0.00000000000E+00 0.  1.
         15    1    5    5    0    0  0.19322412697E+03 -0.50595524301E+03  0.77238833687E+03  0.94335209324E+03  0.17770000000E+01 0. -1.
        -15    1    5    5    0    0  0.43218190097E+02 -0.64451180855E+02  0.63129113744E+02  0.10005103398E+03  0.17770000000E+01 0.  1.
          4    1    6    6  503    0  0.45003236668E+02 -0.24189254160E+03  0.36032089508E+02  0.24866765867E+03  0.00000000000E+00 0. -1.
         -4    1    6    6    0  503  0.17096000901E+03 -0.34466835395E+03  0.10724576836E+03  0.39940612631E+03  0.00000000000E+00 0.  1.
<mgrwt>
<rscale>  0 0.12470869E+04</rscale>
<asrwt>0</asrwt>
<pdfrwt beam="1">  1        2 0.45991998E+00 0.12470869E+04</pdfrwt>
<pdfrwt beam="2">  1       -2 0.90884804E-01 0.12470869E+04</pdfrwt>
<totfact> 0.18004719E+00</totfact>
</mgrwt>
</event>
<event>
12    1  0.7781383E-008  0.7117496E+03  0.7818608E-02  0.9697347E-01
         -1   -1    0    0    0  501 -0.00000000000E+00  0.00000000000E+00  0.33073805306E+03  0.33073805306E+03  0.00000000000E+00 0.  1.
          1   -1    0    0  501    0  0.00000000000E+00 -0.00000000000E+00 -0.20508754470E+04  0.20508754470E+04  0.00000000000E+00 0. -1.
         23    2    1    2    0    0  0.58580154734E+03  0.13851174286E+03 -0.20133678887E+03  0.64122146150E+03  0.90991781854E+02 0.  0.
    5000000    2    1    2    0    0 -0.58580154734E+03 -0.13851174286E+03 -0.15188006051E+04  0.17403920385E+04  0.59988350048E+03 0.  0.
         23    2    4    4    0    0  0.96323475425E+02  0.23289546887E+02 -0.24271832492E+03  0.28154891166E+03  0.10264983923E+03 0.  0.
         23    2    4    4    0    0 -0.68212502276E+03 -0.16180128974E+03 -0.12760822801E+04  0.14588431269E+04  0.91449872295E+02 0.  0.
          2    1    3    3  502    0  0.43916085968E+03  0.64182757227E+02 -0.15908435497E+03  0.47147589440E+03  0.00000000000E+00 0. -1.
         -2    1    3    3    0  502  0.14664068766E+03  0.74328985629E+02 -0.42252433896E+02  0.16974556711E+03  0.00000000000E+00 0.  1.
         15    1    5    5    0    0  0.56116526422E+02  0.41673290766E+02 -0.55776259338E+02  0.89442028910E+02  0.17770000000E+01 0.  1.
        -15    1    5    5    0    0  0.40206949003E+02 -0.18383743878E+02 -0.18694206558E+03  0.19210688275E+03  0.17770000000E+01 0. -1.
          1    1    6    6  503    0 -0.48250114207E+03 -0.11048002420E+03 -0.98231463154E+03  0.10999796467E+04  0.00000000000E+00 0. -1.
         -1    1    6    6    0  503 -0.19962388070E+03 -0.51321265540E+02 -0.29376764860E+03  0.35886348018E+03  0.00000000000E+00 0.  1.
<mgrwt>
<rscale>  0 0.71174959E+03</rscale>
<asrwt>0</asrwt>
<pdfrwt beam="1">  1        1 0.31551930E+00 0.71174959E+03</pdfrwt>
<pdfrwt beam="2">  1       -1 0.50882778E-01 0.71174959E+03</pdfrwt>
<totfact> 0.11241983E+01</totfact>
</mgrwt>
</event>
<event>
12    1  0.7781383E-008  0.4743545E+03  0.7818608E-02  0.1020698E+00
          1   -1    0    0  501    0  0.00000000000E+00  0.00000000000E+00  0.69350147701E+03  0.69350147701E+03  0.00000000000E+00 0. -1.
         -1   -1    0    0    0  501 -0.00000000000E+00 -0.00000000000E+00 -0.80298295653E+03  0.80298295653E+03  0.00000000000E+00 0.  1.
         23    2    1    2    0    0 -0.34836221338E+03 -0.68705866180E+02 -0.55788235191E+03  0.66750800991E+03  0.90870770636E+02 0.  0.
    5000000    2    1    2    0    0  0.34836221338E+03  0.68705866180E+02  0.44840087239E+03  0.82897642363E+03  0.60005153180E+03 0.  0.
         23    2    4    4    0    0  0.44462235538E+03 -0.28209404490E+02  0.13271102117E+03  0.47380567538E+03  0.91623105585E+02 0.  0.
         23    2    4    4    0    0 -0.96260141993E+02  0.96915270669E+02  0.31568985122E+03  0.35517074826E+03  0.88473688909E+02 0.  0.
          3    1    3    3  502    0 -0.17536625364E+03 -0.80344073497E+02 -0.30569378447E+03  0.36146532742E+03  0.00000000000E+00 0. -1.
         -3    1    3    3    0  502 -0.17299595975E+03  0.11638207318E+02 -0.25218856744E+03  0.30604268249E+03  0.00000000000E+00 0.  1.
         15    1    5    5    0    0  0.75150694265E+02 -0.26777809942E+01 -0.12019455922E+02  0.76173633294E+02  0.17770000000E+01 0.  1.
        -15    1    5    5    0    0  0.36947166111E+03 -0.25531623495E+02  0.14473047709E+03  0.39763204208E+03  0.17770000000E+01 0. -1.
          1    1    6    6  503    0 -0.83313277701E+02  0.79570581195E+02  0.31279187778E+03  0.33333367432E+03  0.00000000000E+00 0. -1.
         -1    1    6    6    0  503 -0.12946864293E+02  0.17344689475E+02  0.28979734411E+01  0.21837073935E+02  0.00000000000E+00 0.  1.
<mgrwt>
<rscale>  0 0.47435452E+03</rscale>
<asrwt>0</asrwt>
<pdfrwt beam="1">  1        1 0.10669254E+00 0.47435452E+03</pdfrwt>
<pdfrwt beam="2">  1       -1 0.12353584E+00 0.47435452E+03</pdfrwt>
<totfact> 0.17048618E+01</totfact>
</mgrwt>
</event>
<event>
12    1  0.7781383E-008  0.5135541E+03  0.7818608E-02  0.1010300E+00
         -2   -1    0    0    0  501 -0.00000000000E+00  0.00000000000E+00  0.22892836940E+03  0.22892836940E+03  0.00000000000E+00 0.  1.
          2   -1    0    0  501    0  0.00000000000E+00 -0.00000000000E+00 -0.13657924248E+04  0.13657924248E+04  0.00000000000E+00 0. -1.
         23    2    1    2    0    0  0.23704586483E+03 -0.29971877394E+03 -0.28655326629E+03  0.48608394134E+03  0.90237121660E+02 0.  0.
    5000000    2    1    2    0    0 -0.23704586483E+03  0.29971877394E+03 -0.85031078912E+03  0.11086368529E+04  0.60002095626E+03 0.  0.
         23    2    4    4    0    0  0.15622520531E+03  0.52888648562E+02 -0.45496250302E+03  0.49309204835E+03  0.94579940097E+02 0.  0.
         23    2    4    4    0    0 -0.39327107014E+03  0.24683012538E+03 -0.39534828610E+03  0.61554480452E+03  0.83713162904E+02 0.  0.
          3    1    3    3  502    0  0.49415535507E+02 -0.24965820748E+02 -0.69411136415E+02  0.88786785128E+02  0.00000000000E+00 0. -1.
         -3    1    3    3    0  502  0.18763032932E+03 -0.27475295319E+03 -0.21714212987E+03  0.39729715621E+03  0.00000000000E+00 0.  1.
         15    1    5    5    0    0  0.10034790254E+03  0.53693892080E+02 -0.39514761343E+03  0.41121470027E+03  0.17770000000E+01 0. -1.
        -15    1    5    5    0    0  0.55877302775E+02 -0.80524351813E+00 -0.59814889588E+02  0.81877348076E+02  0.17770000000E+01 0.  1.
          1    1    6    6  503    0 -0.19370451773E+03  0.16174065330E+03 -0.24397237261E+03  0.35100427022E+03  0.00000000000E+00 0. -1.
         -1    1    6    6    0  503 -0.19956655241E+03  0.85089472079E+02 -0.15137591349E+03  0.26454053429E+03  0.00000000000E+00 0.  1.
<mgrwt>
<rscale>  0 0.51355414E+03</rscale>
<asrwt>0</asrwt>
<pdfrwt beam="1">  1        2 0.21012191E+00 0.51355414E+03</pdfrwt>
<pdfrwt beam="2">  1       -2 0.35219750E-01 0.51355414E+03</pdfrwt>
<totfact> 0.11918812E+02</totfact>
</mgrwt>
</event>
<event>
12    1  0.7781383E-008  0.6118244E+03  0.7818608E-02  0.9881173E-01
          1   -1    0    0  501    0  0.00000000000E+00  0.00000000000E+00  0.12803456739E+04  0.12803456739E+04  0.00000000000E+00 0. -1.
         -1   -1    0    0    0  501 -0.00000000000E+00 -0.00000000000E+00 -0.36490737126E+03  0.36490737126E+03  0.00000000000E+00 0.  1.
         23    2    1    2    0    0 -0.30465803289E+03 -0.40016123569E+03  0.11224904147E+03  0.52364298627E+03  0.93040841548E+02 0.  0.
    5000000    2    1    2    0    0  0.30465803289E+03  0.40016123569E+03  0.80318926121E+03  0.11216100589E+04  0.59995883476E+03 0.  0.
         23    2    4    4    0    0  0.29575630036E+03 -0.33697829712E+01  0.13799599609E+03  0.33856909218E+03  0.90016612956E+02 0.  0.
         23    2    4    4    0    0  0.89017325384E+01  0.40353101866E+03  0.66519326513E+03  0.78304096675E+03  0.88059932804E+02 0.  0.
          2    1    3    3  502    0 -0.11913182325E+03 -0.23117428865E+03  0.46096655833E+02  0.26411899727E+03  0.00000000000E+00 0. -1.
         -2    1    3    3    0  502 -0.18552620964E+03 -0.16898694705E+03  0.66152385639E+02  0.25952398899E+03  0.00000000000E+00 0.  1.
         15    1    5    5    0    0  0.10017083225E+03  0.23014239556E+02  0.98839587792E+01  0.10327004031E+03  0.17770000000E+01 0.  1.
        -15    1    5    5    0    0  0.19558546811E+03 -0.26384022527E+02  0.12811203731E+03  0.23529905187E+03  0.17770000000E+01 0. -1.
          1    1    6    6  503    0  0.46571620059E+02  0.18865927597E+03  0.29148904073E+03  0.35032427702E+03  0.00000000000E+00 0. -1.
         -1    1    6    6    0  503 -0.37669887521E+02  0.21487174269E+03  0.37370422440E+03  0.43271668973E+03  0.00000000000E+00 0.  1.
<mgrwt>
<rscale>  0 0.61182442E+03</rscale>
<asrwt>0</asrwt>
<pdfrwt beam="1">  1        1 0.19697625E+00 0.61182442E+03</pdfrwt>
<pdfrwt beam="2">  1       -1 0.56139596E-01 0.61182442E+03</pdfrwt>
<totfact> 0.31436398E+01</totfact>
</mgrwt>
</event>
<event>
12    1  0.7781383E-008  0.5737624E+03  0.7818608E-02  0.9961387E-01
         -2   -1    0    0    0  501 -0.00000000000E+00  0.00000000000E+00  0.27113864747E+03  0.27113864747E+03  0.00000000000E+00 0.  1.
          2   -1    0    0  501    0  0.00000000000E+00 -0.00000000000E+00 -0.15272039096E+04  0.15272039096E+04  0.00000000000E+00 0. -1.
         23    2    1    2    0    0  0.47408182845E+03  0.13091958285E+03 -0.38190551221E+03  0.62959264064E+03  0.92959967992E+02 0.  0.
    5000000    2    1    2    0    0 -0.47408182845E+03 -0.13091958285E+03 -0.87415974988E+03  0.11687499164E+04  0.59993964825E+03 0.  0.
         23    2    4    4    0    0 -0.64154733942E+02 -0.21903708240E+03 -0.62845078247E+03  0.67448287376E+03  0.88790132685E+02 0.  0.
         23    2    4    4    0    0 -0.40992709450E+03  0.88117499549E+02 -0.24570896741E+03  0.49426704264E+03  0.90122673273E+02 0.  0.
          2    1    3    3  502    0  0.50848377906E+02 -0.10994661770E+02 -0.58957266432E+02  0.78628235312E+02  0.00000000000E+00 0. -1.
         -2    1    3    3    0  502  0.42323345054E+03  0.14191424462E+03 -0.32294824578E+03  0.55096440533E+03  0.00000000000E+00 0.  1.
         15    1    5    5    0    0 -0.18461937878E+02 -0.29572476466E+02 -0.20982309780E+03  0.21270699239E+03  0.17770000000E+01 0. -1.
        -15    1    5    5    0    0 -0.45692796064E+02 -0.18946460593E+03 -0.41862768467E+03  0.46177588137E+03  0.17770000000E+01 0.  1.
          4    1    6    6  503    0 -0.23434491550E+03  0.49262008356E+02 -0.19097002100E+03  0.30629044028E+03  0.00000000000E+00 0. -1.
         -4    1    6    6    0  503 -0.17558217901E+03  0.38855491192E+02 -0.54738946418E+02  0.18797660236E+03  0.00000000000E+00 0.  1.
<mgrwt>
<rscale>  0 0.57376238E+03</rscale>
<asrwt>0</asrwt>
<pdfrwt beam="1">  1        2 0.23495445E+00 0.57376238E+03</pdfrwt>
<pdfrwt beam="2">  1       -2 0.41713638E-01 0.57376238E+03</pdfrwt>
<totfact> 0.69478107E+01</totfact>
</mgrwt>
</event>
<event>
12    1  0.7781383E-008  0.4144008E+03  0.7818608E-02  0.1038904E+00
         -2   -1    0    0    0  501 -0.00000000000E+00  0.00000000000E+00  0.73057775797E+03  0.73057775797E+03  0.00000000000E+00 0.  1.
          2   -1    0    0  501    0  0.00000000000E+00 -0.00000000000E+00 -0.34410407598E+03  0.34410407598E+03  0.00000000000E+00 0. -1.
         23    2    1    2    0    0 -0.16772701115E+03 -0.26072581486E+03  0.79253081838E+02  0.33273823759E+03  0.91232576277E+02 0.  0.
    5000000    2    1    2    0    0  0.16772701115E+03  0.26072581486E+03  0.30722060015E+03  0.74194359635E+03  0.59998791838E+03 0.  0.
         23    2    4    4    0    0  0.20222859496E+03  0.33977710605E+03  0.41332930266E+03  0.57963722768E+03  0.93772687201E+02 0.  0.
         23    2    4    4    0    0 -0.34501583813E+02 -0.79051291189E+02 -0.10610870251E+03  0.16230636866E+03  0.87434745013E+02 0.  0.
          3    1    3    3  502    0 -0.64369820033E+01 -0.81389189774E+02  0.13629903227E+02  0.82773239706E+02  0.00000000000E+00 0. -1.
         -3    1    3    3    0  502 -0.16129002915E+03 -0.17933662508E+03  0.65623178610E+02  0.24996499789E+03  0.00000000000E+00 0.  1.
         15    1    5    5    0    0  0.16444407850E+03  0.22580910943E+03  0.23719782040E+03  0.36646633213E+03  0.17770000000E+01 0.  1.
        -15    1    5    5    0    0  0.37784516461E+02  0.11396799662E+03  0.17613148227E+03  0.21317089556E+03  0.17770000000E+01 0. -1.
          3    1    6    6  503    0  0.16737677628E+02 -0.35645780159E+02 -0.33114149345E+01  0.39518817852E+02  0.00000000000E+00 0. -1.
         -3    1    6    6    0  503 -0.51239261442E+02 -0.43405511030E+02 -0.10279728758E+03  0.12278755081E+03  0.00000000000E+00 0.  1.
<mgrwt>
<rscale>  0 0.41440080E+03</rscale>
<asrwt>0</asrwt>
<pdfrwt beam="1">  1        2 0.52939089E-01 0.41440080E+03</pdfrwt>
<pdfrwt beam="2">  1       -2 0.11239658E+00 0.41440080E+03</pdfrwt>
<totfact> 0.60830849E+01</totfact>
</mgrwt>
</event>
<event>
12    1  0.7781383E-008  0.5250882E+03  0.7818608E-02  0.1007430E+00
          1   -1    0    0  501    0  0.00000000000E+00  0.00000000000E+00  0.10433872160E+04  0.10433872160E+04  0.00000000000E+00 0. -1.
         -1   -1    0    0    0  501 -0.00000000000E+00 -0.00000000000E+00 -0.88504728223E+03  0.88504728223E+03  0.00000000000E+00 0.  1.
         23    2    1    2    0    0 -0.28289409600E+03 -0.42237146188E+03  0.77373356943E+03  0.92981590464E+03  0.86413301646E+02 0.  0.
    5000000    2    1    2    0    0  0.28289409600E+03  0.42237146188E+03 -0.61539363566E+03  0.99861859358E+03  0.60008586659E+03 0.  0.
         23    2    4    4    0    0  0.88124206332E+02  0.11215931993E+03 -0.59794613393E+03  0.62112831107E+03  0.88967471278E+02 0.  0.
         23    2    4    4    0    0  0.19476988967E+03  0.31021214195E+03 -0.17447501725E+02  0.37749028251E+03  0.89596959401E+02 0.  0.
          1    1    3    3  502    0 -0.20257272846E+03 -0.30827020647E+03  0.62604328523E+03  0.72663362536E+03  0.00000000000E+00 0. -1.
         -1    1    3    3    0  502 -0.80321367540E+02 -0.11410125541E+03  0.14769028419E+03  0.20318227928E+03  0.00000000000E+00 0.  1.
         15    1    5    5    0    0  0.66769449108E+02  0.14854975768E+02 -0.23615198748E+03  0.24586530572E+03  0.17770000000E+01 0. -1.
        -15    1    5    5    0    0  0.21354757224E+02  0.97304344158E+02 -0.36179414646E+03  0.37526300535E+03  0.17770000000E+01 0.  1.
          4    1    6    6  503    0  0.61475481483E+02  0.42776804176E+02 -0.23878464942E+02  0.78608338534E+02  0.00000000000E+00 0. -1.
         -4    1    6    6    0  503  0.13329440819E+03  0.26743533777E+03  0.64309632166E+01  0.29888194397E+03  0.00000000000E+00 0.  1.
<mgrwt>
<rscale>  0 0.52508815E+03</rscale>
<asrwt>0</asrwt>
<pdfrwt beam="1">  1        1 0.16052111E+00 0.52508815E+03</pdfrwt>
<pdfrwt beam="2">  1       -1 0.13616112E+00 0.52508815E+03</pdfrwt>
<totfact> 0.68016040E+00</totfact>
</mgrwt>
</event>
<event>
12    1  0.7781383E-008  0.8034281E+03  0.7818608E-02  0.9555068E-01
          4   -1    0    0  501    0  0.00000000000E+00  0.00000000000E+00  0.39194166902E+03  0.39194166902E+03  0.00000000000E+00 0. -1.
         -4   -1    0    0    0  501 -0.00000000000E+00 -0.00000000000E+00 -0.20739113044E+04  0.20739113044E+04  0.00000000000E+00 0.  1.
         23    2    1    2    0    0 -0.45216985510E+03  0.65006691406E+03 -0.89602225312E+03  0.11990722881E+04  0.88735017447E+02 0.  0.
    5000000    2    1    2    0    0  0.45216985510E+03 -0.65006691406E+03 -0.78594738225E+03  0.12667806853E+04  0.59997953838E+03 0.  0.
         23    2    4    4    0    0  0.15525685120E+03 -0.28607606623E+03 -0.70427853926E+03  0.78186262955E+03  0.96730063045E+02 0.  0.
         23    2    4    4    0    0  0.29691300390E+03 -0.36399084782E+03 -0.81668842982E+02  0.48491805579E+03  0.88481928871E+02 0.  0.
          3    1    3    3  502    0 -0.12196382650E+03  0.13327500939E+03 -0.24842887765E+03  0.30717146734E+03  0.00000000000E+00 0. -1.
         -3    1    3    3    0  502 -0.33020602860E+03  0.51679190467E+03 -0.64759337547E+03  0.89190082073E+03  0.00000000000E+00 0.  1.
         15    1    5    5    0    0  0.16702100786E+03 -0.24783142061E+03 -0.63560261359E+03  0.70236049878E+03  0.17770000000E+01 0. -1.
        -15    1    5    5    0    0 -0.11764156663E+02 -0.38244645621E+02 -0.68675925671E+02  0.79502130766E+02  0.17770000000E+01 0.  1.
          2    1    6    6  503    0  0.11033350481E+03 -0.89324082407E+02  0.39452940426E+01  0.14201351811E+03  0.00000000000E+00 0.  1.
         -2    1    6    6    0  503  0.18657949909E+03 -0.27466676541E+03 -0.85614137024E+02  0.34290453768E+03  0.00000000000E+00 0. -1.
<mgrwt>
<rscale>  0 0.80342805E+03</rscale>
<asrwt>0</asrwt>
<pdfrwt beam="1">  1        4 0.60298718E-01 0.80342805E+03</pdfrwt>
<pdfrwt beam="2">  1       -4 0.31906328E+00 0.80342805E+03</pdfrwt>
<totfact> 0.12227568E-01</totfact>
</mgrwt>
</event>
<event>
12    1  0.7781383E-008  0.3965230E+03  0.7818608E-02  0.1044990E+00
          1   -1    0    0  501    0  0.00000000000E+00  0.00000000000E+00  0.11059471820E+04  0.11059471820E+04  0.00000000000E+00 0. -1.
         -1   -1    0    0    0  501 -0.00000000000E+00 -0.00000000000E+00 -0.25300752658E+03  0.25300752658E+03  0.00000000000E+00 0.  1.
         23    2    1    2    0    0  0.29487427878E+03  0.18670622178E+03  0.25340668567E+03  0.44160157409E+03  0.94799516670E+02 0.  0.
    5000000    2    1    2    0    0 -0.29487427878E+03 -0.18670622178E+03  0.59953296974E+03  0.91735313449E+03  0.60023906738E+03 0.  0.
         23    2    4    4    0    0 -0.18734058979E+03 -0.20787796629E+03  0.68850498156E+03  0.74881368956E+03  0.91504571410E+02 0.  0.
         23    2    4    4    0    0 -0.10753368899E+03  0.21171744513E+02 -0.88972011821E+02  0.16853944493E+03  0.92074907410E+02 0.  0.
          1    1    3    3  502    0  0.15607749970E+03  0.15125752035E+03  0.13604114712E+03  0.25641025153E+03  0.00000000000E+00 0.  1.
         -1    1    3    3    0  502  0.13879677908E+03  0.35448701422E+02  0.11736553855E+03  0.18519132256E+03  0.00000000000E+00 0. -1.
         15    1    5    5    0    0 -0.12727165850E+03 -0.73796112236E+02  0.32605700320E+03  0.35771534535E+03  0.17770000000E+01 0. -1.
        -15    1    5    5    0    0 -0.60068931285E+02 -0.13408185405E+03  0.36244797837E+03  0.39109834421E+03  0.17770000000E+01 0.  1.
          4    1    6    6  503    0 -0.78877126216E+02 -0.26119861117E+02 -0.73968259147E+02  0.11124365845E+03  0.00000000000E+00 0.  1.
         -4    1    6    6    0  503 -0.28656562777E+02  0.47291605630E+02 -0.15003752673E+02  0.57295786473E+02  0.00000000000E+00 0. -1.
<mgrwt>
<rscale>  0 0.39652304E+03</rscale>
<asrwt>0</asrwt>
<pdfrwt beam="1">  1        1 0.17014572E+00 0.39652304E+03</pdfrwt>
<pdfrwt beam="2">  1       -1 0.38924236E-01 0.39652304E+03</pdfrwt>
<totfact> 0.85574169E+01</totfact>
</mgrwt>
</event>
<event>
12    1  0.7781383E-008  0.5308968E+03  0.7818608E-02  0.1006015E+00
          1   -1    0    0  501    0  0.00000000000E+00  0.00000000000E+00  0.38233338108E+03  0.38233338108E+03  0.00000000000E+00 0. -1.
         -1   -1    0    0    0  501 -0.00000000000E+00 -0.00000000000E+00 -0.17579282078E+04  0.17579282078E+04  0.00000000000E+00 0.  1.
         23    2    1    2    0    0  0.13232968503E+03  0.46142764774E+03  0.78766642840E+02  0.49536108698E+03  0.93551070714E+02 0.  0.
    5000000    2    1    2    0    0 -0.13232968503E+03 -0.46142764774E+03 -0.14543614695E+04  0.16449005019E+04  0.60008645821E+03 0.  0.
         23    2    4    4    0    0  0.57054550663E+02 -0.32414764988E+03 -0.13116650572E+04  0.13552493295E+04  0.88930320936E+02 0.  0.
         23    2    4    4    0    0 -0.18938423570E+03 -0.13727999786E+03 -0.14269641230E+03  0.28965117239E+03  0.93932683576E+02 0.  0.
          3    1    3    3  502    0  0.14255564755E+03  0.36530796271E+03  0.69585457684E+02  0.39826392780E+03  0.00000000000E+00 0. -1.
         -3    1    3    3    0  502 -0.10225962518E+02  0.96119685031E+02  0.91811851568E+01  0.97097159179E+02  0.00000000000E+00 0.  1.
         15    1    5    5    0    0 -0.51221476576E+01 -0.44083403386E+02 -0.31498984509E+03  0.31810586773E+03  0.17770000000E+01 0. -1.
        -15    1    5    5    0    0  0.62176698320E+02 -0.28006424650E+03 -0.99667521216E+03  0.10371434617E+04  0.17770000000E+01 0.  1.
          2    1    6    6  503    0 -0.64939613203E+02 -0.13821608523E+02 -0.47079068380E+01  0.66560909038E+02  0.00000000000E+00 0. -1.
         -2    1    6    6    0  503 -0.12444462249E+03 -0.12345838934E+03 -0.13798850546E+03  0.22309026336E+03  0.00000000000E+00 0.  1.
<mgrwt>
<rscale>  0 0.53089676E+03</rscale>
<asrwt>0</asrwt>
<pdfrwt beam="1">  1        1 0.58820519E-01 0.53089676E+03</pdfrwt>
<pdfrwt beam="2">  1       -1 0.27045050E+00 0.53089676E+03</pdfrwt>
<totfact> 0.35531324E+00</totfact>
</mgrwt>
</event>
<event>
12    1  0.7781383E-008  0.5018924E+03  0.7818608E-02  0.1013286E+00
         -2   -1    0    0    0  501 -0.00000000000E+00  0.00000000000E+00  0.24043106736E+03  0.24043106736E+03  0.00000000000E+00 0.  1.
          2   -1    0    0  501    0  0.00000000000E+00 -0.00000000000E+00 -0.25784817562E+04  0.25784817562E+04  0.00000000000E+00 0. -1.
         23    2    1    2    0    0 -0.26326814945E+03 -0.26101508079E+03 -0.20015260519E+04  0.20374302683E+04  0.87043500210E+02 0.  0.
    5000000    2    1    2    0    0  0.26326814945E+03  0.26101508079E+03 -0.33652463693E+03  0.78148255523E+03  0.60002263453E+03 0.  0.
         23    2    4    4    0    0  0.20196449770E+03 -0.11925364907E+03  0.11374055425E+02  0.25452017042E+03  0.98183791263E+02 0.  0.
         23    2    4    4    0    0  0.61303651749E+02  0.38026872986E+03 -0.34789869236E+03  0.52696238481E+03  0.91068162581E+02 0.  0.
          3    1    3    3  502    0  0.41803926660E+01 -0.15906485710E+02 -0.13301545628E+03  0.13402836856E+03  0.00000000000E+00 0. -1.
         -3    1    3    3    0  502 -0.26744854212E+03 -0.24510859508E+03 -0.18685105956E+04  0.19034018997E+04  0.00000000000E+00 0.  1.
         15    1    5    5    0    0  0.11750939679E+03 -0.41756004195E+02 -0.37002226845E+02  0.13009359993E+03  0.17770000000E+01 0. -1.
        -15    1    5    5    0    0  0.84455100907E+02 -0.77497644871E+02  0.48376282270E+02  0.12442657049E+03  0.17770000000E+01 0.  1.
          1    1    6    6  503    0  0.22828370023E+02  0.15524973128E+03 -0.83864485282E+02  0.17792376298E+03  0.00000000000E+00 0. -1.
         -1    1    6    6    0  503  0.38475281726E+02  0.22501899857E+03 -0.26403420707E+03  0.34903862183E+03  0.00000000000E+00 0.  1.
<mgrwt>
<rscale>  0 0.50189243E+03</rscale>
<asrwt>0</asrwt>
<pdfrwt beam="1">  1        2 0.39668948E+00 0.50189243E+03</pdfrwt>
<pdfrwt beam="2">  1       -2 0.36989397E-01 0.50189243E+03</pdfrwt>
<totfact> 0.23662138E+01</totfact>
</mgrwt>
</event>
<event>
12    1  0.7781383E-008  0.6995024E+03  0.7818608E-02  0.9718084E-01
         -1   -1    0    0    0  501 -0.00000000000E+00  0.00000000000E+00  0.52487574698E+03  0.52487574698E+03  0.00000000000E+00 0.  1.
          1   -1    0    0  501    0  0.00000000000E+00 -0.00000000000E+00 -0.13674016176E+04  0.13674016176E+04  0.00000000000E+00 0. -1.
         23    2    1    2    0    0  0.45041742452E+03  0.41363464953E+03  0.91991003696E+02  0.62479300945E+03  0.89075699819E+02 0.  0.
    5000000    2    1    2    0    0 -0.45041742452E+03 -0.41363464953E+03 -0.93451687434E+03  0.12674843551E+04  0.59935408777E+03 0.  0.
         23    2    4    4    0    0 -0.22299944101E+03  0.72716772947E+02 -0.10045033954E+03  0.27141887362E+03  0.92528128087E+02 0.  0.
         23    2    4    4    0    0 -0.22741798351E+03 -0.48635142247E+03 -0.83406653480E+03  0.99606548153E+03  0.90679731216E+02 0.  0.
          2    1    3    3  502    0  0.23918030389E+03  0.15937361706E+03  0.44497736275E+02  0.29083881466E+03  0.00000000000E+00 0.  1.
         -2    1    3    3    0  502  0.21123712063E+03  0.25426103247E+03  0.47493267422E+02  0.33395419478E+03  0.00000000000E+00 0. -1.
         15    1    5    5    0    0 -0.91929693995E+01  0.21212522730E+02 -0.34950914075E+02  0.41942888916E+02  0.17770000000E+01 0.  1.
        -15    1    5    5    0    0 -0.21380647161E+03  0.51504250217E+02 -0.65499425468E+02  0.22947598471E+03  0.17770000000E+01 0. -1.
          4    1    6    6  503    0 -0.15388115934E+03 -0.29103374568E+03 -0.58352488827E+03  0.66998608012E+03  0.00000000000E+00 0.  1.
         -4    1    6    6    0  503 -0.73536824171E+02 -0.19531767679E+03 -0.25054164653E+03  0.32607940141E+03  0.00000000000E+00 0. -1.
<mgrwt>
<rscale>  0 0.69950237E+03</rscale>
<asrwt>0</asrwt>
<pdfrwt beam="1">  1        1 0.21036948E+00 0.69950237E+03</pdfrwt>
<pdfrwt beam="2">  1       -1 0.80750115E-01 0.69950237E+03</pdfrwt>
<totfact> 0.12919485E+01</totfact>
</mgrwt>
</event>
<event>
12    1  0.7781383E-008  0.1192073E+04  0.7818608E-02  0.9119824E-01
         -2   -1    0    0    0  501 -0.00000000000E+00  0.00000000000E+00  0.13645770297E+04  0.13645770297E+04  0.00000000000E+00 0.  1.
          2   -1    0    0  501    0  0.00000000000E+00 -0.00000000000E+00 -0.12429784853E+04  0.12429784853E+04  0.00000000000E+00 0. -1.
         23    2    1    2    0    0 -0.28852814120E+03  0.10884918052E+04 -0.44128938541E+03  0.12129440651E+04  0.91837275653E+02 0.  0.
    5000000    2    1    2    0    0  0.28852814120E+03 -0.10884918052E+04  0.56288792984E+03  0.13946114499E+04  0.60002947948E+03 0.  0.
         23    2    4    4    0    0 -0.13596004212E+03 -0.52426116195E+03  0.35117366142E+03  0.65179840063E+03  0.90461680337E+02 0.  0.
         23    2    4    4    0    0  0.42448818332E+03 -0.56423064328E+03  0.21171426842E+03  0.74281304924E+03  0.91661649948E+02 0.  0.
          1    1    3    3  502    0 -0.41614598420E+02  0.72304615839E+02 -0.43527454314E+02  0.94097670282E+02  0.00000000000E+00 0. -1.
         -1    1    3    3    0  502 -0.24691354278E+03  0.10161871894E+04 -0.39776193109E+03  0.11188463949E+04  0.00000000000E+00 0.  1.
         15    1    5    5    0    0 -0.22786463078E+02 -0.37790373811E+02  0.57116099965E+02  0.72199320333E+02  0.17770000000E+01 0.  1.
        -15    1    5    5    0    0 -0.11317357904E+03 -0.48647078814E+03  0.29405756146E+03  0.57959908030E+03  0.17770000000E+01 0. -1.
          4    1    6    6  503    0  0.28754141408E+03 -0.44468577355E+03  0.14348908002E+03  0.54864799106E+03  0.00000000000E+00 0. -1.
         -4    1    6    6    0  503  0.13694676925E+03 -0.11954486972E+03  0.68225188402E+02  0.19416505818E+03  0.00000000000E+00 0.  1.
<mgrwt>
<rscale>  0 0.11920725E+04</rscale>
<asrwt>0</asrwt>
<pdfrwt beam="1">  1        2 0.19122746E+00 0.11920725E+04</pdfrwt>
<pdfrwt beam="2">  1       -2 0.20993493E+00 0.11920725E+04</pdfrwt>
<totfact> 0.19889041E+00</totfact>
</mgrwt>
</event>
<event>
12    1  0.7781383E-008  0.5196933E+03  0.7818608E-02  0.1008763E+00
         -1   -1    0    0    0  501 -0.00000000000E+00  0.00000000000E+00  0.52542698714E+03  0.52542698714E+03  0.00000000000E+00 0.  1.
          1   -1    0    0  501    0  0.00000000000E+00 -0.00000000000E+00 -0.12548729099E+04  0.12548729099E+04  0.00000000000E+00 0. -1.
         23    2    1    2    0    0 -0.24673926404E+03  0.28877220818E+03 -0.95777153763E+03  0.10343704039E+04  0.91247803147E+02 0.  0.
    5000000    2    1    2    0    0  0.24673926404E+03 -0.28877220818E+03  0.22832561486E+03  0.74592949313E+03  0.60000714136E+03 0.  0.
         23    2    4    4    0    0 -0.15395934770E+03 -0.31131939921E+02 -0.48041587409E+02  0.18793096948E+03  0.91309236897E+02 0.  0.
         23    2    4    4    0    0  0.40069861174E+03 -0.25764026826E+03  0.27636720227E+03  0.55799852364E+03  0.89697472782E+02 0.  0.
          2    1    3    3  502    0 -0.10930095647E+03  0.79799711009E+02 -0.42032001817E+03  0.44156948563E+03  0.00000000000E+00 0. -1.
         -2    1    3    3    0  502 -0.13743830756E+03  0.20897249717E+03 -0.53745151946E+03  0.59280091829E+03  0.00000000000E+00 0.  1.
         15    1    5    5    0    0 -0.31924561156E+02 -0.35294508691E+02  0.15742034218E+02  0.50158242783E+02  0.17770000000E+01 0.  1.
        -15    1    5    5    0    0 -0.12203478654E+03  0.41625687706E+01 -0.63783621627E+02  0.13777272670E+03  0.17770000000E+01 0. -1.
          4    1    6    6  503    0  0.24702077359E+03 -0.10766741389E+03  0.16704543608E+03  0.31704213019E+03  0.00000000000E+00 0. -1.
         -4    1    6    6    0  503  0.15367783815E+03 -0.14997285437E+03  0.10932176618E+03  0.24095639345E+03  0.00000000000E+00 0.  1.
<mgrwt>
<rscale>  0 0.51969334E+03</rscale>
<asrwt>0</asrwt>
<pdfrwt beam="1">  1        1 0.19305737E+00 0.51969334E+03</pdfrwt>
<pdfrwt beam="2">  1       -1 0.80834922E-01 0.51969334E+03</pdfrwt>
<totfact> 0.15943612E+01</totfact>
</mgrwt>
</event>
<event>
12    1  0.7781383E-008  0.1125268E+04  0.7818608E-02  0.9180908E-01
          1   -1    0    0  501    0  0.00000000000E+00  0.00000000000E+00  0.36158561202E+03  0.36158561202E+03  0.00000000000E+00 0. -1.
         -1   -1    0    0    0  501 -0.00000000000E+00 -0.00000000000E+00 -0.49350012585E+04  0.49350012585E+04  0.00000000000E+00 0.  1.
         23    2    1    2    0    0 -0.81269839071E+03  0.66238216136E+03 -0.76474133439E+03  0.13008634963E+04  0.90486052092E+02 0.  0.
    5000000    2    1    2    0    0  0.81269839071E+03 -0.66238216136E+03 -0.38086743121E+04  0.39957233742E+04  0.60048019580E+03 0.  0.
         23    2    4    4    0    0  0.85172768644E+03 -0.68855368029E+03 -0.35728196340E+04  0.37380709432E+04  0.92671553294E+02 0.  0.
         23    2    4    4    0    0 -0.39029295731E+02  0.26171518936E+02 -0.23585467812E+03  0.25765243103E+03  0.92461406504E+02 0.  0.
          1    1    3    3  502    0 -0.52362598019E+03  0.38803074889E+03 -0.43459222181E+03  0.78334055715E+03  0.00000000000E+00 0. -1.
         -1    1    3    3    0  502 -0.28907241051E+03  0.27435141247E+03 -0.33014911258E+03  0.51752293919E+03  0.00000000000E+00 0.  1.
         15    1    5    5    0    0  0.37317894837E+03 -0.25722983050E+03 -0.15775458067E+04  0.16413663952E+04  0.17770000000E+01 0.  1.
        -15    1    5    5    0    0  0.47854873807E+03 -0.43132384980E+03 -0.19952738273E+04  0.20967045480E+04  0.17770000000E+01 0. -1.
          3    1    6    6  503    0 -0.61862255509E+02 -0.72663944936E+01 -0.15940599128E+03  0.17114324177E+03  0.00000000000E+00 0. -1.
         -3    1    6    6    0  503  0.22832959778E+02  0.33437913429E+02 -0.76448686838E+02  0.86509189258E+02  0.00000000000E+00 0.  1.
<mgrwt>
<rscale>  0 0.11252684E+04</rscale>
<asrwt>0</asrwt>
<pdfrwt beam="1">  1        1 0.55628551E-01 0.11252684E+04</pdfrwt>
<pdfrwt beam="2">  1       -1 0.75923102E+00 0.11252684E+04</pdfrwt>
<totfact> 0.81239546E-03</totfact>
</mgrwt>
</event>
<event>
12    1  0.7781383E-008  0.1053396E+04  0.7818608E-02  0.9251845E-01
         -2   -1    0    0    0  501 -0.00000000000E+00  0.00000000000E+00  0.76847013396E+03  0.76847013396E+03  0.00000000000E+00 0.  1.
          2   -1    0    0  501    0  0.00000000000E+00 -0.00000000000E+00 -0.20937299217E+04  0.20937299217E+04  0.00000000000E+00 0. -1.
         23    2    1    2    0    0 -0.76269584379E+03 -0.67505107589E+03 -0.13328737516E+04  0.16800682792E+04  0.93156212201E+02 0.  0.
    5000000    2    1    2    0    0  0.76269584379E+03  0.67505107589E+03  0.76139638050E+01  0.11821317765E+04  0.59998221593E+03 0.  0.
         23    2    4    4    0    0  0.73135155278E+03  0.46177191389E+03 -0.17364053167E+03  0.88733647172E+03  0.95428431777E+02 0.  0.
         23    2    4    4    0    0  0.31344291011E+02  0.21327916199E+03  0.18125449548E+03  0.29479530480E+03  0.87066722018E+02 0.  0.
          2    1    3    3  502    0 -0.63190281439E+03 -0.53380109214E+03 -0.10276427081E+04  0.13192021484E+04  0.00000000000E+00 0. -1.
         -2    1    3    3    0  502 -0.13079302940E+03 -0.14124998374E+03 -0.30523104350E+03  0.36086613080E+03  0.00000000000E+00 0.  1.
         15    1    5    5    0    0  0.43101916166E+03  0.23911675479E+03 -0.13749137877E+03  0.51172392665E+03  0.17770000000E+01 0. -1.
        -15    1    5    5    0    0  0.30033239112E+03  0.22265515910E+03 -0.36149152902E+02  0.37561254507E+03  0.17770000000E+01 0.  1.
          3    1    6    6  503    0 -0.10174619676E+02  0.82052423961E+02  0.24595536370E+02  0.86261599641E+02  0.00000000000E+00 0.  1.
         -3    1    6    6    0  503  0.41518910687E+02  0.13122673803E+03  0.15665895911E+03  0.20853370516E+03  0.00000000000E+00 0. -1.
<mgrwt>
<rscale>  0 0.10533958E+04</rscale>
<asrwt>0</asrwt>
<pdfrwt beam="1">  1        2 0.32211229E+00 0.10533958E+04</pdfrwt>
<pdfrwt beam="2">  1       -2 0.11822618E+00 0.10533958E+04</pdfrwt>
<totfact> 0.32431094E+00</totfact>
</mgrwt>
</event>
<event>
12    1  0.8655303E-008  0.1227064E+04  0.7818608E-02  0.9089492E-01
         -1   -1    0    0    0  501 -0.00000000000E+00  0.00000000000E+00  0.15246888428E+04  0.15246888428E+04  0.00000000000E+00 0.  1.
          1   -1    0    0  501    0  0.00000000000E+00 -0.00000000000E+00 -0.10253647416E+04  0.10253647416E+04  0.00000000000E+00 0. -1.
         23    2    1    2    0    0  0.81894658601E+03 -0.82468554244E+03  0.50614415383E+02  0.11669170741E+04  0.91399584847E+02 0.  0.
    5000000    2    1    2    0    0 -0.81894658601E+03  0.82468554244E+03  0.44870968580E+03  0.13831365104E+04  0.60078820693E+03 0.  0.
         23    2    4    4    0    0 -0.57805887052E+03  0.85653389493E+03  0.28403971046E+03  0.10755280132E+04  0.90992192078E+02 0.  0.
         23    2    4    4    0    0 -0.24088771549E+03 -0.31848352483E+02  0.16466997534E+03  0.30760849723E+03  0.92008574389E+02 0.  0.
          3    1    3    3  502    0  0.22072967432E+03 -0.16802870615E+03  0.49365365533E+01  0.27745198613E+03  0.00000000000E+00 0. -1.
         -3    1    3    3    0  502  0.59821691169E+03 -0.65665683630E+03  0.45677878829E+02  0.88946508796E+03  0.00000000000E+00 0.  1.
         15    1    5    5    0    0 -0.33712584745E+03  0.51130450573E+03  0.21395019844E+03  0.64874030224E+03  0.17770000000E+01 0. -1.
        -15    1    5    5    0    0 -0.24093302307E+03  0.34522938920E+03  0.70089512017E+02  0.42678771092E+03  0.17770000000E+01 0.  1.
          4    1    6    6  503    0 -0.19943536248E+03  0.50422933766E+01  0.15169318880E+03  0.25062065370E+03  0.00000000000E+00 0. -1.
         -4    1    6    6    0  503 -0.41452353009E+02 -0.36890645860E+02  0.12976786537E+02  0.56987843535E+02  0.00000000000E+00 0.  1.
<mgrwt>
<rscale>  0 0.12270639E+04</rscale>
<asrwt>0</asrwt>
<pdfrwt beam="1">  1        1 0.15774842E+00 0.12270639E+04</pdfrwt>
<pdfrwt beam="2">  1       -1 0.23456752E+00 0.12270639E+04</pdfrwt>
<totfact> 0.12454691E+00</totfact>
</mgrwt>
</event>
<event>
12    1  0.7781383E-008  0.6277030E+03  0.7818608E-02  0.9849542E-01
          1   -1    0    0  501    0  0.00000000000E+00  0.00000000000E+00  0.29183082899E+04  0.29183082899E+04  0.00000000000E+00 0. -1.
         -1   -1    0    0    0  501 -0.00000000000E+00 -0.00000000000E+00 -0.18373900920E+03  0.18373900920E+03  0.00000000000E+00 0.  1.
         23    2    1    2    0    0  0.16402727906E+03 -0.46591296408E+03  0.18844011694E+04  0.19501756047E+04  0.90759482952E+02 0.  0.
    5000000    2    1    2    0    0 -0.16402727906E+03  0.46591296408E+03  0.85016811127E+03  0.11518716943E+04  0.60003561925E+03 0.  0.
         23    2    4    4    0    0  0.53594399170E+02  0.52141663244E+03  0.64151068972E+03  0.83379458653E+03  0.94497530605E+02 0.  0.
         23    2    4    4    0    0 -0.21762167823E+03 -0.55503668357E+02  0.20865742154E+03  0.31807710778E+03  0.84824966225E+02 0.  0.
          1    1    3    3  502    0  0.10406577307E+03 -0.25761421608E+03  0.12229675844E+04  0.12541309668E+04  0.00000000000E+00 0. -1.
         -1    1    3    3    0  502  0.59961505989E+02 -0.20829874800E+03  0.66143358501E+03  0.69604463793E+03  0.00000000000E+00 0.  1.
         15    1    5    5    0    0 -0.16326421018E+02  0.33744347827E+02  0.27277183912E+02  0.46394347982E+02  0.17770000000E+01 0. -1.
        -15    1    5    5    0    0  0.69920820188E+02  0.48767228461E+03  0.61423350581E+03  0.78740023855E+03  0.17770000000E+01 0.  1.
          2    1    6    6  503    0 -0.17710023178E+03 -0.22832020353E+02  0.11958335632E+03  0.21490921888E+03  0.00000000000E+00 0. -1.
         -2    1    6    6    0  503 -0.40521446446E+02 -0.32671648004E+02  0.89074065225E+02  0.10316788890E+03  0.00000000000E+00 0.  1.
<mgrwt>
<rscale>  0 0.62770296E+03</rscale>
<asrwt>0</asrwt>
<pdfrwt beam="1">  1        1 0.44897047E+00 0.62770296E+03</pdfrwt>
<pdfrwt beam="2">  1       -1 0.28267542E-01 0.62770296E+03</pdfrwt>
<totfact> 0.84331989E+00</totfact>
</mgrwt>
</event>
<event>
12    1  0.7781383E-008  0.4833571E+03  0.7818608E-02  0.1018217E+00
          2   -1    0    0  501    0  0.00000000000E+00  0.00000000000E+00  0.44391138988E+04  0.44391138988E+04  0.00000000000E+00 0.  1.
         -2   -1    0    0    0  501 -0.00000000000E+00 -0.00000000000E+00 -0.21848712982E+03  0.21848712982E+03  0.00000000000E+00 0. -1.
         23    2    1    2    0    0  0.52458510100E+02 -0.32320328504E+03  0.38782402731E+04  0.38930402566E+04  0.88332126391E+02 0.  0.
    5000000    2    1    2    0    0 -0.52458510100E+02  0.32320328504E+03  0.34238649586E+03  0.76456077205E+03  0.60009366175E+03 0.  0.
         23    2    4    4    0    0 -0.27322227421E+03  0.57603078365E+02  0.27235610473E+03  0.40039313659E+03  0.90378594141E+02 0.  0.
         23    2    4    4    0    0  0.22076376411E+03  0.26560020667E+03  0.70030391131E+02  0.36416763546E+03  0.91835187756E+02 0.  0.
          4    1    3    3  502    0  0.18570823392E+02 -0.16212329452E+03  0.24305961406E+04  0.24360678227E+04  0.00000000000E+00 0. -1.
         -4    1    3    3    0  502  0.33887686708E+02 -0.16107999052E+03  0.14476441325E+04  0.14569724339E+04  0.00000000000E+00 0.  1.
         15    1    5    5    0    0 -0.26824060524E+03  0.72340789909E+02  0.25822519047E+03  0.37930148814E+03  0.17770000000E+01 0.  1.
        -15    1    5    5    0    0 -0.49816689728E+01 -0.14737711544E+02  0.14130914258E+02  0.21091648444E+02  0.17770000000E+01 0. -1.
          1    1    6    6  503    0  0.96643929388E+02  0.12158315320E+03 -0.14721117130E+02  0.15601033145E+03  0.00000000000E+00 0. -1.
         -1    1    6    6    0  503  0.12411983472E+03  0.14401705347E+03  0.84751508262E+02  0.20815730401E+03  0.00000000000E+00 0.  1.
<mgrwt>
<rscale>  0 0.48335711E+03</rscale>
<asrwt>0</asrwt>
<pdfrwt beam="1">  1        2 0.68294053E+00 0.48335711E+03</pdfrwt>
<pdfrwt beam="2">  1       -2 0.33613408E-01 0.48335711E+03</pdfrwt>
<totfact> 0.14407027E+00</totfact>
</mgrwt>
</event>
<event>
12    1  0.7781383E-008  0.1213145E+04  0.7818608E-02  0.9101428E-01
          1   -1    0    0  501    0  0.00000000000E+00  0.00000000000E+00  0.81415744244E+03  0.81415744244E+03  0.00000000000E+00 0. -1.
         -1   -1    0    0    0  501 -0.00000000000E+00 -0.00000000000E+00 -0.19371733493E+04  0.19371733493E+04  0.00000000000E+00 0.  1.
         23    2    1    2    0    0 -0.55865978029E+03  0.10259695673E+04 -0.72933628407E+03  0.13802331733E+04  0.91640025296E+02 0.  0.
    5000000    2    1    2    0    0  0.55865978029E+03 -0.10259695673E+04 -0.39367962274E+03  0.13710976184E+04  0.60017558314E+03 0.  0.
         23    2    4    4    0    0 -0.58180107908E+01 -0.40530499138E+03  0.47844340154E+02  0.41861586209E+03  0.92974049150E+02 0.  0.
         23    2    4    4    0    0  0.56447779108E+03 -0.62066457594E+03 -0.44152396290E+03  0.95248175630E+03  0.91751805555E+02 0.  0.
          3    1    3    3  502    0 -0.22422270598E+03  0.49789265031E+03 -0.36347408686E+03  0.65596213681E+03  0.00000000000E+00 0. -1.
         -3    1    3    3    0  502 -0.33443707430E+03  0.52807691702E+03 -0.36586219721E+03  0.72427103649E+03  0.00000000000E+00 0.  1.
         15    1    5    5    0    0 -0.36745323849E+02 -0.26899399601E+03  0.20060322677E+01  0.27150537860E+03  0.17770000000E+01 0.  1.
        -15    1    5    5    0    0  0.30927313058E+02 -0.13631099537E+03  0.45838307886E+02  0.14711048349E+03  0.17770000000E+01 0. -1.
          3    1    6    6  503    0  0.18809022532E+03 -0.14603582323E+03 -0.13062290125E+03  0.27160032559E+03  0.00000000000E+00 0. -1.
         -3    1    6    6    0  503  0.37638756575E+03 -0.47462875271E+03 -0.31090106164E+03  0.68088143071E+03  0.00000000000E+00 0.  1.
<mgrwt>
<rscale>  0 0.12131451E+04</rscale>
<asrwt>0</asrwt>
<pdfrwt beam="1">  1        1 0.12525499E+00 0.12131451E+04</pdfrwt>
<pdfrwt beam="2">  1       -1 0.29802667E+00 0.12131451E+04</pdfrwt>
<totfact> 0.72006944E-01</totfact>
</mgrwt>
</event>
<event>
12    1  0.7781383E-008  0.7296747E+03  0.7818608E-02  0.9667788E-01
         -1   -1    0    0    0  501 -0.00000000000E+00  0.00000000000E+00  0.22831858296E+03  0.22831858296E+03  0.00000000000E+00 0.  1.
          1   -1    0    0  501    0  0.00000000000E+00 -0.00000000000E+00 -0.24821342571E+04  0.24821342571E+04  0.00000000000E+00 0. -1.
         23    2    1    2    0    0 -0.35497679785E+03  0.51298870984E+03 -0.10999709486E+04  0.12680229716E+04  0.93702856693E+02 0.  0.
    5000000    2    1    2    0    0  0.35497679785E+03 -0.51298870984E+03 -0.11538447255E+04  0.14424298684E+04  0.60006693898E+03 0.  0.
         23    2    4    4    0    0 -0.13206738799E+03 -0.85854900007E+02 -0.11826107678E+03  0.21764597174E+03  0.92580926263E+02 0.  0.
         23    2    4    4    0    0  0.48704418585E+03 -0.42713380983E+03 -0.10355836488E+04  0.12247838967E+04  0.89480554018E+02 0.  0.
          4    1    3    3  502    0 -0.19325628134E+03  0.19853926184E+03 -0.46890060228E+03  0.54464080235E+03  0.00000000000E+00 0. -1.
         -4    1    3    3    0  502 -0.16172051652E+03  0.31444944800E+03 -0.63107034632E+03  0.72338216926E+03  0.00000000000E+00 0.  1.
         15    1    5    5    0    0 -0.11309202215E+03 -0.10115008503E+03 -0.78157478356E+02  0.17068360884E+03  0.17770000000E+01 0. -1.
        -15    1    5    5    0    0 -0.18975365845E+02  0.15295185022E+02 -0.40103598419E+02  0.46962362898E+02  0.17770000000E+01 0.  1.
          2    1    6    6  503    0  0.17036516353E+03 -0.10163324611E+03 -0.35323723200E+03  0.40512979122E+03  0.00000000000E+00 0.  1.
         -2    1    6    6    0  503  0.31667902232E+03 -0.32550056372E+03 -0.68234641677E+03  0.81965410548E+03  0.00000000000E+00 0. -1.
<mgrwt>
<rscale>  0 0.72967473E+03</rscale>
<asrwt>0</asrwt>
<pdfrwt beam="1">  1        1 0.38186683E+00 0.72967473E+03</pdfrwt>
<pdfrwt beam="2">  1       -1 0.35125933E-01 0.72967473E+03</pdfrwt>
<totfact> 0.11345361E+01</totfact>
</mgrwt>
</event>
<event>
12    1  0.7781383E-008  0.4174177E+03  0.7818608E-02  0.1037910E+00
         -2   -1    0    0    0  501 -0.00000000000E+00  0.00000000000E+00  0.13411270821E+03  0.13411270821E+03  0.00000000000E+00 0.  1.
          2   -1    0    0  501    0  0.00000000000E+00 -0.00000000000E+00 -0.18805563383E+04  0.18805563383E+04  0.00000000000E+00 0. -1.
         23    2    1    2    0    0  0.28312264916E+03  0.54005663336E+02 -0.82289808863E+03  0.87649570911E+03  0.89489762972E+02 0.  0.
    5000000    2    1    2    0    0 -0.28312264916E+03 -0.54005663336E+02 -0.92354554141E+03  0.11381733374E+04  0.59952242047E+03 0.  0.
         23    2    4    4    0    0 -0.33730932228E+03  0.95983257396E+02 -0.87641646033E+03  0.94839281582E+03  0.91393416437E+02 0.  0.
         23    2    4    4    0    0  0.54186673112E+02 -0.14998892073E+03 -0.47129081086E+02  0.18978052153E+03  0.91447384786E+02 0.  0.
          4    1    3    3  502    0  0.15747281452E+03 -0.12674025074E+02 -0.38818046536E+03  0.41909711513E+03  0.00000000000E+00 0. -1.
         -4    1    3    3    0  502  0.12564983464E+03  0.66679688410E+02 -0.43471762327E+03  0.45739859398E+03  0.00000000000E+00 0.  1.
         15    1    5    5    0    0 -0.19654671086E+03  0.24684618761E+02 -0.39710904509E+03  0.44377774998E+03  0.17770000000E+01 0. -1.
        -15    1    5    5    0    0 -0.14076261142E+03  0.71298638635E+02 -0.47930741523E+03  0.50461506584E+03  0.17770000000E+01 0.  1.
          1    1    6    6  503    0  0.73648434056E+02 -0.13626567318E+03 -0.55501092655E+02  0.16453813179E+03  0.00000000000E+00 0. -1.
         -1    1    6    6    0  503 -0.19461760943E+02 -0.13723247551E+02  0.83720115691E+01  0.25242389746E+02  0.00000000000E+00 0.  1.
<mgrwt>
<rscale>  0 0.41741773E+03</rscale>
<asrwt>0</asrwt>
<pdfrwt beam="1">  1        2 0.28931634E+00 0.41741773E+03</pdfrwt>
<pdfrwt beam="2">  1       -2 0.20632726E-01 0.41741773E+03</pdfrwt>
<totfact> 0.16726923E+02</totfact>
</mgrwt>
</event>
<event>
12    1  0.7781383E-008  0.1228917E+04  0.7818608E-02  0.9087916E-01
          2   -1    0    0  501    0  0.00000000000E+00  0.00000000000E+00  0.20720843102E+04  0.20720843102E+04  0.00000000000E+00 0. -1.
         -2   -1    0    0    0  501 -0.00000000000E+00 -0.00000000000E+00 -0.86777615110E+03  0.86777615110E+03  0.00000000000E+00 0.  1.
         23    2    1    2    0    0  0.10516200174E+04 -0.62302619592E+03  0.18668837665E+03  0.12399940528E+04  0.93093497574E+02 0.  0.
    5000000    2    1    2    0    0 -0.10516200174E+04  0.62302619592E+03  0.10176197825E+04  0.16998664085E+04  0.59994123313E+03 0.  0.
         23    2    4    4    0    0 -0.83476531764E+03  0.43761395614E+03  0.42662936755E+03  0.10388228410E+04  0.93814537852E+02 0.  0.
         23    2    4    4    0    0 -0.21685469976E+03  0.18541223978E+03  0.59099041490E+03  0.66104356751E+03  0.79405718719E+02 0.  0.
          1    1    3    3  502    0  0.31063956596E+03 -0.14692354167E+03  0.25169278751E+02  0.34455327546E+03  0.00000000000E+00 0. -1.
         -1    1    3    3    0  502  0.74098045143E+03 -0.47610265425E+03  0.16151909790E+03  0.89544077737E+03  0.00000000000E+00 0.  1.
         15    1    5    5    0    0 -0.28160821180E+03  0.12232207329E+03  0.97899580236E+02  0.32226287423E+03  0.17770000000E+01 0.  1.
        -15    1    5    5    0    0 -0.55315710584E+03  0.31529188285E+03  0.32872978732E+03  0.71655996673E+03  0.17770000000E+01 0. -1.
          2    1    6    6  503    0 -0.11848252906E+03  0.13344637216E+03  0.29428029132E+03  0.34416120321E+03  0.00000000000E+00 0. -1.
         -2    1    6    6    0  503 -0.98372170701E+02  0.51965867622E+02  0.29671012358E+03  0.31688236429E+03  0.00000000000E+00 0.  1.
<mgrwt>
<rscale>  0 0.12289168E+04</rscale>
<asrwt>0</asrwt>
<pdfrwt beam="1">  1        2 0.31878220E+00 0.12289168E+04</pdfrwt>
<pdfrwt beam="2">  1       -2 0.13350402E+00 0.12289168E+04</pdfrwt>
<totfact> 0.24034961E+00</totfact>
</mgrwt>
</event>
<event>
12    1  0.7781383E-008  0.8672858E+03  0.7818608E-02  0.9467426E-01
          1   -1    0    0  501    0  0.00000000000E+00  0.00000000000E+00  0.39453895326E+04  0.39453895326E+04  0.00000000000E+00 0. -1.
         -1   -1    0    0    0  501 -0.00000000000E+00 -0.00000000000E+00 -0.33960781640E+03  0.33960781640E+03  0.00000000000E+00 0.  1.
         23    2    1    2    0    0  0.33243018718E+03 -0.78571337657E+03  0.46538632441E+03  0.97593503686E+03  0.89495395187E+02 0.  0.
    5000000    2    1    2    0    0 -0.33243018718E+03  0.78571337657E+03  0.31403953917E+04  0.33090623121E+04  0.59996235657E+03 0.  0.
         23    2    4    4    0    0 -0.50616149426E+01  0.16619653444E+03  0.16697522624E+03  0.25283275004E+03  0.91633865507E+02 0.  0.
         23    2    4    4    0    0 -0.32736857224E+03  0.61951684213E+03  0.29734201655E+04  0.30562295620E+04  0.91325546985E+02 0.  0.
          4    1    3    3  502    0  0.10114451287E+03 -0.35222994864E+03  0.19443205748E+03  0.41484933913E+03  0.00000000000E+00 0. -1.
         -4    1    3    3    0  502  0.23128567431E+03 -0.43348342793E+03  0.27095426693E+03  0.56108569773E+03  0.00000000000E+00 0.  1.
         15    1    5    5    0    0  0.19570125115E+02  0.81241705532E+02  0.13495976766E+03  0.15874665707E+03  0.17770000000E+01 0.  1.
        -15    1    5    5    0    0 -0.24631740057E+02  0.84954828909E+02  0.32015458581E+02  0.94086092970E+02  0.17770000000E+01 0. -1.
          3    1    6    6  503    0 -0.11475149888E+03  0.29734733974E+03  0.12342186476E+04  0.12747074241E+04  0.00000000000E+00 0. -1.
         -3    1    6    6    0  503 -0.21261707336E+03  0.32216950239E+03  0.17392015179E+04  0.17815221379E+04  0.00000000000E+00 0.  1.
<mgrwt>
<rscale>  0 0.86728581E+03</rscale>
<asrwt>0</asrwt>
<pdfrwt beam="1">  1        1 0.60698297E+00 0.86728581E+03</pdfrwt>
<pdfrwt beam="2">  1       -1 0.52247359E-01 0.86728581E+03</pdfrwt>
<totfact> 0.42698677E-01</totfact>
</mgrwt>
</event>
<event>
12    1  0.7781383E-008  0.6017481E+03  0.7818608E-02  0.9901786E-01
         -2   -1    0    0    0  501 -0.00000000000E+00  0.00000000000E+00  0.40470423565E+03  0.40470423565E+03  0.00000000000E+00 0.  1.
          2   -1    0    0  501    0  0.00000000000E+00 -0.00000000000E+00 -0.21824555187E+04  0.21824555187E+04  0.00000000000E+00 0. -1.
         23    2    1    2    0    0 -0.41294561028E+03  0.30650555997E+03 -0.17168369106E+04  0.17945463891E+04  0.91640763281E+02 0.  0.
    5000000    2    1    2    0    0  0.41294561028E+03 -0.30650555997E+03 -0.60914372424E+02  0.79261336527E+03  0.60004637379E+03 0.  0.
         23    2    4    4    0    0  0.39430081060E+03 -0.39485787794E+03  0.11351619535E+03  0.57587311208E+03  0.85779027723E+02 0.  0.
         23    2    4    4    0    0  0.18644799684E+02  0.88352317970E+02 -0.17443056777E+03  0.21674025320E+03  0.91632711060E+02 0.  0.
          3    1    3    3  502    0 -0.16556435613E+03  0.84341660741E+02 -0.51206150609E+03  0.54473117937E+03  0.00000000000E+00 0. -1.
         -3    1    3    3    0  502 -0.24738125415E+03  0.22216389923E+03 -0.12047754045E+04  0.12498152097E+04  0.00000000000E+00 0.  1.
         15    1    5    5    0    0  0.22751805787E+03 -0.23639947136E+03  0.23902375419E+02  0.32897364332E+03  0.17770000000E+01 0. -1.
        -15    1    5    5    0    0  0.16678275272E+03 -0.15845840658E+03  0.89613819930E+02  0.24689946876E+03  0.17770000000E+01 0.  1.
          3    1    6    6  503    0  0.39057547325E+02  0.28980658609E+01 -0.38730037232E+02  0.55080909331E+02  0.00000000000E+00 0. -1.
         -3    1    6    6    0  503 -0.20412747641E+02  0.85454252109E+02 -0.13570053054E+03  0.16165934386E+03  0.00000000000E+00 0.  1.
<mgrwt>
<rscale>  0 0.60174811E+03</rscale>
<asrwt>0</asrwt>
<pdfrwt beam="1">  1        2 0.33576238E+00 0.60174811E+03</pdfrwt>
<pdfrwt beam="2">  1       -2 0.62262191E-01 0.60174811E+03</pdfrwt>
<totfact> 0.13480478E+01</totfact>
</mgrwt>
</event>
<event>
12    1  0.7781383E-008  0.4546719E+03  0.7818608E-02  0.1026338E+00
          2   -1    0    0  501    0  0.00000000000E+00  0.00000000000E+00  0.21548874282E+04  0.21548874282E+04  0.00000000000E+00 0. -1.
         -2   -1    0    0    0  501 -0.00000000000E+00 -0.00000000000E+00 -0.14284312981E+03  0.14284312981E+03  0.00000000000E+00 0.  1.
         23    2    1    2    0    0 -0.37729421572E+03  0.75443159433E+02  0.63894778315E+03  0.75064889019E+03  0.84716534624E+02 0.  0.
    5000000    2    1    2    0    0  0.37729421572E+03 -0.75443159433E+02  0.13730965152E+04  0.15470816678E+04  0.60002087562E+03 0.  0.
         23    2    4    4    0    0  0.15793118457E+03 -0.19645809724E+03  0.11995515949E+04  0.12291287929E+04  0.91079733169E+02 0.  0.
         23    2    4    4    0    0  0.21936303114E+03  0.12101493781E+03  0.17354492038E+03  0.31795287489E+03  0.90616977766E+02 0.  0.
          3    1    3    3  502    0 -0.43730704232E+02 -0.17236645640E+02  0.92639299671E+02  0.10388222316E+03  0.00000000000E+00 0. -1.
         -3    1    3    3    0  502 -0.33356351148E+03  0.92679805073E+02  0.54630848347E+03  0.64676666703E+03  0.00000000000E+00 0.  1.
         15    1    5    5    0    0  0.14021464652E+03 -0.11473900013E+03  0.72734327725E+03  0.74957093456E+03  0.17770000000E+01 0.  1.
        -15    1    5    5    0    0  0.17716538051E+02 -0.81719097119E+02  0.47220831760E+03  0.47955785834E+03  0.17770000000E+01 0. -1.
          1    1    6    6  503    0  0.28588434120E+01  0.48169346997E+01 -0.98578390564E+01  0.11338114324E+02  0.00000000000E+00 0. -1.
         -1    1    6    6    0  503  0.21650418773E+03  0.11619800311E+03  0.18340275943E+03  0.30661476057E+03  0.00000000000E+00 0.  1.
<mgrwt>
<rscale>  0 0.45467188E+03</rscale>
<asrwt>0</asrwt>
<pdfrwt beam="1">  1        2 0.33152112E+00 0.45467188E+03</pdfrwt>
<pdfrwt beam="2">  1       -2 0.21975868E-01 0.45467188E+03</pdfrwt>
<totfact> 0.10606970E+02</totfact>
</mgrwt>
</event>
<event>
12    1  0.7781383E-008  0.1440666E+04  0.7818608E-02  0.8924897E-01
          2   -1    0    0  501    0  0.00000000000E+00  0.00000000000E+00  0.16159586378E+04  0.16159586378E+04  0.00000000000E+00 0. -1.
         -2   -1    0    0    0  501 -0.00000000000E+00 -0.00000000000E+00 -0.14161840835E+04  0.14161840835E+04  0.00000000000E+00 0.  1.
         23    2    1    2    0    0  0.13526818412E+04  0.30332938289E+03  0.52845470641E+03  0.14862461017E+04  0.88916927453E+02 0.  0.
    5000000    2    1    2    0    0 -0.13526818412E+04 -0.30332938289E+03 -0.32868015206E+03  0.15458966196E+04  0.60000736509E+03 0.  0.
         23    2    4    4    0    0 -0.11719534410E+04 -0.45009243133E+03 -0.24839771784E+03  0.12825843449E+04  0.85223886837E+02 0.  0.
         23    2    4    4    0    0 -0.18072840016E+03  0.14676304844E+03 -0.80282434217E+02  0.26331227470E+03  0.93198378506E+02 0.  0.
          2    1    3    3  502    0  0.57552942194E+03  0.12259864052E+03  0.27100479260E+03  0.64784885567E+03  0.00000000000E+00 0.  1.
         -2    1    3    3    0  502  0.77715241926E+03  0.18073074238E+03  0.25744991382E+03  0.83839724601E+03  0.00000000000E+00 0. -1.
         15    1    5    5    0    0 -0.22342285142E+03 -0.53635169249E+02 -0.31872660723E+02  0.23197742595E+03  0.17770000000E+01 0.  1.
        -15    1    5    5    0    0 -0.94853058962E+03 -0.39645726208E+03 -0.21652505712E+03  0.10506069190E+04  0.17770000000E+01 0. -1.
          3    1    6    6  503    0 -0.66190153906E+02  0.82717366600E+02  0.62465856633E+01  0.10612407382E+03  0.00000000000E+00 0. -1.
         -3    1    6    6    0  503 -0.11453824625E+03  0.64045681837E+02 -0.86529019880E+02  0.15718820089E+03  0.00000000000E+00 0.  1.
<mgrwt>
<rscale>  0 0.14406657E+04</rscale>
<asrwt>0</asrwt>
<pdfrwt beam="1">  1        2 0.24860902E+00 0.14406657E+04</pdfrwt>
<pdfrwt beam="2">  1       -2 0.21787447E+00 0.14406657E+04</pdfrwt>
<totfact> 0.10533342E+00</totfact>
</mgrwt>
</event>
<event>
12    1  0.7781383E-008  0.4055491E+03  0.7818608E-02  0.1041875E+00
          1   -1    0    0  501    0  0.00000000000E+00  0.00000000000E+00  0.66658772472E+03  0.66658772472E+03  0.00000000000E+00 0. -1.
         -1   -1    0    0    0  501 -0.00000000000E+00 -0.00000000000E+00 -0.30303338972E+03  0.30303338972E+03  0.00000000000E+00 0.  1.
         23    2    1    2    0    0  0.12124261004E+03  0.19871125788E+03  0.55383365655E+02  0.25610619250E+03  0.91307886549E+02 0.  0.
    5000000    2    1    2    0    0 -0.12124261004E+03 -0.19871125788E+03  0.30817096935E+03  0.71351492194E+03  0.59995688427E+03 0.  0.
         23    2    4    4    0    0 -0.28367302420E+03 -0.23912226940E+03  0.35244186332E+03  0.51977448023E+03  0.91106525024E+02 0.  0.
         23    2    4    4    0    0  0.16243041416E+03  0.40411011519E+02 -0.44270893967E+02  0.19374044170E+03  0.86941114568E+02 0.  0.
          2    1    3    3  502    0  0.53220608615E+02  0.16520588141E+03  0.29973658795E+02  0.17613584716E+03  0.00000000000E+00 0. -1.
         -2    1    3    3    0  502  0.68022001426E+02  0.33505376471E+02  0.25409706860E+02  0.79970345336E+02  0.00000000000E+00 0.  1.
         15    1    5    5    0    0 -0.19396791321E+03 -0.19644275185E+03  0.29898445828E+03  0.40694983736E+03  0.17770000000E+01 0.  1.
        -15    1    5    5    0    0 -0.89705110994E+02 -0.42679517548E+02  0.53457405039E+02  0.11282464287E+03  0.17770000000E+01 0. -1.
          1    1    6    6  503    0  0.14638690211E+03  0.39492229061E+01 -0.21944992751E+02  0.14807533278E+03  0.00000000000E+00 0. -1.
         -1    1    6    6    0  503  0.16043512049E+02  0.36461788613E+02 -0.22325901216E+02  0.45665108922E+02  0.00000000000E+00 0.  1.
<mgrwt>
<rscale>  0 0.40554908E+03</rscale>
<asrwt>0</asrwt>
<pdfrwt beam="1">  1        1 0.10255196E+00 0.40554908E+03</pdfrwt>
<pdfrwt beam="2">  1       -1 0.46620522E-01 0.40554908E+03</pdfrwt>
<totfact> 0.14062191E+02</totfact>
</mgrwt>
</event>
<event>
12    1  0.7781383E-008  0.6145683E+03  0.7818608E-02  0.9875634E-01
          1   -1    0    0  501    0  0.00000000000E+00  0.00000000000E+00  0.78045096345E+03  0.78045096345E+03  0.00000000000E+00 0. -1.
         -1   -1    0    0    0  501 -0.00000000000E+00 -0.00000000000E+00 -0.64653558899E+03  0.64653558899E+03  0.00000000000E+00 0.  1.
         23    2    1    2    0    0  0.47559598426E+03  0.32820000478E+03  0.10164721818E+03  0.59328655425E+03  0.88034056511E+02 0.  0.
    5000000    2    1    2    0    0 -0.47559598426E+03 -0.32820000478E+03  0.32268156278E+02  0.83369999819E+03  0.60008971803E+03 0.  0.
         23    2    4    4    0    0 -0.46662297992E+03 -0.28824768682E+03 -0.19166282136E+03  0.58734273829E+03  0.86099481922E+02 0.  0.
         23    2    4    4    0    0 -0.89730043460E+01 -0.39952317959E+02  0.22393097764E+03  0.24635725990E+03  0.94181283921E+02 0.  0.
          2    1    3    3  502    0  0.17679836147E+03  0.10843471808E+03 -0.46085321482E+01  0.20745357859E+03  0.00000000000E+00 0.  1.
         -2    1    3    3    0  502  0.29879762279E+03  0.21976528670E+03  0.10625575033E+03  0.38583297566E+03  0.00000000000E+00 0. -1.
         15    1    5    5    0    0 -0.33740773640E+03 -0.20618376059E+03 -0.17803949789E+03  0.43365532887E+03  0.17770000000E+01 0. -1.
        -15    1    5    5    0    0 -0.12921524351E+03 -0.82063926227E+02 -0.13623323473E+02  0.15368740942E+03  0.17770000000E+01 0.  1.
          4    1    6    6  503    0  0.23764187875E+02  0.21911528011E+02  0.61180610761E+02  0.69194788952E+02  0.00000000000E+00 0. -1.
         -4    1    6    6    0  503 -0.32737192221E+02 -0.61863845970E+02  0.16275036688E+03  0.17716247095E+03  0.00000000000E+00 0.  1.
<mgrwt>
<rscale>  0 0.61456834E+03</rscale>
<asrwt>0</asrwt>
<pdfrwt beam="1">  1        1 0.12006938E+00 0.61456834E+03</pdfrwt>
<pdfrwt beam="2">  1       -1 0.99467014E-01 0.61456834E+03</pdfrwt>
<totfact> 0.23171878E+01</totfact>
</mgrwt>
</event>
<event>
12    1  0.7781383E-008  0.4645472E+03  0.7818608E-02  0.1023471E+00
          2   -1    0    0  501    0  0.00000000000E+00  0.00000000000E+00  0.21112641370E+04  0.21112641370E+04  0.00000000000E+00 0. -1.
         -2   -1    0    0    0  501 -0.00000000000E+00 -0.00000000000E+00 -0.15213203398E+03  0.15213203398E+03  0.00000000000E+00 0.  1.
         23    2    1    2    0    0  0.39667363846E+03  0.34916693871E+02  0.61612004771E+03  0.73942236260E+03  0.92587073419E+02 0.  0.
    5000000    2    1    2    0    0 -0.39667363846E+03 -0.34916693871E+02  0.13430120553E+04  0.15239738084E+04  0.60020466258E+03 0.  0.
         23    2    4    4    0    0 -0.42096294078E+03 -0.78032152732E+02  0.13518731243E+04  0.14208788599E+04  0.89649181652E+02 0.  0.
         23    2    4    4    0    0  0.24289302315E+02  0.43115458861E+02 -0.88610689912E+01  0.10309494854E+03  0.90006315734E+02 0.  0.
          1    1    3    3  502    0  0.32315027182E+03 -0.34666714721E+01  0.45341507050E+03  0.55679739776E+03  0.00000000000E+00 0. -1.
         -1    1    3    3    0  502  0.73523366645E+02  0.38383365343E+02  0.16270497720E+03  0.18262496485E+03  0.00000000000E+00 0.  1.
         15    1    5    5    0    0 -0.30973409008E+03 -0.18522997228E+02  0.10026682933E+04  0.10495833326E+04  0.17770000000E+01 0. -1.
        -15    1    5    5    0    0 -0.11122885070E+03 -0.59509155505E+02  0.34920483105E+03  0.37129552728E+03  0.17770000000E+01 0.  1.
          4    1    6    6  503    0  0.23793945855E+02  0.62637789553E+02  0.18470105672E+02  0.69503880057E+02  0.00000000000E+00 0. -1.
         -4    1    6    6    0  503  0.49535646008E+00 -0.19522330692E+02 -0.27331174663E+02  0.33591068487E+02  0.00000000000E+00 0.  1.
<mgrwt>
<rscale>  0 0.46454721E+03</rscale>
<asrwt>0</asrwt>
<pdfrwt beam="1">  1        2 0.32480985E+00 0.46454721E+03</pdfrwt>
<pdfrwt beam="2">  1       -2 0.23404930E-01 0.46454721E+03</pdfrwt>
<totfact> 0.10002330E+02</totfact>
</mgrwt>
</event>
<event>
12    1  0.7781383E-008  0.4998048E+03  0.7818608E-02  0.1013830E+00
         -2   -1    0    0    0  501 -0.00000000000E+00  0.00000000000E+00  0.18121207876E+03  0.18121207876E+03  0.00000000000E+00 0.  1.
          2   -1    0    0  501    0  0.00000000000E+00 -0.00000000000E+00 -0.15542553888E+04  0.15542553888E+04  0.00000000000E+00 0. -1.
         23    2    1    2    0    0 -0.30036418634E+03  0.14814640700E+03 -0.28619087615E+03  0.44953511712E+03  0.89501964195E+02 0.  0.
    5000000    2    1    2    0    0  0.30036418634E+03 -0.14814640700E+03 -0.10868524339E+04  0.12859323504E+04  0.60017313708E+03 0.  0.
         23    2    4    4    0    0  0.43872635885E+03 -0.14692128867E+02 -0.88432466759E+03  0.99195245996E+03  0.96139942372E+02 0.  0.
         23    2    4    4    0    0 -0.13836217251E+03 -0.13345427813E+03 -0.20252776631E+03  0.29397989047E+03  0.91937722070E+02 0.  0.
          4    1    3    3  502    0 -0.19402363497E+03  0.66748455088E+02 -0.21756781454E+03  0.29905899269E+03  0.00000000000E+00 0. -1.
         -4    1    3    3    0  502 -0.10634055137E+03  0.81397951911E+02 -0.68623061608E+02  0.15047612444E+03  0.00000000000E+00 0.  1.
         15    1    5    5    0    0  0.15479820577E+03 -0.51129279478E+02 -0.33001431425E+03  0.36808870272E+03  0.17770000000E+01 0. -1.
        -15    1    5    5    0    0  0.28392815308E+03  0.36437150611E+02 -0.55431035334E+03  0.62386375724E+03  0.17770000000E+01 0.  1.
          1    1    6    6  503    0 -0.85602330926E+02 -0.22742540301E+02 -0.66004785219E+02  0.11046091558E+03  0.00000000000E+00 0.  1.
         -1    1    6    6    0  503 -0.52759841587E+02 -0.11071173783E+03 -0.13652298109E+03  0.18351897489E+03  0.00000000000E+00 0. -1.
<mgrwt>
<rscale>  0 0.49980480E+03</rscale>
<asrwt>0</asrwt>
<pdfrwt beam="1">  1        2 0.23911620E+00 0.49980480E+03</pdfrwt>
<pdfrwt beam="2">  1       -2 0.27878783E-01 0.49980480E+03</pdfrwt>
<totfact> 0.14500542E+02</totfact>
</mgrwt>
</event>
<event>
12    1  0.7781383E-008  0.1136945E+04  0.7818608E-02  0.9169912E-01
         -2   -1    0    0    0  501 -0.00000000000E+00  0.00000000000E+00  0.88747468210E+03  0.88747468210E+03  0.00000000000E+00 0.  1.
          2   -1    0    0  501    0  0.00000000000E+00 -0.00000000000E+00 -0.15247387598E+04  0.15247387598E+04  0.00000000000E+00 0. -1.
         23    2    1    2    0    0  0.31128377709E+03 -0.10354701639E+04 -0.21925898090E+03  0.11069252538E+04  0.90072008298E+02 0.  0.
    5000000    2    1    2    0    0 -0.31128377709E+03  0.10354701639E+04 -0.41800509675E+03  0.13052881880E+04  0.59996078432E+03 0.  0.
         23    2    4    4    0    0 -0.44285640768E+03  0.67165884053E+03 -0.41046682080E+03  0.90799920497E+03  0.93445970271E+02 0.  0.
         23    2    4    4    0    0  0.13157263059E+03  0.36381132335E+03 -0.75382759562E+01  0.39728898307E+03  0.90064834098E+02 0.  0.
          2    1    3    3  502    0  0.18344848982E+03 -0.67143327977E+03 -0.10069452321E+03  0.70328897660E+03  0.00000000000E+00 0. -1.
         -2    1    3    3    0  502  0.12783528728E+03 -0.36403688411E+03 -0.11856445769E+03  0.40363627723E+03  0.00000000000E+00 0.  1.
         15    1    5    5    0    0 -0.26142807510E+03  0.36971964118E+03 -0.27979904115E+03  0.53228555559E+03  0.17770000000E+01 0.  1.
        -15    1    5    5    0    0 -0.18142833257E+03  0.30193919935E+03 -0.13066777965E+03  0.37571364938E+03  0.17770000000E+01 0. -1.
          1    1    6    6  503    0  0.75630494360E+02  0.19822304737E+03  0.40572322721E+02  0.21600569798E+03  0.00000000000E+00 0. -1.
         -1    1    6    6    0  503  0.55942136225E+02  0.16558827598E+03 -0.48110598678E+02  0.18128328509E+03  0.00000000000E+00 0.  1.
<mgrwt>
<rscale>  0 0.11369451E+04</rscale>
<asrwt>0</asrwt>
<pdfrwt beam="1">  1        2 0.23457519E+00 0.11369451E+04</pdfrwt>
<pdfrwt beam="2">  1       -2 0.13653457E+00 0.11369451E+04</pdfrwt>
<totfact> 0.46125496E+00</totfact>
</mgrwt>
</event>
<event>
12    1  0.7781383E-008  0.4643294E+03  0.7818608E-02  0.1023533E+00
         -2   -1    0    0    0  501 -0.00000000000E+00  0.00000000000E+00  0.89650451596E+02  0.89650451596E+02  0.00000000000E+00 0.  1.
          2   -1    0    0  501    0  0.00000000000E+00 -0.00000000000E+00 -0.28151931012E+04  0.28151931012E+04  0.00000000000E+00 0. -1.
         23    2    1    2    0    0 -0.17384430895E+03 -0.23068258754E+03 -0.12464682129E+04  0.12828256666E+04  0.92316765732E+02 0.  0.
    5000000    2    1    2    0    0  0.17384430895E+03  0.23068258754E+03 -0.14790744368E+04  0.16220178862E+04  0.59987043086E+03 0.  0.
         23    2    4    4    0    0  0.19079659675E+03  0.41067113771E+03 -0.98039211125E+03  0.10837955523E+04  0.91596848326E+02 0.  0.
         23    2    4    4    0    0 -0.16952287809E+02 -0.17998855017E+03 -0.49868232553E+03  0.53822233398E+03  0.91191889686E+02 0.  0.
          2    1    3    3  502    0 -0.52083182746E+02 -0.60644489715E+02 -0.54541659998E+03  0.55124375697E+03  0.00000000000E+00 0. -1.
         -2    1    3    3    0  502 -0.12176112620E+03 -0.17003809783E+03 -0.70105161290E+03  0.73158190964E+03  0.00000000000E+00 0.  1.
         15    1    5    5    0    0  0.96092031381E+02  0.27317471906E+03 -0.69875886255E+03  0.75638958966E+03  0.17770000000E+01 0.  1.
        -15    1    5    5    0    0  0.94704565374E+02  0.13749641865E+03 -0.28163324870E+03  0.32740596260E+03  0.17770000000E+01 0. -1.
          4    1    6    6  503    0 -0.60905808578E+01 -0.16127560366E+03 -0.48819051753E+03  0.51417593965E+03  0.00000000000E+00 0. -1.
         -4    1    6    6    0  503 -0.10861706951E+02 -0.18712946511E+02 -0.10491807998E+02  0.24046394326E+02  0.00000000000E+00 0.  1.
<mgrwt>
<rscale>  0 0.46432938E+03</rscale>
<asrwt>0</asrwt>
<pdfrwt beam="1">  1        2 0.43310666E+00 0.46432938E+03</pdfrwt>
<pdfrwt beam="2">  1       -2 0.13792376E-01 0.46432938E+03</pdfrwt>
<totfact> 0.10023229E+02</totfact>
</mgrwt>
</event>
<event>
12    1  0.7781383E-008  0.1732683E+04  0.7818608E-02  0.8742940E-01
         -1   -1    0    0    0  501 -0.00000000000E+00  0.00000000000E+00  0.23318805272E+04  0.23318805272E+04  0.00000000000E+00 0.  1.
          1   -1    0    0  501    0  0.00000000000E+00 -0.00000000000E+00 -0.17101994899E+04  0.17101994899E+04  0.00000000000E+00 0. -1.
         23    2    1    2    0    0 -0.16715556424E+03 -0.16867148485E+04  0.12814325005E+04  0.21267592234E+04  0.89930961842E+02 0.  0.
    5000000    2    1    2    0    0  0.16715556424E+03  0.16867148485E+04 -0.65975146318E+03  0.19153207937E+04  0.60019479075E+03 0.  0.
         23    2    4    4    0    0  0.34164290777E+03  0.11215914755E+04 -0.28433134996E+03  0.12100595186E+04  0.93340279830E+02 0.  0.
         23    2    4    4    0    0 -0.17448734353E+03  0.56512337304E+03 -0.37542011322E+03  0.70526127507E+03  0.81504263022E+02 0.  0.
          3    1    3    3  502    0 -0.52634670018E+02 -0.83566342805E+03  0.67456800827E+03  0.10752421919E+04  0.00000000000E+00 0. -1.
         -3    1    3    3    0  502 -0.11452089423E+03 -0.85105142045E+03  0.60686449226E+03  0.10515170314E+04  0.00000000000E+00 0.  1.
         15    1    5    5    0    0  0.31534662933E+03  0.10877964521E+04 -0.26573394468E+03  0.11633410097E+04  0.17770000000E+01 0.  1.
        -15    1    5    5    0    0  0.26296278448E+02  0.33795023393E+02 -0.18597405279E+02  0.46718508949E+02  0.17770000000E+01 0. -1.
          4    1    6    6  503    0 -0.10807748058E+03  0.25911254551E+03 -0.21372682305E+03  0.35284445290E+03  0.00000000000E+00 0.  1.
         -4    1    6    6    0  503 -0.66409862953E+02  0.30601082753E+03 -0.16169329017E+03  0.35241682217E+03  0.00000000000E+00 0. -1.
<mgrwt>
<rscale>  0 0.17326832E+04</rscale>
<asrwt>0</asrwt>
<pdfrwt beam="1">  1        1 0.26310761E+00 0.17326832E+04</pdfrwt>
<pdfrwt beam="2">  1       -1 0.35875085E+00 0.17326832E+04</pdfrwt>
<totfact> 0.58548777E-02</totfact>
</mgrwt>
</event>
<event>
12    1  0.7781383E-008  0.7784293E+03  0.7818608E-02  0.9591776E-01
         -2   -1    0    0    0  501 -0.00000000000E+00  0.00000000000E+00  0.11986468544E+04  0.11986468544E+04  0.00000000000E+00 0.  1.
          2   -1    0    0  501    0  0.00000000000E+00 -0.00000000000E+00 -0.13005084372E+04  0.13005084372E+04  0.00000000000E+00 0. -1.
         23    2    1    2    0    0  0.70819114105E+03 -0.19346534981E+03  0.86966607170E+03  0.11416498209E+04  0.89898294931E+02 0.  0.
    5000000    2    1    2    0    0 -0.70819114105E+03  0.19346534981E+03 -0.97152765452E+03  0.13575054708E+04  0.59999298815E+03 0.  0.
         23    2    4    4    0    0 -0.12427373532E+03  0.17316448713E+03 -0.63707082529E+03  0.67813821122E+03  0.92640683208E+02 0.  0.
         23    2    4    4    0    0 -0.58391740573E+03  0.20300862678E+02 -0.33445682922E+03  0.67936725954E+03  0.91141872821E+02 0.  0.
          3    1    3    3  502    0  0.34830645429E+03 -0.11309467204E+03  0.36931739009E+03  0.52009914975E+03  0.00000000000E+00 0. -1.
         -3    1    3    3    0  502  0.35988468675E+03 -0.80370677775E+02  0.50034868161E+03  0.62155067114E+03  0.00000000000E+00 0.  1.
         15    1    5    5    0    0 -0.12628011771E+03  0.10552852215E+03 -0.46186002712E+03  0.49030682179E+03  0.17770000000E+01 0. -1.
        -15    1    5    5    0    0  0.20063823917E+01  0.67635964983E+02 -0.17521079818E+03  0.18783138943E+03  0.17770000000E+01 0.  1.
          3    1    6    6  503    0 -0.18620000295E+03 -0.30512888729E+02 -0.83333105354E+02  0.20626653612E+03  0.00000000000E+00 0.  1.
         -3    1    6    6    0  503 -0.39771740278E+03  0.50813751407E+02 -0.25112372387E+03  0.47310072342E+03  0.00000000000E+00 0. -1.
<mgrwt>
<rscale>  0 0.77842929E+03</rscale>
<asrwt>0</asrwt>
<pdfrwt beam="1">  1        2 0.20007822E+00 0.77842929E+03</pdfrwt>
<pdfrwt beam="2">  1       -2 0.18440721E+00 0.77842929E+03</pdfrwt>
<totfact> 0.28550366E+00</totfact>
</mgrwt>
</event>
<event>
12    1  0.7781383E-008  0.8394403E+03  0.7818608E-02  0.9504620E-01
         -2   -1    0    0    0  501 -0.00000000000E+00  0.00000000000E+00  0.16246592482E+04  0.16246592482E+04  0.00000000000E+00 0.  1.
          2   -1    0    0  501    0  0.00000000000E+00 -0.00000000000E+00 -0.47693448605E+03  0.47693448605E+03  0.00000000000E+00 0. -1.
         23    2    1    2    0    0  0.81925431119E+02 -0.77037399237E+03  0.54563871637E+03  0.95157123352E+03  0.87053657447E+02 0.  0.
    5000000    2    1    2    0    0 -0.81925431119E+02  0.77037399237E+03  0.60208604580E+03  0.11500225008E+04  0.59988022247E+03 0.  0.
         23    2    4    4    0    0 -0.94032597746E+02 -0.12804804863E+02 -0.35451327057E+02  0.13587046147E+03  0.90542218018E+02 0.  0.
         23    2    4    4    0    0  0.12107166626E+02  0.78317879723E+03  0.63753737286E+03  0.10141520393E+04  0.92384225278E+02 0.  0.
          4    1    3    3  502    0  0.13287138885E+02 -0.42645057241E+03  0.26352994999E+03  0.50148247557E+03  0.00000000000E+00 0.  1.
         -4    1    3    3    0  502  0.68638292235E+02 -0.34392341996E+03  0.28210876638E+03  0.45008875795E+03  0.00000000000E+00 0. -1.
         15    1    5    5    0    0 -0.24552489088E+02 -0.33155081897E+02  0.18810142298E+02  0.45376903357E+02  0.17770000000E+01 0.  1.
        -15    1    5    5    0    0 -0.69480108658E+02  0.20350277034E+02 -0.54261469355E+02  0.90493558113E+02  0.17770000000E+01 0. -1.
          3    1    6    6  503    0  0.43406944344E+02  0.62797442578E+03  0.48955224618E+03  0.79743178015E+03  0.00000000000E+00 0. -1.
         -3    1    6    6    0  503 -0.31299777718E+02  0.15520437146E+03  0.14798512667E+03  0.21672025914E+03  0.00000000000E+00 0.  1.
<mgrwt>
<rscale>  0 0.83944026E+03</rscale>
<asrwt>0</asrwt>
<pdfrwt beam="1">  1        2 0.73374538E-01 0.83944026E+03</pdfrwt>
<pdfrwt beam="2">  1       -2 0.24994757E+00 0.83944026E+03</pdfrwt>
<totfact> 0.42569504E+00</totfact>
</mgrwt>
</event>
<event>
12    1  0.7781383E-008  0.5174063E+03  0.7818608E-02  0.1009333E+00
          2   -1    0    0  501    0  0.00000000000E+00  0.00000000000E+00  0.69908833721E+03  0.69908833721E+03  0.00000000000E+00 0. -1.
         -2   -1    0    0    0  501 -0.00000000000E+00 -0.00000000000E+00 -0.10105858100E+04  0.10105858100E+04  0.00000000000E+00 0.  1.
         23    2    1    2    0    0  0.35929766056E+03 -0.31424747497E+03  0.42574893062E+03  0.64583974134E+03  0.89445710720E+02 0.  0.
    5000000    2    1    2    0    0 -0.35929766056E+03  0.31424747497E+03 -0.73724640342E+03  0.10638344059E+04  0.60030417238E+03 0.  0.
         23    2    4    4    0    0 -0.94174110593E+02 -0.15575434642E+02 -0.59251291676E+03  0.60732160330E+03  0.93040937396E+02 0.  0.
         23    2    4    4    0    0 -0.26512354996E+03  0.32982290961E+03 -0.14473348666E+03  0.45651280259E+03  0.91556039198E+02 0.  0.
          4    1    3    3  502    0  0.16992266184E+03 -0.13972252189E+03  0.13806943435E+03  0.25972921058E+03  0.00000000000E+00 0. -1.
         -4    1    3    3    0  502  0.18937499872E+03 -0.17452495309E+03  0.28767949627E+03  0.38611053076E+03  0.00000000000E+00 0.  1.
         15    1    5    5    0    0  0.92774185950E+01 -0.27554489851E+02 -0.12644184993E+03  0.12975368800E+03  0.17770000000E+01 0. -1.
        -15    1    5    5    0    0 -0.10345152919E+03  0.11979055209E+02 -0.46607106683E+03  0.47756791529E+03  0.17770000000E+01 0.  1.
          3    1    6    6  503    0 -0.84693215663E+02  0.12568565649E+03 -0.82259437196E+01  0.15178106330E+03  0.00000000000E+00 0. -1.
         -3    1    6    6    0  503 -0.18043033430E+03  0.20413725313E+03 -0.13650754294E+03  0.30473173929E+03  0.00000000000E+00 0.  1.
<mgrwt>
<rscale>  0 0.51740627E+03</rscale>
<asrwt>0</asrwt>
<pdfrwt beam="1">  1        2 0.10755205E+00 0.51740627E+03</pdfrwt>
<pdfrwt beam="2">  1       -2 0.15547474E+00 0.51740627E+03</pdfrwt>
<totfact> 0.11693393E+01</totfact>
</mgrwt>
</event>
<event>
12    1  0.7781383E-008  0.7458366E+03  0.7818608E-02  0.9641905E-01
         -1   -1    0    0    0  501 -0.00000000000E+00  0.00000000000E+00  0.19059614574E+03  0.19059614574E+03  0.00000000000E+00 0.  1.
          1   -1    0    0  501    0  0.00000000000E+00 -0.00000000000E+00 -0.39376173938E+04  0.39376173938E+04  0.00000000000E+00 0. -1.
         23    2    1    2    0    0 -0.67142847908E+01 -0.68504893385E+03 -0.87490950884E+03  0.11151783759E+04  0.93909732930E+02 0.  0.
    5000000    2    1    2    0    0  0.67142847908E+01  0.68504893385E+03 -0.28721117393E+04  0.30130351637E+04  0.60001494281E+03 0.  0.
         23    2    4    4    0    0 -0.19931946263E+03  0.31714769056E+03 -0.70600929059E+03  0.80443975452E+03  0.91451049404E+02 0.  0.
         23    2    4    4    0    0  0.20603374743E+03  0.36790124329E+03 -0.21661024487E+04  0.22085954092E+04  0.89959065640E+02 0.  0.
          2    1    3    3  502    0  0.15750974431E+02 -0.63945251813E+03 -0.79360336139E+03  0.10192908865E+04  0.00000000000E+00 0.  1.
         -2    1    3    3    0  502 -0.22465259222E+02 -0.45596415720E+02 -0.81306147449E+02  0.95887489337E+02  0.00000000000E+00 0. -1.
         15    1    5    5    0    0 -0.14842721105E+03  0.18961857831E+03 -0.37010225043E+03  0.44154804464E+03  0.17770000000E+01 0. -1.
        -15    1    5    5    0    0 -0.50892251587E+02  0.12752911225E+03 -0.33590704016E+03  0.36289170988E+03  0.17770000000E+01 0.  1.
          3    1    6    6  503    0  0.31354021860E+02  0.84815814191E+02 -0.66213244976E+03  0.66827851832E+03  0.00000000000E+00 0. -1.
         -3    1    6    6    0  503  0.17467972557E+03  0.28308542909E+03 -0.15039699989E+04  0.15403168909E+04  0.00000000000E+00 0.  1.
<mgrwt>
<rscale>  0 0.74583662E+03</rscale>
<asrwt>0</asrwt>
<pdfrwt beam="1">  1        1 0.60578729E+00 0.74583662E+03</pdfrwt>
<pdfrwt beam="2">  1       -1 0.29322484E-01 0.74583662E+03</pdfrwt>
<totfact> 0.12735582E+00</totfact>
</mgrwt>
</event>
<event>
12    1  0.7781383E-008  0.7136636E+03  0.7818608E-02  0.9694147E-01
          3   -1    0    0  501    0  0.00000000000E+00  0.00000000000E+00  0.38664586334E+03  0.38664586334E+03  0.00000000000E+00 0. -1.
         -3   -1    0    0    0  501 -0.00000000000E+00 -0.00000000000E+00 -0.19026090420E+04  0.19026090420E+04  0.00000000000E+00 0.  1.
         23    2    1    2    0    0  0.66829204629E+03  0.97175298577E+02 -0.11015742398E+04  0.12953496542E+04  0.91693091916E+02 0.  0.
    5000000    2    1    2    0    0 -0.66829204629E+03 -0.97175298577E+02 -0.41438893882E+03  0.99390525108E+03  0.60006012842E+03 0.  0.
         23    2    4    4    0    0 -0.60481245902E+03  0.18294981760E+02 -0.52120117148E+03  0.80316584634E+03  0.85392614588E+02 0.  0.
         23    2    4    4    0    0 -0.63479587262E+02 -0.11547028034E+03  0.10681223266E+03  0.19073940473E+03  0.87233157870E+02 0.  0.
          3    1    3    3  502    0  0.23089198947E+03 -0.80975700102E+01 -0.39963704330E+03  0.46161287657E+03  0.00000000000E+00 0. -1.
         -3    1    3    3    0  502  0.43740005681E+03  0.10527286859E+03 -0.70193719650E+03  0.83373677764E+03  0.00000000000E+00 0.  1.
         15    1    5    5    0    0 -0.36076664224E+03  0.21543272267E+02 -0.25696254746E+03  0.44345190411E+03  0.17770000000E+01 0. -1.
        -15    1    5    5    0    0 -0.24404581679E+03 -0.32482905062E+01 -0.26423862402E+03  0.35971394223E+03  0.17770000000E+01 0.  1.
          3    1    6    6  503    0 -0.11798877866E+02  0.25540126641E+01  0.47299011997E+02  0.48815295098E+02  0.00000000000E+00 0. -1.
         -3    1    6    6    0  503 -0.51680709396E+02 -0.11802429300E+03  0.59513220666E+02  0.14192410964E+03  0.00000000000E+00 0.  1.
<mgrwt>
<rscale>  0 0.71366364E+03</rscale>
<asrwt>0</asrwt>
<pdfrwt beam="1">  1        3 0.59483979E-01 0.71366364E+03</pdfrwt>
<pdfrwt beam="2">  1       -3 0.29270908E+00 0.71366364E+03</pdfrwt>
<totfact> 0.30695551E-01</totfact>
</mgrwt>
</event>
<event>
12    1  0.7781383E-008  0.5080141E+03  0.7818608E-02  0.1011708E+00
         -1   -1    0    0    0  501 -0.00000000000E+00  0.00000000000E+00  0.34464394624E+03  0.34464394624E+03  0.00000000000E+00 0.  1.
          1   -1    0    0  501    0  0.00000000000E+00 -0.00000000000E+00 -0.10875625572E+04  0.10875625572E+04  0.00000000000E+00 0. -1.
         23    2    1    2    0    0 -0.32814276005E+03  0.20700841770E+03 -0.57373371195E+03  0.69843492010E+03  0.90060032258E+02 0.  0.
    5000000    2    1    2    0    0  0.32814276005E+03 -0.20700841770E+03 -0.16918489903E+03  0.73377158337E+03  0.59938889757E+03 0.  0.
         23    2    4    4    0    0 -0.74686363249E+02 -0.17694587787E+03 -0.23188974195E+03  0.31460890538E+03  0.91203148939E+02 0.  0.
         23    2    4    4    0    0  0.40282912330E+03 -0.30062539835E+02  0.62704842914E+02  0.41916267799E+03  0.92684380649E+02 0.  0.
          4    1    3    3  502    0 -0.22198980112E+03  0.18573927427E+03 -0.40025225311E+03  0.49394373761E+03  0.00000000000E+00 0. -1.
         -4    1    3    3    0  502 -0.10615295893E+03  0.21269143429E+02 -0.17348145884E+03  0.20449118249E+03  0.00000000000E+00 0.  1.
         15    1    5    5    0    0  0.12606381086E+02 -0.39511797886E+02 -0.88072721751E+02  0.97365625669E+02  0.17770000000E+01 0. -1.
        -15    1    5    5    0    0 -0.87292744335E+02 -0.13743407998E+03 -0.14381702020E+03  0.21724327971E+03  0.17770000000E+01 0.  1.
          1    1    6    6  503    0  0.23670345526E+02  0.20698073222E+02 -0.42877223690E+00  0.31446451915E+02  0.00000000000E+00 0. -1.
         -1    1    6    6    0  503  0.37915877777E+03 -0.50760613057E+02  0.63133615151E+02  0.38771622608E+03  0.00000000000E+00 0.  1.
<mgrwt>
<rscale>  0 0.50801409E+03</rscale>
<asrwt>0</asrwt>
<pdfrwt beam="1">  1        1 0.16731732E+00 0.50801409E+03</pdfrwt>
<pdfrwt beam="2">  1       -1 0.53022146E-01 0.50801409E+03</pdfrwt>
<totfact> 0.49067220E+01</totfact>
</mgrwt>
</event>
<event>
12    1  0.7781383E-008  0.5876003E+03  0.7818608E-02  0.9931471E-01
          1   -1    0    0  501    0  0.00000000000E+00  0.00000000000E+00  0.14163873889E+04  0.14163873889E+04  0.00000000000E+00 0. -1.
         -1   -1    0    0    0  501 -0.00000000000E+00 -0.00000000000E+00 -0.47950761712E+03  0.47950761712E+03  0.00000000000E+00 0.  1.
         23    2    1    2    0    0  0.52330574296E+03  0.76711945839E+02  0.95524937017E+03  0.10958703778E+04  0.93257184176E+02 0.  0.
    5000000    2    1    2    0    0 -0.52330574296E+03 -0.76711945839E+02 -0.18369598374E+02  0.80002462827E+03  0.59997361645E+03 0.  0.
         23    2    4    4    0    0 -0.15701669024E+03 -0.18598030048E+03  0.22025884500E+03  0.34116448610E+03  0.92931881436E+02 0.  0.
         23    2    4    4    0    0 -0.36628905271E+03  0.10926835464E+03 -0.23862844338E+03  0.45886014217E+03  0.86613235818E+02 0.  0.
          2    1    3    3  502    0  0.16474605207E+03  0.41069287898E+02  0.39246711201E+03  0.42761943606E+03  0.00000000000E+00 0. -1.
         -2    1    3    3    0  502  0.35855969089E+03  0.35642657941E+02  0.56278225815E+03  0.66825094171E+03  0.00000000000E+00 0.  1.
         15    1    5    5    0    0 -0.11497011935E+03 -0.17616457536E+03  0.14887285696E+03  0.25771761915E+03  0.17770000000E+01 0. -1.
        -15    1    5    5    0    0 -0.42046570896E+02 -0.98157251224E+01  0.71385988049E+02  0.83446866942E+02  0.17770000000E+01 0.  1.
          3    1    6    6  503    0 -0.29343390431E+03  0.50170103363E+02 -0.17216777790E+03  0.34389277285E+03  0.00000000000E+00 0. -1.
         -3    1    6    6    0  503 -0.72855148408E+02  0.59098251280E+02 -0.66460665475E+02  0.11496736932E+03  0.00000000000E+00 0.  1.
<mgrwt>
<rscale>  0 0.58760029E+03</rscale>
<asrwt>0</asrwt>
<pdfrwt beam="1">  1        1 0.21790575E+00 0.58760029E+03</pdfrwt>
<pdfrwt beam="2">  1       -1 0.73770403E-01 0.58760029E+03</pdfrwt>
<totfact> 0.14708408E+01</totfact>
</mgrwt>
</event>
<event>
12    1  0.7781383E-008  0.7640715E+03  0.7818608E-02  0.9613529E-01
          2   -1    0    0  501    0  0.00000000000E+00  0.00000000000E+00  0.78866662605E+03  0.78866662605E+03  0.00000000000E+00 0.  1.
         -2   -1    0    0    0  501 -0.00000000000E+00 -0.00000000000E+00 -0.10082474363E+04  0.10082474363E+04  0.00000000000E+00 0. -1.
         23    2    1    2    0    0  0.67889079848E+03  0.31409462009E+03 -0.34690705032E+03  0.82956856703E+03  0.91056900969E+02 0.  0.
    5000000    2    1    2    0    0 -0.67889079848E+03 -0.31409462009E+03  0.12732624010E+03  0.96734549528E+03  0.59999765766E+03 0.  0.
         23    2    4    4    0    0 -0.14353843877E+03 -0.89916226919E+00  0.27662603292E+03  0.32269560793E+03  0.83704249547E+02 0.  0.
         23    2    4    4    0    0 -0.53535235970E+03 -0.31319545782E+03 -0.14929979282E+03  0.64464988734E+03  0.92679583934E+02 0.  0.
          4    1    3    3  502    0  0.12484600547E+03  0.22665652771E+02 -0.71547435162E+02  0.14566843301E+03  0.00000000000E+00 0. -1.
         -4    1    3    3    0  502  0.55404479301E+03  0.29142896732E+03 -0.27535961516E+03  0.68390013402E+03  0.00000000000E+00 0.  1.
         15    1    5    5    0    0 -0.18044255974E+02 -0.20152815219E+02  0.10949983274E+03  0.11280559487E+03  0.17770000000E+01 0.  1.
        -15    1    5    5    0    0 -0.12549418280E+03  0.19253652949E+02  0.16712620018E+03  0.20989001307E+03  0.17770000000E+01 0. -1.
          3    1    6    6  503    0 -0.37205209932E+03 -0.23543524583E+03 -0.64851246204E+02  0.44503730599E+03  0.00000000000E+00 0. -1.
         -3    1    6    6    0  503 -0.16330026038E+03 -0.77760211988E+02 -0.84448546614E+02  0.19961258135E+03  0.00000000000E+00 0.  1.
<mgrwt>
<rscale>  0 0.76407146E+03</rscale>
<asrwt>0</asrwt>
<pdfrwt beam="1">  1        2 0.12133333E+00 0.76407146E+03</pdfrwt>
<pdfrwt beam="2">  1       -2 0.15511499E+00 0.76407146E+03</pdfrwt>
<totfact> 0.97609906E+00</totfact>
</mgrwt>
</event>
<event>
12    1  0.7781383E-008  0.5485415E+03  0.7818608E-02  0.1001832E+00
          2   -1    0    0  501    0  0.00000000000E+00  0.00000000000E+00  0.43585449468E+03  0.43585449468E+03  0.00000000000E+00 0. -1.
         -2   -1    0    0    0  501 -0.00000000000E+00 -0.00000000000E+00 -0.86657711744E+03  0.86657711744E+03  0.00000000000E+00 0.  1.
         23    2    1    2    0    0  0.45375243565E+03 -0.67362115184E+02 -0.22867676634E+03  0.52043704789E+03  0.90181649621E+02 0.  0.
    5000000    2    1    2    0    0 -0.45375243565E+03  0.67362115184E+02 -0.20204585642E+03  0.78199456423E+03  0.60021999547E+03 0.  0.
         23    2    4    4    0    0  0.21559924087E+02 -0.10867993768E+03 -0.22506535185E+03  0.26598509069E+03  0.88416608669E+02 0.  0.
         23    2    4    4    0    0 -0.47531235974E+03  0.17604205286E+03  0.23019495427E+02  0.51600947354E+03  0.93932081374E+02 0.  0.
          1    1    3    3  502    0  0.91203409687E+02  0.13606520554E+02 -0.19997054302E+02  0.94356141935E+02  0.00000000000E+00 0. -1.
         -1    1    3    3    0  502  0.36254902597E+03 -0.80968635737E+02 -0.20867971204E+03  0.42608090596E+03  0.00000000000E+00 0.  1.
         15    1    5    5    0    0 -0.18893242094E+02 -0.49615845899E+02 -0.36971662434E+02  0.64720540118E+02  0.17770000000E+01 0. -1.
        -15    1    5    5    0    0  0.40453166181E+02 -0.59064091780E+02 -0.18809368941E+03  0.20126455057E+03  0.17770000000E+01 0.  1.
          2    1    6    6  503    0 -0.16168408994E+03  0.38557429217E+02  0.46989377923E+02  0.17273222608E+03  0.00000000000E+00 0. -1.
         -2    1    6    6    0  503 -0.31362826980E+03  0.13748462365E+03 -0.23969882496E+02  0.34327724746E+03  0.00000000000E+00 0.  1.
<mgrwt>
<rscale>  0 0.54854148E+03</rscale>
<asrwt>0</asrwt>
<pdfrwt beam="1">  1        2 0.67054538E-01 0.54854148E+03</pdfrwt>
<pdfrwt beam="2">  1       -2 0.13331956E+00 0.54854148E+03</pdfrwt>
<totfact> 0.30269014E+01</totfact>
</mgrwt>
</event>
<event>
12    1  0.7781383E-008  0.5542820E+03  0.7818608E-02  0.1000508E+00
         -1   -1    0    0    0  501 -0.00000000000E+00  0.00000000000E+00  0.17740054525E+04  0.17740054525E+04  0.00000000000E+00 0.  1.
          1   -1    0    0  501    0  0.00000000000E+00 -0.00000000000E+00 -0.66473585414E+03  0.66473585414E+03  0.00000000000E+00 0. -1.
         23    2    1    2    0    0  0.28222333385E+03 -0.33905388103E+03  0.15219934775E+04  0.15873897721E+04  0.93459074414E+02 0.  0.
    5000000    2    1    2    0    0 -0.28222333385E+03  0.33905388103E+03 -0.41272387916E+03  0.85135153453E+03  0.59987572922E+03 0.  0.
         23    2    4    4    0    0 -0.30850168858E+02 -0.11356325970E+03 -0.26936554616E+03  0.30645353466E+03  0.86646549714E+02 0.  0.
         23    2    4    4    0    0 -0.25137316499E+03  0.45261714073E+03 -0.14335833300E+03  0.54489799986E+03  0.91167288330E+02 0.  0.
          4    1    3    3  502    0  0.16319057226E+03 -0.12448042895E+03  0.66406559816E+03  0.69506090289E+03  0.00000000000E+00 0. -1.
         -4    1    3    3    0  502  0.11903276159E+03 -0.21457345208E+03  0.85792787933E+03  0.89232886920E+03  0.00000000000E+00 0.  1.
         15    1    5    5    0    0  0.21824290951E+02 -0.24453354384E+02 -0.12212191057E+03  0.12645625721E+03  0.17770000000E+01 0. -1.
        -15    1    5    5    0    0 -0.52674459808E+02 -0.89109905314E+02 -0.14724363559E+03  0.17999727746E+03  0.17770000000E+01 0.  1.
          2    1    6    6  503    0 -0.18849408857E+03  0.27700645627E+03 -0.12441633463E+03  0.35741016013E+03  0.00000000000E+00 0. -1.
         -2    1    6    6    0  503 -0.62879076422E+02  0.17561068445E+03 -0.18941998361E+02  0.18748783973E+03  0.00000000000E+00 0.  1.
<mgrwt>
<rscale>  0 0.55428204E+03</rscale>
<asrwt>0</asrwt>
<pdfrwt beam="1">  1        1 0.10226706E+00 0.55428204E+03</pdfrwt>
<pdfrwt beam="2">  1       -1 0.27292391E+00 0.55428204E+03</pdfrwt>
<totfact> 0.15946059E+00</totfact>
</mgrwt>
</event>
<event>
12    1  0.7781383E-008  0.4620565E+03  0.7818608E-02  0.1024186E+00
          2   -1    0    0  501    0  0.00000000000E+00  0.00000000000E+00  0.92425151901E+03  0.92425151901E+03  0.00000000000E+00 0. -1.
         -2   -1    0    0    0  501 -0.00000000000E+00 -0.00000000000E+00 -0.38276089829E+03  0.38276089829E+03  0.00000000000E+00 0.  1.
         23    2    1    2    0    0  0.11913674430E+03  0.34782928886E+03 -0.57087792467E+02  0.38310851131E+03  0.91292592021E+02 0.  0.
    5000000    2    1    2    0    0 -0.11913674430E+03 -0.34782928886E+03  0.59857841319E+03  0.92390390599E+03  0.60010293512E+03 0.  0.
         23    2    4    4    0    0 -0.25202458354E+03 -0.10732156119E+03  0.35522265797E+02  0.29092953207E+03  0.91344693640E+02 0.  0.
         23    2    4    4    0    0  0.13288783925E+03 -0.24050772767E+03  0.56305614739E+03  0.63297437393E+03  0.90117634453E+02 0.  0.
          3    1    3    3  502    0  0.88581939528E+02  0.30168925735E+03 -0.17206683275E+02  0.31489559851E+03  0.00000000000E+00 0. -1.
         -3    1    3    3    0  502  0.30554804767E+02  0.46140031507E+02 -0.39881109192E+02  0.68212912797E+02  0.00000000000E+00 0.  1.
         15    1    5    5    0    0 -0.20192843599E+03 -0.60316923457E+02 -0.56377140739E+01  0.21082733709E+03  0.17770000000E+01 0. -1.
        -15    1    5    5    0    0 -0.50096147551E+02 -0.47004637729E+02  0.41159979871E+02  0.80102194973E+02  0.17770000000E+01 0.  1.
          1    1    6    6  503    0  0.10331683527E+03 -0.19313696175E+03  0.35139768431E+03  0.41407316622E+03  0.00000000000E+00 0. -1.
         -1    1    6    6    0  503  0.29571003976E+02 -0.47370765920E+02  0.21165846308E+03  0.21890120771E+03  0.00000000000E+00 0.  1.
<mgrwt>
<rscale>  0 0.46205654E+03</rscale>
<asrwt>0</asrwt>
<pdfrwt beam="1">  1        2 0.14219254E+00 0.46205654E+03</pdfrwt>
<pdfrwt beam="2">  1       -2 0.58886292E-01 0.46205654E+03</pdfrwt>
<totfact> 0.79284453E+01</totfact>
</mgrwt>
</event>
<event>
12    1  0.7781383E-008  0.1879680E+04  0.7818608E-02  0.8665037E-01
         -2   -1    0    0    0  501 -0.00000000000E+00  0.00000000000E+00  0.12410438295E+04  0.12410438295E+04  0.00000000000E+00 0.  1.
          2   -1    0    0  501    0  0.00000000000E+00 -0.00000000000E+00 -0.32840848629E+04  0.32840848629E+04  0.00000000000E+00 0. -1.
         23    2    1    2    0    0 -0.71357446141E+03 -0.17051232182E+04 -0.17734789671E+04  0.25631695841E+04  0.89313876272E+02 0.  0.
    5000000    2    1    2    0    0  0.71357446141E+03  0.17051232182E+04 -0.26956206631E+03  0.19619591084E+04  0.59998844480E+03 0.  0.
         23    2    4    4    0    0  0.49487389316E+03  0.58482571664E+03  0.53424921573E+02  0.77302486899E+03  0.88271948249E+02 0.  0.
         23    2    4    4    0    0  0.21870056825E+03  0.11202975016E+04 -0.32298698789E+03  0.11889342394E+04  0.79671830378E+02 0.  0.
          3    1    3    3  502    0 -0.37061479612E+03 -0.95873567200E+03 -0.93817944578E+03  0.13916573171E+04  0.00000000000E+00 0. -1.
         -3    1    3    3    0  502 -0.34295966529E+03 -0.74638754623E+03 -0.83529952136E+03  0.11715122669E+04  0.00000000000E+00 0.  1.
         15    1    5    5    0    0  0.32341023096E+03  0.34947571130E+03 -0.42260609063E+01  0.47618112899E+03  0.17770000000E+01 0. -1.
        -15    1    5    5    0    0  0.17146366220E+03  0.23535000534E+03  0.57650982480E+02  0.29684374000E+03  0.17770000000E+01 0.  1.
          1    1    6    6  503    0  0.16420905923E+03  0.70551813310E+03 -0.17528304529E+03  0.74528155568E+03  0.00000000000E+00 0. -1.
         -1    1    6    6    0  503  0.54491509022E+02  0.41477936849E+03 -0.14770394260E+03  0.44365268369E+03  0.00000000000E+00 0.  1.
<mgrwt>
<rscale>  0 0.18796802E+04</rscale>
<asrwt>0</asrwt>
<pdfrwt beam="1">  1        2 0.50524382E+00 0.18796802E+04</pdfrwt>
<pdfrwt beam="2">  1       -2 0.19092982E+00 0.18796802E+04</pdfrwt>
<totfact> 0.15794996E-01</totfact>
</mgrwt>
</event>
<event>
12    1  0.7781383E-008  0.5406260E+03  0.7818608E-02  0.1003687E+00
         -1   -1    0    0    0  501 -0.00000000000E+00  0.00000000000E+00  0.74977527080E+03  0.74977527080E+03  0.00000000000E+00 0.  1.
          1   -1    0    0  501    0  0.00000000000E+00 -0.00000000000E+00 -0.63596560774E+03  0.63596560774E+03  0.00000000000E+00 0. -1.
         23    2    1    2    0    0  0.13787666571E+03 -0.48514854647E+03 -0.18773754056E+03  0.54585933126E+03  0.91312311858E+02 0.  0.
    5000000    2    1    2    0    0 -0.13787666571E+03  0.48514854647E+03  0.30154720362E+03  0.83988154728E+03  0.60007600381E+03 0.  0.
         23    2    4    4    0    0 -0.50291481533E+02  0.44963735901E+03 -0.50411715780E+02  0.46416729499E+03  0.90592212239E+02 0.  0.
         23    2    4    4    0    0 -0.87585184182E+02  0.35511187466E+02  0.35195891940E+03  0.37571425229E+03  0.91399723768E+02 0.  0.
          1    1    3    3  502    0  0.10326224705E+03 -0.41691487444E+03 -0.12619294260E+03  0.44766702241E+03  0.00000000000E+00 0. -1.
         -1    1    3    3    0  502  0.34614418661E+02 -0.68233672037E+02 -0.61544597968E+02  0.98192308854E+02  0.00000000000E+00 0.  1.
         15    1    5    5    0    0  0.14722261672E+02  0.16698792150E+03  0.98624324095E+01  0.16793491661E+03  0.17770000000E+01 0.  1.
        -15    1    5    5    0    0 -0.65013743205E+02  0.28264943751E+03 -0.60274148189E+02  0.29623237838E+03  0.17770000000E+01 0. -1.
          1    1    6    6  503    0 -0.27161080350E+02 -0.21371481103E+02  0.39793681709E+02  0.52706750936E+02  0.00000000000E+00 0. -1.
         -1    1    6    6    0  503 -0.60424103831E+02  0.56882668570E+02  0.31216523769E+03  0.32300750135E+03  0.00000000000E+00 0.  1.
<mgrwt>
<rscale>  0 0.54062596E+03</rscale>
<asrwt>0</asrwt>
<pdfrwt beam="1">  1        1 0.97840863E-01 0.54062596E+03</pdfrwt>
<pdfrwt beam="2">  1       -1 0.11535004E+00 0.54062596E+03</pdfrwt>
<totfact> 0.22589951E+01</totfact>
</mgrwt>
</event>
<event>
12    1  0.7781383E-008  0.7346531E+03  0.7818608E-02  0.9659740E-01
          1   -1    0    0  501    0  0.00000000000E+00  0.00000000000E+00  0.66275167519E+03  0.66275167519E+03  0.00000000000E+00 0. -1.
         -1   -1    0    0    0  501 -0.00000000000E+00 -0.00000000000E+00 -0.19919469347E+04  0.19919469347E+04  0.00000000000E+00 0.  1.
         23    2    1    2    0    0 -0.39928353187E+03  0.52226269184E+03 -0.15935230876E+04  0.17261782897E+04  0.90498612767E+02 0.  0.
    5000000    2    1    2    0    0  0.39928353187E+03 -0.52226269184E+03  0.26432782808E+03  0.92852032024E+03  0.60007926668E+03 0.  0.
         23    2    4    4    0    0  0.22549013347E+03 -0.57613771490E+03  0.42042943904E+02  0.62684204624E+03  0.91558041626E+02 0.  0.
         23    2    4    4    0    0  0.17379339840E+03  0.53875023062E+02  0.22228488417E+03  0.30167827400E+03  0.92155020655E+02 0.  0.
          1    1    3    3  502    0 -0.23982707976E+03  0.28546171192E+03 -0.10086164968E+04  0.10753197918E+04  0.00000000000E+00 0. -1.
         -1    1    3    3    0  502 -0.15945645211E+03  0.23680097991E+03 -0.58490659085E+03  0.65085849785E+03  0.00000000000E+00 0.  1.
         15    1    5    5    0    0  0.11863299825E+03 -0.35948629880E+03 -0.14118665125E+02  0.37882275767E+03  0.17770000000E+01 0. -1.
        -15    1    5    5    0    0  0.10685713521E+03 -0.21665141610E+03  0.56161609029E+02  0.24801928857E+03  0.17770000000E+01 0.  1.
          1    1    6    6  503    0  0.66789796976E+02 -0.79658760018E+01  0.31289308167E+02  0.74184587120E+02  0.00000000000E+00 0. -1.
         -1    1    6    6    0  503  0.10700360143E+03  0.61840899064E+02  0.19099557601E+03  0.22749368688E+03  0.00000000000E+00 0.  1.
<mgrwt>
<rscale>  0 0.73465311E+03</rscale>
<asrwt>0</asrwt>
<pdfrwt beam="1">  1        1 0.10196180E+00 0.73465311E+03</pdfrwt>
<pdfrwt beam="2">  1       -1 0.30645337E+00 0.73465311E+03</pdfrwt>
<totfact> 0.94121268E-01</totfact>
</mgrwt>
</event>
<event>
12    1  0.7781383E-008  0.1053744E+04  0.7818608E-02  0.9251487E-01
          1   -1    0    0  501    0  0.00000000000E+00  0.00000000000E+00  0.12132478648E+04  0.12132478648E+04  0.00000000000E+00 0.  1.
         -1   -1    0    0    0  501 -0.00000000000E+00 -0.00000000000E+00 -0.96543376479E+03  0.96543376479E+03  0.00000000000E+00 0. -1.
         23    2    1    2    0    0  0.61751393225E+03 -0.78184923901E+03  0.14939126174E+03  0.10115357408E+04  0.90967668468E+02 0.  0.
    5000000    2    1    2    0    0 -0.61751393225E+03  0.78184923901E+03  0.98422838246E+02  0.11671458888E+04  0.59994231521E+03 0.  0.
         23    2    4    4    0    0 -0.30347163943E+03  0.46457099172E+02 -0.10609879516E+03  0.33569959639E+03  0.84758283864E+02 0.  0.
         23    2    4    4    0    0 -0.31404229282E+03  0.73539213984E+03  0.20452163340E+03  0.83144629241E+03  0.10024808031E+03 0.  0.
          4    1    3    3  502    0  0.24989505202E+03 -0.30714234205E+03  0.10413536436E+03  0.40942414367E+03  0.00000000000E+00 0.  1.
         -4    1    3    3    0  502  0.36761888023E+03 -0.47470689696E+03  0.45255897384E+02  0.60211159710E+03  0.00000000000E+00 0. -1.
         15    1    5    5    0    0 -0.21362452816E+03  0.25537531654E+02 -0.32331205360E+02  0.21756853891E+03  0.17770000000E+01 0. -1.
        -15    1    5    5    0    0 -0.89847111267E+02  0.20919567517E+02 -0.73767589796E+02  0.11813105748E+03  0.17770000000E+01 0.  1.
          3    1    6    6  503    0 -0.10042292647E+03  0.14966518593E+03  0.20538462026E+02  0.18140082817E+03  0.00000000000E+00 0. -1.
         -3    1    6    6    0  503 -0.21361936635E+03  0.58572695391E+03  0.18398317138E+03  0.65004546423E+03  0.00000000000E+00 0.  1.
<mgrwt>
<rscale>  0 0.10537441E+04</rscale>
<asrwt>0</asrwt>
<pdfrwt beam="1">  1        1 0.18665352E+00 0.10537441E+04</pdfrwt>
<pdfrwt beam="2">  1       -1 0.14852827E+00 0.10537441E+04</pdfrwt>
<totfact> 0.37329508E+00</totfact>
</mgrwt>
</event>
<event>
12    1  0.7781383E-008  0.1112065E+04  0.7818608E-02  0.9193512E-01
         -1   -1    0    0    0  501 -0.00000000000E+00  0.00000000000E+00  0.11504659358E+04  0.11504659358E+04  0.00000000000E+00 0.  1.
          1   -1    0    0  501    0  0.00000000000E+00 -0.00000000000E+00 -0.11875237216E+04  0.11875237216E+04  0.00000000000E+00 0. -1.
         23    2    1    2    0    0  0.57452475867E+03  0.88386917772E+03  0.26027918969E+03  0.10891333132E+04  0.84632711090E+02 0.  0.
    5000000    2    1    2    0    0 -0.57452475867E+03 -0.88386917772E+03 -0.29733697556E+03  0.12488563441E+04  0.59994122180E+03 0.  0.
         23    2    4    4    0    0  0.47505458589E+02 -0.55106147746E+01  0.54226808448E+02  0.11292824041E+03  0.86747364548E+02 0.  0.
         23    2    4    4    0    0 -0.62203021726E+03 -0.87835856295E+03 -0.35156378401E+03  0.11359281037E+04  0.91105468207E+02 0.  0.
          2    1    3    3  502    0  0.50806503689E+03  0.74148755646E+03  0.24258886228E+03  0.93101194095E+03  0.00000000000E+00 0. -1.
         -2    1    3    3    0  502  0.66459721780E+02  0.14238162126E+03  0.17690327412E+02  0.15812137229E+03  0.00000000000E+00 0.  1.
         15    1    5    5    0    0  0.37170866553E+02 -0.40131367595E+02  0.97390833396E+01  0.55589634453E+02  0.17770000000E+01 0. -1.
        -15    1    5    5    0    0  0.10334592036E+02  0.34620752820E+02  0.44487725109E+02  0.57338605954E+02  0.17770000000E+01 0.  1.
          3    1    6    6  503    0 -0.51261193445E+03 -0.75200261515E+03 -0.32660357531E+03  0.96692751742E+03  0.00000000000E+00 0.  1.
         -3    1    6    6    0  503 -0.10941828281E+03 -0.12635594779E+03 -0.24960208695E+02  0.16900058631E+03  0.00000000000E+00 0. -1.
<mgrwt>
<rscale>  0 0.11120647E+04</rscale>
<asrwt>0</asrwt>
<pdfrwt beam="1">  1        1 0.18269596E+00 0.11120647E+04</pdfrwt>
<pdfrwt beam="2">  1       -1 0.17699476E+00 0.11120647E+04</pdfrwt>
<totfact> 0.23640213E+00</totfact>
</mgrwt>
</event>
<event>
12    1  0.7781383E-008  0.1117650E+04  0.7818608E-02  0.9188158E-01
         -1   -1    0    0    0  501 -0.00000000000E+00  0.00000000000E+00  0.10413824479E+04  0.10413824479E+04  0.00000000000E+00 0.  1.
          1   -1    0    0  501    0  0.00000000000E+00 -0.00000000000E+00 -0.13277330945E+04  0.13277330945E+04  0.00000000000E+00 0. -1.
         23    2    1    2    0    0  0.84444039000E+03 -0.65423021290E+03  0.11937483335E+03  0.10784989627E+04  0.88390711910E+02 0.  0.
    5000000    2    1    2    0    0 -0.84444039000E+03  0.65423021290E+03 -0.40572547991E+03  0.12906165797E+04  0.59998437224E+03 0.  0.
         23    2    4    4    0    0 -0.85461754767E+03  0.64950385994E+03 -0.24541585425E+03  0.11048400949E+04  0.90643681626E+02 0.  0.
         23    2    4    4    0    0  0.10177157666E+02  0.47263529590E+01 -0.16030962566E+03  0.18577648473E+03  0.93208439781E+02 0.  0.
          3    1    3    3  502    0  0.41428917164E+03 -0.32620379919E+03  0.14659878620E+02  0.52750293685E+03  0.00000000000E+00 0. -1.
         -3    1    3    3    0  502  0.43015121836E+03 -0.32802641371E+03  0.10471495473E+03  0.55099602584E+03  0.00000000000E+00 0.  1.
         15    1    5    5    0    0 -0.29867618340E+03  0.18646030880E+03 -0.52107520586E+02  0.35593996786E+03  0.17770000000E+01 0.  1.
        -15    1    5    5    0    0 -0.55594136427E+03  0.46304355114E+03 -0.19330833366E+03  0.74890012709E+03  0.17770000000E+01 0. -1.
          3    1    6    6  503    0 -0.86717173729E+01  0.45596021385E+02 -0.10245224211E+03  0.11247514286E+03  0.00000000000E+00 0. -1.
         -3    1    6    6    0  503  0.18848875039E+02 -0.40869668426E+02 -0.57857383551E+02  0.73301341863E+02  0.00000000000E+00 0.  1.
<mgrwt>
<rscale>  0 0.11176500E+04</rscale>
<asrwt>0</asrwt>
<pdfrwt beam="1">  1        1 0.20426663E+00 0.11176500E+04</pdfrwt>
<pdfrwt beam="2">  1       -1 0.16021269E+00 0.11176500E+04</pdfrwt>
<totfact> 0.24906844E+00</totfact>
</mgrwt>
</event>
<event>
12    1  0.7781383E-008  0.4288144E+03  0.7818608E-02  0.1034235E+00
          2   -1    0    0  501    0  0.00000000000E+00  0.00000000000E+00  0.29813688515E+04  0.29813688515E+04  0.00000000000E+00 0. -1.
         -2   -1    0    0    0  501 -0.00000000000E+00 -0.00000000000E+00 -0.11749009586E+04  0.11749009586E+04  0.00000000000E+00 0.  1.
         23    2    1    2    0    0 -0.12948278756E+03  0.19635565204E+03  0.28868078282E+04  0.28979632781E+04  0.95970776255E+02 0.  0.
    5000000    2    1    2    0    0  0.12948278756E+03 -0.19635565204E+03 -0.10803399352E+04  0.12583065320E+04  0.60073256824E+03 0.  0.
         23    2    4    4    0    0  0.34931773919E+03 -0.14325014915E+03 -0.78347146339E+03  0.87435522222E+03  0.90144509160E+02 0.  0.
         23    2    4    4    0    0 -0.21983495163E+03 -0.53105502888E+02 -0.29686847182E+03  0.38395130980E+03  0.90222604381E+02 0.  0.
          2    1    3    3  502    0 -0.48802301877E+02  0.87668314323E+02  0.72343217738E+03  0.73035711352E+03  0.00000000000E+00 0. -1.
         -2    1    3    3    0  502 -0.80680485678E+02  0.10868733771E+03  0.21633756508E+04  0.21676061646E+04  0.00000000000E+00 0.  1.
         15    1    5    5    0    0  0.73316057712E+02 -0.18733084205E+02 -0.89591212977E+02  0.11728561691E+03  0.17770000000E+01 0. -1.
        -15    1    5    5    0    0  0.27600168147E+03 -0.12451706494E+03 -0.69388025041E+03  0.75706960531E+03  0.17770000000E+01 0.  1.
          3    1    6    6  503    0 -0.12052939317E+03  0.17229929365E+02 -0.15216941675E+03  0.19488390513E+03  0.00000000000E+00 0. -1.
         -3    1    6    6    0  503 -0.99305558457E+02 -0.70335432253E+02 -0.14469905507E+03  0.18906740467E+03  0.00000000000E+00 0.  1.
<mgrwt>
<rscale>  0 0.42881438E+03</rscale>
<asrwt>0</asrwt>
<pdfrwt beam="1">  1        2 0.45867213E+00 0.42881438E+03</pdfrwt>
<pdfrwt beam="2">  1       -2 0.18075399E+00 0.42881438E+03</pdfrwt>
<totfact> 0.38259851E-01</totfact>
</mgrwt>
</event>
<event>
12    1  0.7781383E-008  0.1109197E+04  0.7818608E-02  0.9196274E-01
         -2   -1    0    0    0  501 -0.00000000000E+00  0.00000000000E+00  0.23879928434E+04  0.23879928434E+04  0.00000000000E+00 0.  1.
          2   -1    0    0  501    0  0.00000000000E+00 -0.00000000000E+00 -0.78270607298E+03  0.78270607298E+03  0.00000000000E+00 0. -1.
         23    2    1    2    0    0 -0.10392589350E+04  0.15719486855E+03  0.16511841135E+04  0.19594923902E+04  0.91826413601E+02 0.  0.
    5000000    2    1    2    0    0  0.10392589350E+04 -0.15719486855E+03 -0.45897343003E+02  0.12112065262E+04  0.60012108977E+03 0.  0.
         23    2    4    4    0    0  0.10465119865E+04 -0.24605113512E+03 -0.69361443966E+02  0.10812655666E+04  0.92713087677E+02 0.  0.
         23    2    4    4    0    0 -0.72530515504E+01  0.88856266575E+02  0.23464100963E+02  0.12994095957E+03  0.91575357352E+02 0.  0.
          1    1    3    3  502    0 -0.68312561394E+03  0.11959296493E+03  0.11623026833E+04  0.13534809231E+04  0.00000000000E+00 0. -1.
         -1    1    3    3    0  502 -0.35613332102E+03  0.37601903616E+02  0.48888143016E+03  0.60601146710E+03  0.00000000000E+00 0.  1.
         15    1    5    5    0    0  0.98817380103E+03 -0.21908765301E+03 -0.47236416304E+02  0.10132725682E+04  0.17770000000E+01 0. -1.
        -15    1    5    5    0    0  0.58338185478E+02 -0.26963482117E+02 -0.22125027662E+02  0.67992998395E+02  0.17770000000E+01 0.  1.
          3    1    6    6  503    0  0.17995203449E+01  0.60685326287E+02 -0.30841968517E+02  0.68096799646E+02  0.00000000000E+00 0. -1.
         -3    1    6    6    0  503 -0.90525718954E+01  0.28170940288E+02  0.54306069480E+02  0.61844159926E+02  0.00000000000E+00 0.  1.
<mgrwt>
<rscale>  0 0.11091966E+04</rscale>
<asrwt>0</asrwt>
<pdfrwt beam="1">  1        2 0.12041632E+00 0.11091966E+04</pdfrwt>
<pdfrwt beam="2">  1       -2 0.36738351E+00 0.11091966E+04</pdfrwt>
<totfact> 0.42728411E-01</totfact>
</mgrwt>
</event>
<event>
12    1  0.7781383E-008  0.2705878E+03  0.7818608E-02  0.1100944E+00
         -3   -1    0    0    0  501 -0.00000000000E+00  0.00000000000E+00  0.12441190984E+04  0.12441190984E+04  0.00000000000E+00 0.  1.
          3   -1    0    0  501    0  0.00000000000E+00 -0.00000000000E+00 -0.74811330861E+03  0.74811330861E+03  0.00000000000E+00 0. -1.
         23    2    1    2    0    0 -0.66815447927E+02  0.93597084085E+02  0.11139103464E+04  0.11232827223E+04  0.87994865148E+02 0.  0.
    5000000    2    1    2    0    0  0.66815447927E+02 -0.93597084085E+02 -0.61790455660E+03  0.86894968467E+03  0.60003566160E+03 0.  0.
         23    2    4    4    0    0 -0.16013876901E+03 -0.14016506974E+02  0.14754644137E+02  0.18631897964E+03  0.93038566410E+02 0.  0.
         23    2    4    4    0    0  0.22695421694E+03 -0.79580577111E+02 -0.63265920074E+03  0.68263070503E+03  0.88801634782E+02 0.  0.
          2    1    3    3  502    0  0.64074091066E+01  0.30077856765E+01  0.38973678983E+03  0.38980106081E+03  0.00000000000E+00 0. -1.
         -2    1    3    3    0  502 -0.73222857033E+02  0.90589298408E+02  0.72417355654E+03  0.73348166151E+03  0.00000000000E+00 0.  1.
         15    1    5    5    0    0 -0.11885478336E+03  0.81369598431E+01  0.48408826804E+02  0.12860498390E+03  0.17770000000E+01 0.  1.
        -15    1    5    5    0    0 -0.41283985655E+02 -0.22153466817E+02 -0.33654182667E+02  0.57713995734E+02  0.17770000000E+01 0. -1.
          3    1    6    6  503    0  0.10558277224E+03  0.15475811532E+01 -0.33226568774E+03  0.34864108199E+03  0.00000000000E+00 0. -1.
         -3    1    6    6    0  503  0.12137144470E+03 -0.81128158264E+02 -0.30039351299E+03  0.33398962304E+03  0.00000000000E+00 0.  1.
<mgrwt>
<rscale>  0 0.27058775E+03</rscale>
<asrwt>0</asrwt>
<pdfrwt beam="1">  1        3 0.11509436E+00 0.27058775E+03</pdfrwt>
<pdfrwt beam="2">  1       -3 0.19140294E+00 0.27058775E+03</pdfrwt>
<totfact> 0.28534944E-01</totfact>
</mgrwt>
</event>
<event>
12    1  0.7781383E-008  0.1327106E+04  0.7818608E-02  0.9008342E-01
         -2   -1    0    0    0  501 -0.00000000000E+00  0.00000000000E+00  0.14184315398E+04  0.14184315398E+04  0.00000000000E+00 0.  1.
          2   -1    0    0  501    0  0.00000000000E+00 -0.00000000000E+00 -0.21659168048E+04  0.21659168048E+04  0.00000000000E+00 0. -1.
         23    2    1    2    0    0  0.56425867323E+02  0.12942354090E+04 -0.14888377458E+04  0.19757786369E+04  0.93990511259E+02 0.  0.
    5000000    2    1    2    0    0 -0.56425867323E+02 -0.12942354090E+04  0.74135248070E+03  0.16085697077E+04  0.59971979421E+03 0.  0.
         23    2    4    4    0    0 -0.20478753985E+03 -0.91855830723E+03  0.27289552569E+03  0.98311145572E+03  0.79679772642E+02 0.  0.
         23    2    4    4    0    0  0.14836167253E+03 -0.37567710178E+03  0.46845695501E+03  0.62545825201E+03  0.92745003286E+02 0.  0.
          3    1    3    3  502    0 -0.10054255083E+02  0.62223133792E+03 -0.67039784080E+03  0.91471645381E+03  0.00000000000E+00 0. -1.
         -3    1    3    3    0  502  0.66480122405E+02  0.67200407109E+03 -0.81843990498E+03  0.10610621831E+04  0.00000000000E+00 0.  1.
         15    1    5    5    0    0 -0.10078633927E+03 -0.59865959727E+03  0.19723673087E+03  0.63832333917E+03  0.17770000000E+01 0.  1.
        -15    1    5    5    0    0 -0.10400120058E+03 -0.31989870996E+03  0.75658794817E+02  0.34478811656E+03  0.17770000000E+01 0. -1.
          1    1    6    6  503    0  0.15768352298E+03 -0.32055155296E+03  0.38715841444E+03  0.52679125790E+03  0.00000000000E+00 0. -1.
         -1    1    6    6    0  503 -0.93218504536E+01 -0.55125548820E+02  0.81298540576E+02  0.98666994119E+02  0.00000000000E+00 0.  1.
<mgrwt>
<rscale>  0 0.13271062E+04</rscale>
<asrwt>0</asrwt>
<pdfrwt beam="1">  1        2 0.33321797E+00 0.13271062E+04</pdfrwt>
<pdfrwt beam="2">  1       -2 0.21822024E+00 0.13271062E+04</pdfrwt>
<totfact> 0.52387346E-01</totfact>
</mgrwt>
</event>
<event>
12    1  0.7781383E-008  0.8351745E+03  0.7818608E-02  0.9510454E-01
          1   -1    0    0  501    0  0.00000000000E+00  0.00000000000E+00  0.10737522063E+04  0.10737522063E+04  0.00000000000E+00 0. -1.
         -1   -1    0    0    0  501 -0.00000000000E+00 -0.00000000000E+00 -0.80221425035E+03  0.80221425035E+03  0.00000000000E+00 0.  1.
         23    2    1    2    0    0  0.49982125877E+02  0.77271324963E+03 -0.17643262957E+03  0.79889931225E+03  0.86762084327E+02 0.  0.
    5000000    2    1    2    0    0 -0.49982125877E+02 -0.77271324963E+03  0.44797058555E+03  0.10770671444E+04  0.59984332039E+03 0.  0.
         23    2    4    4    0    0 -0.29870273697E+01 -0.80161485174E+03  0.23682329375E+03  0.84046487668E+03  0.87753311084E+02 0.  0.
         23    2    4    4    0    0 -0.46995098508E+02  0.28901602104E+02  0.21114729180E+03  0.23660226775E+03  0.91398098349E+02 0.  0.
          3    1    3    3  502    0  0.53137329004E+02  0.68663692483E+03 -0.12933329109E+03  0.70072886516E+03  0.00000000000E+00 0. -1.
         -3    1    3    3    0  502 -0.31552031266E+01  0.86076324799E+02 -0.47099338486E+02  0.98170447099E+02  0.00000000000E+00 0.  1.
         15    1    5    5    0    0 -0.15926632266E+02 -0.85184561737E+02  0.30028090417E+01  0.86730858204E+02  0.17770000000E+01 0. -1.
        -15    1    5    5    0    0  0.12939604896E+02 -0.71643029000E+03  0.23382048471E+03  0.75373401847E+03  0.17770000000E+01 0.  1.
          3    1    6    6  503    0 -0.14940681295E+02  0.51143690113E+02  0.58848289512E+02  0.79385276811E+02  0.00000000000E+00 0. -1.
         -3    1    6    6    0  503 -0.32054417213E+02 -0.22242088009E+02  0.15229900228E+03  0.15721699093E+03  0.00000000000E+00 0.  1.
<mgrwt>
<rscale>  0 0.83517447E+03</rscale>
<asrwt>0</asrwt>
<pdfrwt beam="1">  1        1 0.16519265E+00 0.83517447E+03</pdfrwt>
<pdfrwt beam="2">  1       -1 0.12341758E+00 0.83517447E+03</pdfrwt>
<totfact> 0.78388545E+00</totfact>
</mgrwt>
</event>
<event>
12    1  0.7781383E-008  0.1818685E+04  0.7818608E-02  0.8696426E-01
         -1   -1    0    0    0  501 -0.00000000000E+00  0.00000000000E+00  0.12551809125E+04  0.12551809125E+04  0.00000000000E+00 0.  1.
          1   -1    0    0  501    0  0.00000000000E+00 -0.00000000000E+00 -0.27796371664E+04  0.27796371664E+04  0.00000000000E+00 0. -1.
         23    2    1    2    0    0 -0.98455912443E+03 -0.15169859769E+04 -0.94905291011E+03  0.20444410230E+04  0.91839787412E+02 0.  0.
    5000000    2    1    2    0    0  0.98455912443E+03  0.15169859769E+04 -0.57540334379E+03  0.19903770559E+04  0.59992390610E+03 0.  0.
         23    2    4    4    0    0  0.87030127151E+03  0.12989406786E+04 -0.68261329840E+03  0.17082833393E+04  0.87177190624E+02 0.  0.
         23    2    4    4    0    0  0.11425785292E+03  0.21804529832E+03  0.10720995461E+03  0.28209371661E+03  0.86511742060E+02 0.  0.
          2    1    3    3  502    0 -0.55353853798E+03 -0.93524766347E+03 -0.56552428777E+03  0.12251166578E+04  0.00000000000E+00 0.  1.
         -2    1    3    3    0  502 -0.43102058646E+03 -0.58173831343E+03 -0.38352862234E+03  0.81932436520E+03  0.00000000000E+00 0. -1.
         15    1    5    5    0    0  0.38394336998E+03  0.64576578661E+03 -0.31013697250E+03  0.81278168160E+03  0.17770000000E+01 0. -1.
        -15    1    5    5    0    0  0.48635790153E+03  0.65317489197E+03 -0.37247632590E+03  0.89550165771E+03  0.17770000000E+01 0.  1.
          2    1    6    6  503    0  0.89850541291E+02  0.78649346472E+02  0.49061204986E+02  0.12909624822E+03  0.00000000000E+00 0. -1.
         -2    1    6    6    0  503  0.24407311634E+02  0.13939595184E+03  0.58148749620E+02  0.15299746839E+03  0.00000000000E+00 0.  1.
<mgrwt>
<rscale>  0 0.18186849E+04</rscale>
<asrwt>0</asrwt>
<pdfrwt beam="1">  1        1 0.42763648E+00 0.18186849E+04</pdfrwt>
<pdfrwt beam="2">  1       -1 0.19310476E+00 0.18186849E+04</pdfrwt>
<totfact> 0.13219241E-01</totfact>
</mgrwt>
</event>
<event>
12    1  0.7781383E-008  0.2650159E+03  0.7818608E-02  0.1104167E+00
         -1   -1    0    0    0  501 -0.00000000000E+00  0.00000000000E+00  0.11150956296E+03  0.11150956296E+03  0.00000000000E+00 0.  1.
          1   -1    0    0  501    0  0.00000000000E+00 -0.00000000000E+00 -0.15490348749E+04  0.15490348749E+04  0.00000000000E+00 0. -1.
         23    2    1    2    0    0 -0.13842410598E+03  0.10395840723E+03 -0.25089208985E+03  0.31949826589E+03  0.95727308567E+02 0.  0.
    5000000    2    1    2    0    0  0.13842410598E+03 -0.10395840723E+03 -0.11866332221E+04  0.13410461720E+04  0.60028147401E+03 0.  0.
         23    2    4    4    0    0 -0.15622001874E+02  0.68692320465E+02 -0.10533489897E+04  0.10595985192E+04  0.90786816441E+02 0.  0.
         23    2    4    4    0    0  0.15404610785E+03 -0.17265072770E+03 -0.13328423244E+03  0.28144765278E+03  0.88936030487E+02 0.  0.
          3    1    3    3  502    0 -0.25767139079E+01  0.50460277095E+02 -0.81253190418E+02  0.95681555026E+02  0.00000000000E+00 0. -1.
         -3    1    3    3    0  502 -0.13584739207E+03  0.53498130137E+02 -0.16963889943E+03  0.22381671086E+03  0.00000000000E+00 0.  1.
         15    1    5    5    0    0  0.59023847507E+01 -0.14692881987E+02 -0.43355198693E+03  0.43384467500E+03  0.17770000000E+01 0. -1.
        -15    1    5    5    0    0 -0.21524386624E+02  0.83385202452E+02 -0.61979700275E+03  0.62575384422E+03  0.17770000000E+01 0.  1.
          1    1    6    6  503    0  0.29297316790E+02 -0.30062601590E+02  0.10896417694E+02  0.43368475925E+02  0.00000000000E+00 0. -1.
         -1    1    6    6    0  503  0.12474879106E+03 -0.14258812611E+03 -0.14418065014E+03  0.23807917686E+03  0.00000000000E+00 0.  1.
<mgrwt>
<rscale>  0 0.26501585E+03</rscale>
<asrwt>0</asrwt>
<pdfrwt beam="1">  1        1 0.23831304E+00 0.26501585E+03</pdfrwt>
<pdfrwt beam="2">  1       -1 0.17155319E-01 0.26501585E+03</pdfrwt>
<totfact> 0.17332541E+02</totfact>
</mgrwt>
</event>
<event>
12    1  0.7781383E-008  0.2941054E+03  0.7818608E-02  0.1088225E+00
         -1   -1    0    0    0  501 -0.00000000000E+00  0.00000000000E+00  0.44431923061E+03  0.44431923061E+03  0.00000000000E+00 0.  1.
          1   -1    0    0  501    0  0.00000000000E+00 -0.00000000000E+00 -0.47291319364E+03  0.47291319364E+03  0.00000000000E+00 0. -1.
         23    2    1    2    0    0  0.20919070310E+03 -0.12762542159E+03 -0.57922748684E+02  0.26843972689E+03  0.93036786593E+02 0.  0.
    5000000    2    1    2    0    0 -0.20919070310E+03  0.12762542159E+03  0.29328785662E+02  0.64879269736E+03  0.60001898968E+03 0.  0.
         23    2    4    4    0    0 -0.32095735508E+02  0.10881221137E+03  0.28720849592E+03  0.32204189972E+03  0.91389449443E+02 0.  0.
         23    2    4    4    0    0 -0.17709496759E+03  0.18813210216E+02 -0.25787971025E+03  0.32675079764E+03  0.92453092810E+02 0.  0.
          1    1    3    3  502    0  0.19442207382E+03 -0.76831880651E+02 -0.50042868799E+02  0.21495899467E+03  0.00000000000E+00 0. -1.
         -1    1    3    3    0  502  0.14768629280E+02 -0.50793540937E+02 -0.78798798844E+01  0.53480732219E+02  0.00000000000E+00 0.  1.
         15    1    5    5    0    0  0.44494230163E+01 -0.13382683211E+02  0.11598392516E+02  0.18345953588E+02  0.17770000000E+01 0. -1.
        -15    1    5    5    0    0 -0.36545158524E+02  0.12219489458E+03  0.27561010340E+03  0.30369594614E+03  0.17770000000E+01 0.  1.
          4    1    6    6  503    0 -0.63528129570E+02 -0.16362739279E+02 -0.15939944008E+03  0.17237094877E+03  0.00000000000E+00 0. -1.
         -4    1    6    6    0  503 -0.11356683802E+03  0.35175949495E+02 -0.98480270174E+02  0.15437984886E+03  0.00000000000E+00 0.  1.
<mgrwt>
<rscale>  0 0.29410535E+03</rscale>
<asrwt>0</asrwt>
<pdfrwt beam="1">  1        1 0.72755875E-01 0.29410535E+03</pdfrwt>
<pdfrwt beam="2">  1       -1 0.68356805E-01 0.29410535E+03</pdfrwt>
<totfact> 0.11026217E+02</totfact>
</mgrwt>
</event>
<event>
12    1  0.7781383E-008  0.9034900E+03  0.7818608E-02  0.9421229E-01
          1   -1    0    0  501    0  0.00000000000E+00  0.00000000000E+00  0.18329156136E+04  0.18329156136E+04  0.00000000000E+00 0. -1.
         -1   -1    0    0    0  501 -0.00000000000E+00 -0.00000000000E+00 -0.47315521864E+03  0.47315521864E+03  0.00000000000E+00 0.  1.
         23    2    1    2    0    0  0.79582434357E+03 -0.15133483546E+03  0.37632974075E+03  0.89779676371E+03  0.90423099530E+02 0.  0.
    5000000    2    1    2    0    0 -0.79582434357E+03  0.15133483546E+03  0.98343065417E+03  0.14082740685E+04  0.59988447401E+03 0.  0.
         23    2    4    4    0    0 -0.83394357279E+03  0.71936106424E+01  0.81555440016E+03  0.11699984200E+04  0.90849835551E+02 0.  0.
         23    2    4    4    0    0  0.38119229223E+02  0.14414122482E+03  0.16787625401E+03  0.23827564845E+03  0.79768914105E+02 0.  0.
          2    1    3    3  502    0  0.68754003253E+03 -0.12503896171E+03  0.28898735570E+03  0.75621407686E+03  0.00000000000E+00 0. -1.
         -2    1    3    3    0  502  0.10828431103E+03 -0.26295873745E+02  0.87342385048E+02  0.14158268686E+03  0.00000000000E+00 0.  1.
         15    1    5    5    0    0 -0.13489848052E+03 -0.25211380690E+02  0.16385852994E+03  0.21374281117E+03  0.17770000000E+01 0.  1.
        -15    1    5    5    0    0 -0.69904509226E+03  0.32404991332E+02  0.65169587022E+03  0.95625560886E+03  0.17770000000E+01 0. -1.
          2    1    6    6  503    0  0.17163903192E+02  0.13620085496E+03  0.16654087173E+03  0.21582663047E+03  0.00000000000E+00 0. -1.
         -2    1    6    6    0  503  0.20955326031E+02  0.79403698528E+01  0.13353822833E+01  0.22449017981E+02  0.00000000000E+00 0.  1.
<mgrwt>
<rscale>  0 0.90349004E+03</rscale>
<asrwt>0</asrwt>
<pdfrwt beam="1">  1        1 0.28198701E+00 0.90349004E+03</pdfrwt>
<pdfrwt beam="2">  1       -1 0.72793111E-01 0.90349004E+03</pdfrwt>
<totfact> 0.75222721E+00</totfact>
</mgrwt>
</event>
<event>
12    1  0.7781383E-008  0.5915378E+03  0.7818608E-02  0.9923120E-01
         -1   -1    0    0    0  501 -0.00000000000E+00  0.00000000000E+00  0.29244149386E+03  0.29244149386E+03  0.00000000000E+00 0.  1.
          1   -1    0    0  501    0  0.00000000000E+00 -0.00000000000E+00 -0.12248686385E+04  0.12248686385E+04  0.00000000000E+00 0. -1.
         23    2    1    2    0    0 -0.39663888706E+03  0.19073360832E+03 -0.40372520906E+03  0.60440747718E+03  0.92804299304E+02 0.  0.
    5000000    2    1    2    0    0  0.39663888706E+03 -0.19073360832E+03 -0.52870193556E+03  0.91290265516E+03  0.60013648869E+03 0.  0.
         23    2    4    4    0    0  0.38171385786E+03 -0.36842497577E+03 -0.33358433212E+03  0.63326048995E+03  0.91092861654E+02 0.  0.
         23    2    4    4    0    0  0.14925029199E+02  0.17769136745E+03 -0.19511760344E+03  0.27964216521E+03  0.91279147831E+02 0.  0.
          1    1    3    3  502    0 -0.26863711841E+03  0.79478268370E+02 -0.25591827601E+03  0.37944282906E+03  0.00000000000E+00 0. -1.
         -1    1    3    3    0  502 -0.12800176865E+03  0.11125533995E+03 -0.14780693305E+03  0.22496464812E+03  0.00000000000E+00 0.  1.
         15    1    5    5    0    0  0.13147791723E+03 -0.93694408868E+02 -0.14273397297E+03  0.21550227316E+03  0.17770000000E+01 0.  1.
        -15    1    5    5    0    0  0.25023594064E+03 -0.27473056690E+03 -0.19085035915E+03  0.41775821679E+03  0.17770000000E+01 0. -1.
          3    1    6    6  503    0  0.49821389032E+02  0.14137407925E+03 -0.14304065379E+03  0.20719418362E+03  0.00000000000E+00 0. -1.
         -3    1    6    6    0  503 -0.34896359833E+02  0.36317288197E+02 -0.52076949652E+02  0.72447981591E+02  0.00000000000E+00 0.  1.
<mgrwt>
<rscale>  0 0.59153781E+03</rscale>
<asrwt>0</asrwt>
<pdfrwt beam="1">  1        1 0.18844133E+00 0.59153781E+03</pdfrwt>
<pdfrwt beam="2">  1       -1 0.44990998E-01 0.59153781E+03</pdfrwt>
<totfact> 0.52437910E+01</totfact>
</mgrwt>
</event>
<event>
12    1  0.7781383E-008  0.1030573E+04  0.7818608E-02  0.9275634E-01
          2   -1    0    0  501    0  0.00000000000E+00  0.00000000000E+00  0.66260790593E+03  0.66260790593E+03  0.00000000000E+00 0. -1.
         -2   -1    0    0    0  501 -0.00000000000E+00 -0.00000000000E+00 -0.17913778587E+04  0.17913778587E+04  0.00000000000E+00 0.  1.
         23    2    1    2    0    0  0.22616105227E+03  0.96359586574E+03 -0.71660661310E+03  0.12253568187E+04  0.91150870207E+02 0.  0.
    5000000    2    1    2    0    0 -0.22616105227E+03 -0.96359586574E+03 -0.41216333971E+03  0.12286289460E+04  0.59998721175E+03 0.  0.
         23    2    4    4    0    0 -0.25907232609E+03 -0.93027163517E+03 -0.19648525220E+03  0.99001033147E+03  0.94816753460E+02 0.  0.
         23    2    4    4    0    0  0.32911273826E+02 -0.33324230567E+02 -0.21567808752E+03  0.23861861451E+03  0.90709147656E+02 0.  0.
          3    1    3    3  502    0  0.19691001936E+03  0.78452211343E+03 -0.62440935234E+03  0.10218295070E+04  0.00000000000E+00 0. -1.
         -3    1    3    3    0  502  0.29251032908E+02  0.17907375231E+03 -0.92197260754E+02  0.20352731164E+03  0.00000000000E+00 0.  1.
         15    1    5    5    0    0 -0.18123286164E+03 -0.77539787151E+03 -0.14711934186E+03  0.80977433138E+03  0.17770000000E+01 0. -1.
        -15    1    5    5    0    0 -0.77839464452E+02 -0.15487376366E+03 -0.49365910338E+02  0.18023600009E+03  0.17770000000E+01 0.  1.
          1    1    6    6  503    0 -0.14369436610E+02  0.23336196524E+02 -0.73228794039E+02  0.78188970150E+02  0.00000000000E+00 0. -1.
         -1    1    6    6    0  503  0.47280710435E+02 -0.56660427092E+02 -0.14244929348E+03  0.16042964436E+03  0.00000000000E+00 0.  1.
<mgrwt>
<rscale>  0 0.10305732E+04</rscale>
<asrwt>0</asrwt>
<pdfrwt beam="1">  1        2 0.10193968E+00 0.10305732E+04</pdfrwt>
<pdfrwt beam="2">  1       -2 0.27559659E+00 0.10305732E+04</pdfrwt>
<totfact> 0.19634466E+00</totfact>
</mgrwt>
</event>
<event>
12    1  0.7781383E-008  0.8115463E+03  0.7818608E-02  0.9543453E-01
         -1   -1    0    0    0  501 -0.00000000000E+00  0.00000000000E+00  0.19997510903E+04  0.19997510903E+04  0.00000000000E+00 0.  1.
          1   -1    0    0  501    0  0.00000000000E+00 -0.00000000000E+00 -0.86630545497E+03  0.86630545497E+03  0.00000000000E+00 0. -1.
         23    2    1    2    0    0 -0.45192254522E+03 -0.54394245637E+03 -0.57914126747E+03  0.91847951887E+03  0.89959080617E+02 0.  0.
    5000000    2    1    2    0    0  0.45192254522E+03  0.54394245637E+03  0.17125869028E+04  0.19475770264E+04  0.59999582615E+03 0.  0.
         23    2    4    4    0    0  0.57312363800E+03  0.35666858203E+03  0.13513089445E+04  0.15132291164E+04  0.90240309309E+02 0.  0.
         23    2    4    4    0    0 -0.12120109279E+03  0.18727387434E+03  0.36127795827E+03  0.43434790996E+03  0.91515762862E+02 0.  0.
          1    1    3    3  502    0 -0.12732624353E+03 -0.16025358954E+03 -0.22185395241E+03  0.30184824242E+03  0.00000000000E+00 0. -1.
         -1    1    3    3    0  502 -0.32459630169E+03 -0.38368886683E+03 -0.35728731506E+03  0.61663127645E+03  0.00000000000E+00 0.  1.
         15    1    5    5    0    0  0.23366742916E+03  0.11961811082E+03  0.44166515102E+03  0.51379005755E+03  0.17770000000E+01 0.  1.
        -15    1    5    5    0    0  0.33945620884E+03  0.23705047121E+03  0.90964379352E+03  0.99943905889E+03  0.17770000000E+01 0. -1.
          3    1    6    6  503    0 -0.76458691384E+02  0.41894115219E+02  0.15802784575E+03  0.18048226619E+03  0.00000000000E+00 0. -1.
         -3    1    6    6    0  503 -0.44742401402E+02  0.14537975912E+03  0.20325011252E+03  0.25386564377E+03  0.00000000000E+00 0.  1.
<mgrwt>
<rscale>  0 0.81154634E+03</rscale>
<asrwt>0</asrwt>
<pdfrwt beam="1">  1        1 0.13327776E+00 0.81154634E+03</pdfrwt>
<pdfrwt beam="2">  1       -1 0.30765401E+00 0.81154634E+03</pdfrwt>
<totfact> 0.59921262E-01</totfact>
</mgrwt>
</event>
<event>
12    1  0.7781383E-008  0.8406734E+03  0.7818608E-02  0.9502941E-01
          1   -1    0    0  501    0  0.00000000000E+00  0.00000000000E+00  0.56180651197E+03  0.56180651197E+03  0.00000000000E+00 0. -1.
         -1   -1    0    0    0  501 -0.00000000000E+00 -0.00000000000E+00 -0.13071149566E+04  0.13071149566E+04  0.00000000000E+00 0.  1.
         23    2    1    2    0    0 -0.72638811463E+03 -0.18199835007E+03 -0.32266827317E+03  0.82046133107E+03  0.90988399150E+02 0.  0.
    5000000    2    1    2    0    0  0.72638811463E+03  0.18199835007E+03 -0.42264017149E+03  0.10484601375E+04  0.59990070256E+03 0.  0.
         23    2    4    4    0    0  0.10671997718E+03  0.27785915002E+03 -0.22462451618E+03  0.38398672209E+03  0.91622970326E+02 0.  0.
         23    2    4    4    0    0  0.61966813744E+03 -0.95860799942E+02 -0.19801565530E+03  0.66447341544E+03  0.95586748864E+02 0.  0.
          3    1    3    3  502    0 -0.40244110413E+03 -0.70100361299E+02 -0.21246957475E+03  0.46045219420E+03  0.00000000000E+00 0. -1.
         -3    1    3    3    0  502 -0.32394701049E+03 -0.11189798878E+03 -0.11019869842E+03  0.36000913687E+03  0.00000000000E+00 0.  1.
         15    1    5    5    0    0  0.79864358120E+02  0.22568573778E+03 -0.12945171369E+03  0.27216405318E+03  0.17770000000E+01 0.  1.
        -15    1    5    5    0    0  0.26855619064E+02  0.52173412241E+02 -0.95172802490E+02  0.11182266891E+03  0.17770000000E+01 0. -1.
          3    1    6    6  503    0  0.25124201008E+03 -0.78298475168E+02 -0.11031162257E+03  0.28534514700E+03  0.00000000000E+00 0. -1.
         -3    1    6    6    0  503  0.36842612736E+03 -0.17562324774E+02 -0.87704032736E+02  0.37912826844E+03  0.00000000000E+00 0.  1.
<mgrwt>
<rscale>  0 0.84067343E+03</rscale>
<asrwt>0</asrwt>
<pdfrwt beam="1">  1        1 0.86431771E-01 0.84067343E+03</pdfrwt>
<pdfrwt beam="2">  1       -1 0.20109461E+00 0.84067343E+03</pdfrwt>
<totfact> 0.56944166E+00</totfact>
</mgrwt>
</event>
<event>
12    1  0.7781383E-008  0.9614888E+03  0.7818608E-02  0.9351822E-01
         -1   -1    0    0    0  501 -0.00000000000E+00  0.00000000000E+00  0.15518599011E+04  0.15518599011E+04  0.00000000000E+00 0.  1.
          1   -1    0    0  501    0  0.00000000000E+00 -0.00000000000E+00 -0.61825482965E+03  0.61825482965E+03  0.00000000000E+00 0. -1.
         23    2    1    2    0    0 -0.85571381613E+03  0.22226525520E+03  0.44807022957E+03  0.99650309443E+03  0.10297333535E+03 0.  0.
    5000000    2    1    2    0    0  0.85571381613E+03 -0.22226525520E+03  0.48553484184E+03  0.11736116363E+04  0.59997684237E+03 0.  0.
         23    2    4    4    0    0 -0.35176365382E+02 -0.11968065379E+03  0.17637785038E+02  0.15796662410E+03  0.95297047673E+02 0.  0.
         23    2    4    4    0    0  0.89089018151E+03 -0.10258460141E+03  0.46789705680E+03  0.10156450122E+04  0.91641797471E+02 0.  0.
          2    1    3    3  502    0 -0.78657531039E+03  0.20417096470E+03  0.37741918876E+03  0.89600878667E+03  0.00000000000E+00 0.  1.
         -2    1    3    3    0  502 -0.69138505734E+02  0.18094290505E+02  0.70651040809E+02  0.10049430776E+03  0.00000000000E+00 0. -1.
         15    1    5    5    0    0  0.97125977647E+01 -0.70545866768E+02 -0.28757246721E+02  0.76819208804E+02  0.17770000000E+01 0.  1.
        -15    1    5    5    0    0 -0.44888963147E+02 -0.49134787020E+02  0.46395031759E+02  0.81147415294E+02  0.17770000000E+01 0. -1.
          4    1    6    6  503    0  0.35089575501E+03  0.26520170723E+01  0.16772960467E+03  0.38893197909E+03  0.00000000000E+00 0. -1.
         -4    1    6    6    0  503  0.53999442650E+03 -0.10523661849E+03  0.30016745213E+03  0.62671303309E+03  0.00000000000E+00 0.  1.
<mgrwt>
<rscale>  0 0.96148883E+03</rscale>
<asrwt>0</asrwt>
<pdfrwt beam="1">  1        1 0.95116128E-01 0.96148883E+03</pdfrwt>
<pdfrwt beam="2">  1       -1 0.23874768E+00 0.96148883E+03</pdfrwt>
<totfact> 0.27413142E+00</totfact>
</mgrwt>
</event>
<event>
12    1  0.7781383E-008  0.7101791E+03  0.7818608E-02  0.9699981E-01
         -2   -1    0    0    0  501 -0.00000000000E+00  0.00000000000E+00  0.33867932286E+03  0.33867932286E+03  0.00000000000E+00 0.  1.
          2   -1    0    0  501    0  0.00000000000E+00 -0.00000000000E+00 -0.17792124223E+04  0.17792124223E+04  0.00000000000E+00 0. -1.
         23    2    1    2    0    0 -0.25535492101E+03 -0.59642378858E+03 -0.47640769422E+03  0.81005376855E+03  0.91078787634E+02 0.  0.
    5000000    2    1    2    0    0  0.25535492101E+03  0.59642378858E+03 -0.96412540524E+03  0.13078379766E+04  0.59997908697E+03 0.  0.
         23    2    4    4    0    0  0.32860055599E+03  0.28813338019E+03 -0.22805595977E+03  0.50118785715E+03  0.90446543301E+02 0.  0.
         23    2    4    4    0    0 -0.73245634983E+02  0.30829040839E+03 -0.73606944548E+03  0.80665011948E+03  0.92077618001E+02 0.  0.
          1    1    3    3  502    0 -0.21897099025E+03 -0.55352687798E+03 -0.45732061866E+03  0.75065467925E+03  0.00000000000E+00 0. -1.
         -1    1    3    3    0  502 -0.36383930758E+02 -0.42896910597E+02 -0.19087075553E+02  0.59399089298E+02  0.00000000000E+00 0.  1.
         15    1    5    5    0    0  0.91184212472E+02  0.10459740739E+03 -0.31042553163E+02  0.14220399457E+03  0.17770000000E+01 0. -1.
        -15    1    5    5    0    0  0.23741634352E+03  0.18353597280E+03 -0.19701340661E+03  0.35898386258E+03  0.17770000000E+01 0.  1.
          1    1    6    6  503    0 -0.93075553984E+02  0.28254862620E+03 -0.66414628834E+03  0.72772733715E+03  0.00000000000E+00 0. -1.
         -1    1    6    6    0  503  0.19829919001E+02  0.25741782198E+02 -0.71923157134E+02  0.78922782328E+02  0.00000000000E+00 0.  1.
<mgrwt>
<rscale>  0 0.71017911E+03</rscale>
<asrwt>0</asrwt>
<pdfrwt beam="1">  1        2 0.27372499E+00 0.71017911E+03</pdfrwt>
<pdfrwt beam="2">  1       -2 0.52104512E-01 0.71017911E+03</pdfrwt>
<totfact> 0.31836600E+01</totfact>
</mgrwt>
</event>
<event>
12    1  0.7781383E-008  0.1116173E+04  0.7818608E-02  0.9189570E-01
          1   -1    0    0  501    0  0.00000000000E+00  0.00000000000E+00  0.33468593352E+04  0.33468593352E+04  0.00000000000E+00 0. -1.
         -1   -1    0    0    0  501 -0.00000000000E+00 -0.00000000000E+00 -0.41063550705E+03  0.41063550705E+03  0.00000000000E+00 0.  1.
         23    2    1    2    0    0 -0.62672028490E+03  0.84430494743E+03  0.89324718355E+03  0.13827524400E+04  0.92111994608E+02 0.  0.
    5000000    2    1    2    0    0  0.62672028490E+03 -0.84430494743E+03  0.20429766446E+04  0.23747424023E+04  0.60001562232E+03 0.  0.
         23    2    4    4    0    0  0.61534380139E+03 -0.43420323426E+03  0.15583380227E+04  0.17331406811E+04  0.90436634848E+02 0.  0.
         23    2    4    4    0    0  0.11376483506E+02 -0.41010171317E+03  0.48463862187E+03  0.64160172115E+03  0.92007256539E+02 0.  0.
          2    1    3    3  502    0 -0.27492031923E+03  0.30164483156E+03  0.32178091231E+03  0.51972467891E+03  0.00000000000E+00 0. -1.
         -2    1    3    3    0  502 -0.35179996566E+03  0.54266011587E+03  0.57146627123E+03  0.86302776106E+03  0.00000000000E+00 0.  1.
         15    1    5    5    0    0  0.18479711824E+03 -0.17865771495E+03  0.49140679166E+03  0.55457402268E+03  0.17770000000E+01 0. -1.
        -15    1    5    5    0    0  0.43054668316E+03 -0.25554551931E+03  0.10669312311E+04  0.11785666585E+04  0.17770000000E+01 0.  1.
          4    1    6    6  503    0  0.50449894506E+02 -0.23999359025E+03  0.26511468895E+03  0.36114804930E+03  0.00000000000E+00 0. -1.
         -4    1    6    6    0  503 -0.39073411000E+02 -0.17010812292E+03  0.21952393292E+03  0.28045367185E+03  0.00000000000E+00 0.  1.
<mgrwt>
<rscale>  0 0.11161729E+04</rscale>
<asrwt>0</asrwt>
<pdfrwt beam="1">  1        1 0.51490142E+00 0.11161729E+04</pdfrwt>
<pdfrwt beam="2">  1       -1 0.63174696E-01 0.11161729E+04</pdfrwt>
<totfact> 0.84994546E-01</totfact>
</mgrwt>
</event>
<event>
12    1  0.7781383E-008  0.7120281E+03  0.7818608E-02  0.9696881E-01
          2   -1    0    0  501    0  0.00000000000E+00  0.00000000000E+00  0.78832484022E+03  0.78832484022E+03  0.00000000000E+00 0. -1.
         -2   -1    0    0    0  501 -0.00000000000E+00 -0.00000000000E+00 -0.81833801517E+03  0.81833801517E+03  0.00000000000E+00 0.  1.
         23    2    1    2    0    0 -0.59812647137E+03 -0.30576428333E+03  0.13413300515E+03  0.69105904455E+03  0.91235230479E+02 0.  0.
    5000000    2    1    2    0    0  0.59812647137E+03  0.30576428333E+03 -0.16414618011E+03  0.91560381084E+03  0.60011606983E+03 0.  0.
         23    2    4    4    0    0  0.58888030922E+01  0.62858136200E+02  0.15826569770E+03  0.19306418620E+03  0.90774036142E+02 0.  0.
         23    2    4    4    0    0  0.59223766827E+03  0.24290614713E+03 -0.32241187781E+03  0.72253962464E+03  0.91461676082E+02 0.  0.
          2    1    3    3  502    0 -0.29107260182E+03 -0.10341900464E+03  0.40057301952E+02  0.31148569388E+03  0.00000000000E+00 0.  1.
         -2    1    3    3    0  502 -0.30705386954E+03 -0.20234527868E+03  0.94075703202E+02  0.37957335067E+03  0.00000000000E+00 0. -1.
         15    1    5    5    0    0 -0.25162968069E+02 -0.10620748481E+02  0.63717003359E+02  0.69346878130E+02  0.17770000000E+01 0.  1.
        -15    1    5    5    0    0  0.31051771161E+02  0.73478884681E+02  0.94548694336E+02  0.12371730807E+03  0.17770000000E+01 0. -1.
          1    1    6    6  503    0  0.43213058110E+03  0.18384922667E+03 -0.19021786814E+03  0.50667565032E+03  0.00000000000E+00 0. -1.
         -1    1    6    6    0  503  0.16010708717E+03  0.59056920457E+02 -0.13219400967E+03  0.21586397432E+03  0.00000000000E+00 0.  1.
<mgrwt>
<rscale>  0 0.71202811E+03</rscale>
<asrwt>0</asrwt>
<pdfrwt beam="1">  1        2 0.12128074E+00 0.71202811E+03</pdfrwt>
<pdfrwt beam="2">  1       -2 0.12589816E+00 0.71202811E+03</pdfrwt>
<totfact> 0.16852039E+01</totfact>
</mgrwt>
</event>
<event>
12    1  0.7781383E-008  0.1290358E+04  0.7818608E-02  0.9037247E-01
         -1   -1    0    0    0  501 -0.00000000000E+00  0.00000000000E+00  0.10870696464E+04  0.10870696464E+04  0.00000000000E+00 0.  1.
          1   -1    0    0  501    0  0.00000000000E+00 -0.00000000000E+00 -0.24460733390E+04  0.24460733390E+04  0.00000000000E+00 0. -1.
         23    2    1    2    0    0  0.89702554740E+03 -0.84155575622E+03 -0.17211694775E+04  0.21174850102E+04  0.91910143627E+02 0.  0.
    5000000    2    1    2    0    0 -0.89702554740E+03  0.84155575622E+03  0.36216578491E+03  0.14156579752E+04  0.60004376804E+03 0.  0.
         23    2    4    4    0    0 -0.60653317607E+03  0.19469561018E+03  0.85944475197E+02  0.64926955072E+03  0.91518426463E+02 0.  0.
         23    2    4    4    0    0 -0.29049237133E+03  0.64686014604E+03  0.27622130972E+03  0.76638842451E+03  0.90769702814E+02 0.  0.
          3    1    3    3  502    0  0.15797133041E+03 -0.10822101332E+03 -0.29556062378E+03  0.35216872560E+03  0.00000000000E+00 0. -1.
         -3    1    3    3    0  502  0.73905421699E+03 -0.73333474289E+03 -0.14256088537E+04  0.17653162846E+04  0.00000000000E+00 0.  1.
         15    1    5    5    0    0 -0.59339372944E+03  0.18374547017E+03  0.97150023471E+02  0.62874462283E+03  0.17770000000E+01 0.  1.
        -15    1    5    5    0    0 -0.13139446630E+02  0.10950140007E+02 -0.11205548274E+02  0.20524927894E+02  0.17770000000E+01 0. -1.
          3    1    6    6  503    0 -0.10852376668E+03  0.20808499901E+03  0.48636554852E+02  0.23967121066E+03  0.00000000000E+00 0. -1.
         -3    1    6    6    0  503 -0.18196860465E+03  0.43877514702E+03  0.22758475487E+03  0.52671721386E+03  0.00000000000E+00 0.  1.
<mgrwt>
<rscale>  0 0.12903579E+04</rscale>
<asrwt>0</asrwt>
<pdfrwt beam="1">  1        1 0.37631897E+00 0.12903579E+04</pdfrwt>
<pdfrwt beam="2">  1       -1 0.16724149E+00 0.12903579E+04</pdfrwt>
<totfact> 0.37054087E-01</totfact>
</mgrwt>
</event>
<event>
12    1  0.7781383E-008  0.5311391E+03  0.7818608E-02  0.1005956E+00
         -2   -1    0    0    0  501 -0.00000000000E+00  0.00000000000E+00  0.96574017326E+03  0.96574017326E+03  0.00000000000E+00 0.  1.
          2   -1    0    0  501    0  0.00000000000E+00 -0.00000000000E+00 -0.62823791690E+03  0.62823791690E+03  0.00000000000E+00 0. -1.
         23    2    1    2    0    0 -0.33668563577E+03 -0.24976908071E+03  0.66562990160E+03  0.79172157974E+03  0.89543748583E+02 0.  0.
    5000000    2    1    2    0    0  0.33668563577E+03  0.24976908071E+03 -0.32812764525E+03  0.80225651041E+03  0.60017159706E+03 0.  0.
         23    2    4    4    0    0  0.44302243166E+03  0.25083666344E+03 -0.86582580185E+02  0.52426359272E+03  0.90376240140E+02 0.  0.
         23    2    4    4    0    0 -0.10633679588E+03 -0.10675827268E+01 -0.24154506506E+03  0.27799291770E+03  0.87334929689E+02 0.  0.
          2    1    3    3  502    0 -0.69287106625E+02 -0.85949881631E+02  0.22816348930E+03  0.25346925484E+03  0.00000000000E+00 0.  1.
         -2    1    3    3    0  502 -0.26739852915E+03 -0.16381919908E+03  0.43746641230E+03  0.53825232490E+03  0.00000000000E+00 0. -1.
         15    1    5    5    0    0  0.30102092300E+03  0.12047862956E+03 -0.50675556453E+02  0.32817657749E+03  0.17770000000E+01 0. -1.
        -15    1    5    5    0    0  0.14200150866E+03  0.13035803388E+03 -0.35907023732E+02  0.19608701523E+03  0.17770000000E+01 0.  1.
          3    1    6    6  503    0  0.66883043351E+01 -0.47305763805E+01 -0.82152001399E+02  0.82559451922E+02  0.00000000000E+00 0. -1.
         -3    1    6    6    0  503 -0.11302510022E+03  0.36629936537E+01 -0.15939306366E+03  0.19543346578E+03  0.00000000000E+00 0.  1.
<mgrwt>
<rscale>  0 0.53113905E+03</rscale>
<asrwt>0</asrwt>
<pdfrwt beam="1">  1        2 0.96651986E-01 0.53113905E+03</pdfrwt>
<pdfrwt beam="2">  1       -2 0.14857541E+00 0.53113905E+03</pdfrwt>
<totfact> 0.14996979E+01</totfact>
</mgrwt>
</event>
<event>
12    1  0.7781383E-008  0.1453211E+04  0.7818608E-02  0.8916177E-01
          2   -1    0    0  501    0  0.00000000000E+00  0.00000000000E+00  0.20883283969E+04  0.20883283969E+04  0.00000000000E+00 0. -1.
         -2   -1    0    0    0  501 -0.00000000000E+00 -0.00000000000E+00 -0.10375247139E+04  0.10375247139E+04  0.00000000000E+00 0.  1.
         23    2    1    2    0    0 -0.14039220881E+04  0.11943629224E+03  0.54054612450E+03  0.15118077427E+04  0.90057097644E+02 0.  0.
    5000000    2    1    2    0    0  0.14039220881E+04 -0.11943629224E+03  0.51025755853E+03  0.16140453681E+04  0.59959771249E+03 0.  0.
         23    2    4    4    0    0  0.66111738464E+02  0.10105732270E+03 -0.22269440123E+02  0.15451446022E+03  0.93784039255E+02 0.  0.
         23    2    4    4    0    0  0.13378103496E+04 -0.22049361495E+03  0.53252699866E+03  0.14595309079E+04  0.91057678815E+02 0.  0.
          1    1    3    3  502    0 -0.16156699452E+03  0.61090214880E+00  0.90025728172E+02  0.18495647772E+03  0.00000000000E+00 0. -1.
         -1    1    3    3    0  502 -0.12423550936E+04  0.11882539009E+03  0.45052039633E+03  0.13268512650E+04  0.00000000000E+00 0.  1.
         15    1    5    5    0    0  0.36275475139E+01  0.66283495452E+02  0.22516480655E+02  0.70119972193E+02  0.17770000000E+01 0. -1.
        -15    1    5    5    0    0  0.62484190950E+02  0.34773827252E+02 -0.44785920778E+02  0.84394488027E+02  0.17770000000E+01 0.  1.
          4    1    6    6  503    0  0.84116234316E+03 -0.18294326471E+03  0.33340590163E+03  0.92313694591E+03  0.00000000000E+00 0. -1.
         -4    1    6    6    0  503  0.49664800647E+03 -0.37550350238E+02  0.19912109703E+03  0.53639396194E+03  0.00000000000E+00 0.  1.
<mgrwt>
<rscale>  0 0.14532111E+04</rscale>
<asrwt>0</asrwt>
<pdfrwt beam="1">  1        2 0.32128129E+00 0.14532111E+04</pdfrwt>
<pdfrwt beam="2">  1       -2 0.15961919E+00 0.14532111E+04</pdfrwt>
<totfact> 0.14326852E+00</totfact>
</mgrwt>
</event>
<event>
12    1  0.7781383E-008  0.9450479E+03  0.7818608E-02  0.9370958E-01
          1   -1    0    0  501    0  0.00000000000E+00  0.00000000000E+00  0.10090878659E+04  0.10090878659E+04  0.00000000000E+00 0. -1.
         -1   -1    0    0    0  501 -0.00000000000E+00 -0.00000000000E+00 -0.10355035942E+04  0.10355035942E+04  0.00000000000E+00 0.  1.
         23    2    1    2    0    0  0.82416312592E+03  0.43021923935E+03 -0.73021618073E+02  0.93709687449E+03  0.92113752787E+02 0.  0.
    5000000    2    1    2    0    0 -0.82416312592E+03 -0.43021923935E+03  0.46605889716E+02  0.11074945856E+04  0.60003224594E+03 0.  0.
         23    2    4    4    0    0 -0.33843712278E+03 -0.28437527975E+03 -0.24845304690E+03  0.51411166293E+03  0.84692972740E+02 0.  0.
         23    2    4    4    0    0 -0.48572600313E+03 -0.14584395959E+03  0.29505893661E+03  0.59338292268E+03  0.88562442279E+02 0.  0.
          3    1    3    3  502    0  0.51417038015E+03  0.31789894832E+03 -0.50501573584E+02  0.60661464712E+03  0.00000000000E+00 0. -1.
         -3    1    3    3    0  502  0.30999274577E+03  0.11232029102E+03 -0.22520044489E+02  0.33048222737E+03  0.00000000000E+00 0.  1.
         15    1    5    5    0    0 -0.12873629837E+03 -0.15790674694E+03 -0.13348997740E+03  0.24357813334E+03  0.17770000000E+01 0.  1.
        -15    1    5    5    0    0 -0.20970082442E+03 -0.12646853281E+03 -0.11496306950E+03  0.27053352959E+03  0.17770000000E+01 0. -1.
          2    1    6    6  503    0 -0.24935229442E+03 -0.69870261241E+02  0.99815077987E+02  0.27752742195E+03  0.00000000000E+00 0. -1.
         -2    1    6    6    0  503 -0.23637370871E+03 -0.75973698353E+02  0.19524385863E+03  0.31585550073E+03  0.00000000000E+00 0.  1.
<mgrwt>
<rscale>  0 0.94504793E+03</rscale>
<asrwt>0</asrwt>
<pdfrwt beam="1">  1        1 0.15524429E+00 0.94504793E+03</pdfrwt>
<pdfrwt beam="2">  1       -1 0.15930825E+00 0.94504793E+03</pdfrwt>
<totfact> 0.44446750E+00</totfact>
</mgrwt>
</event>
<event>
12    1  0.7781383E-008  0.7281662E+03  0.7818608E-02  0.9670241E-01
         -2   -1    0    0    0  501 -0.00000000000E+00  0.00000000000E+00  0.27869267621E+03  0.27869267621E+03  0.00000000000E+00 0.  1.
          2   -1    0    0  501    0  0.00000000000E+00 -0.00000000000E+00 -0.19656004647E+04  0.19656004647E+04  0.00000000000E+00 0. -1.
         23    2    1    2    0    0 -0.55262697058E+03 -0.25460182996E+03 -0.83548339188E+03  0.10373931602E+04  0.89069693787E+02 0.  0.
    5000000    2    1    2    0    0  0.55262697058E+03  0.25460182996E+03 -0.85142439661E+03  0.12068999807E+04  0.60121992633E+03 0.  0.
         23    2    4    4    0    0  0.17315912824E+03 -0.18053909828E+03 -0.21641065862E+03  0.34380021313E+03  0.93736672038E+02 0.  0.
         23    2    4    4    0    0  0.37946784233E+03  0.43514092824E+03 -0.63501373799E+03  0.86309976756E+03  0.91407278284E+02 0.  0.
          1    1    3    3  502    0 -0.45896400617E+03 -0.17239851506E+03 -0.67122693914E+03  0.83121285527E+03  0.00000000000E+00 0. -1.
         -1    1    3    3    0  502 -0.93662964411E+02 -0.82203314898E+02 -0.16425645274E+03  0.20618030495E+03  0.00000000000E+00 0.  1.
         15    1    5    5    0    0  0.85879709114E+02 -0.41531876273E+02 -0.41853168122E+02  0.10418765088E+03  0.17770000000E+01 0. -1.
        -15    1    5    5    0    0  0.87279419129E+02 -0.13900722200E+03 -0.17455749050E+03  0.23961256225E+03  0.17770000000E+01 0.  1.
          3    1    6    6  503    0  0.24569562197E+03  0.22730354631E+03 -0.40557460058E+03  0.52585549104E+03  0.00000000000E+00 0. -1.
         -3    1    6    6    0  503  0.13377222037E+03  0.20783738192E+03 -0.22943913741E+03  0.33724427652E+03  0.00000000000E+00 0.  1.
<mgrwt>
<rscale>  0 0.72816623E+03</rscale>
<asrwt>0</asrwt>
<pdfrwt beam="1">  1        2 0.30240007E+00 0.72816623E+03</pdfrwt>
<pdfrwt beam="2">  1       -2 0.42875796E-01 0.72816623E+03</pdfrwt>
<totfact> 0.37222435E+01</totfact>
</mgrwt>
</event>
<event>
12    1  0.7781383E-008  0.5157913E+03  0.7818608E-02  0.1009737E+00
         -2   -1    0    0    0  501 -0.00000000000E+00  0.00000000000E+00  0.22155882011E+03  0.22155882011E+03  0.00000000000E+00 0.  1.
          2   -1    0    0  501    0  0.00000000000E+00 -0.00000000000E+00 -0.15551954688E+04  0.15551954688E+04  0.00000000000E+00 0. -1.
         23    2    1    2    0    0  0.25382057242E+03 -0.26509733995E+03 -0.82884597667E+03  0.91107197331E+03  0.91460400617E+02 0.  0.
    5000000    2    1    2    0    0 -0.25382057242E+03  0.26509733995E+03 -0.50479067201E+03  0.86568231560E+03  0.59990896505E+03 0.  0.
         23    2    4    4    0    0  0.13692536226E+03 -0.46792670470E+02 -0.23715011187E+03  0.29228739680E+03  0.90849534567E+02 0.  0.
         23    2    4    4    0    0 -0.39074593467E+03  0.31189001042E+03 -0.26764056015E+03  0.57339491879E+03  0.84808604515E+02 0.  0.
          4    1    3    3  502    0  0.19961519542E+03 -0.19841681697E+03 -0.71525140059E+03  0.76863517064E+03  0.00000000000E+00 0. -1.
         -4    1    3    3    0  502  0.54205376996E+02 -0.66680522985E+02 -0.11359457608E+03  0.14243680267E+03  0.00000000000E+00 0.  1.
         15    1    5    5    0    0  0.10144431511E+03 -0.20283999081E+00 -0.19596009840E+03  0.22066832149E+03  0.17770000000E+01 0. -1.
        -15    1    5    5    0    0  0.35481047148E+02 -0.46589830479E+02 -0.41190013462E+02  0.71619075314E+02  0.17770000000E+01 0.  1.
          1    1    6    6  503    0 -0.20053552554E+03  0.11868974833E+03 -0.15462874110E+03  0.27966372832E+03  0.00000000000E+00 0. -1.
         -1    1    6    6    0  503 -0.19021040913E+03  0.19320026209E+03 -0.11301181905E+03  0.29373119048E+03  0.00000000000E+00 0.  1.
<mgrwt>
<rscale>  0 0.51579131E+03</rscale>
<asrwt>0</asrwt>
<pdfrwt beam="1">  1        2 0.23926084E+00 0.51579131E+03</pdfrwt>
<pdfrwt beam="2">  1       -2 0.34085972E-01 0.51579131E+03</pdfrwt>
<totfact> 0.99592566E+01</totfact>
</mgrwt>
</event>
<event>
12    1  0.7781383E-008  0.7057672E+03  0.7818608E-02  0.9707420E-01
         -1   -1    0    0    0  501 -0.00000000000E+00  0.00000000000E+00  0.61496258984E+03  0.61496258984E+03  0.00000000000E+00 0.  1.
          1   -1    0    0  501    0  0.00000000000E+00 -0.00000000000E+00 -0.10369593632E+04  0.10369593632E+04  0.00000000000E+00 0. -1.
         23    2    1    2    0    0  0.65157237716E+03 -0.87409074427E+01 -0.39193805831E+03  0.76583418943E+03  0.90904334439E+02 0.  0.
    5000000    2    1    2    0    0 -0.65157237716E+03  0.87409074427E+01 -0.30058715047E+02  0.88608776360E+03  0.59968744552E+03 0.  0.
         23    2    4    4    0    0 -0.44226075392E+03 -0.17023262967E+03 -0.22907202775E+03  0.53417002193E+03  0.91048864741E+02 0.  0.
         23    2    4    4    0    0 -0.20931162323E+03  0.17897353711E+03  0.19901331271E+03  0.35191774166E+03  0.91634685886E+02 0.  0.
          1    1    3    3  502    0  0.33223984367E+03  0.40989467386E+02 -0.19885314927E+03  0.38936618386E+03  0.00000000000E+00 0. -1.
         -1    1    3    3    0  502  0.31933253349E+03 -0.49730374828E+02 -0.19308490904E+03  0.37646800558E+03  0.00000000000E+00 0.  1.
         15    1    5    5    0    0 -0.18542293861E+03 -0.52249147357E+02 -0.13884590504E+03  0.23747206707E+03  0.17770000000E+01 0.  1.
        -15    1    5    5    0    0 -0.25683781531E+03 -0.11798348231E+03 -0.90226122713E+02  0.29669795486E+03  0.17770000000E+01 0. -1.
          4    1    6    6  503    0 -0.49025357876E+02  0.21286616392E+02  0.83480042557E+02  0.99123777458E+02  0.00000000000E+00 0. -1.
         -4    1    6    6    0  503 -0.16028626536E+03  0.15768692072E+03  0.11553327015E+03  0.25279396421E+03  0.00000000000E+00 0.  1.
<mgrwt>
<rscale>  0 0.70576724E+03</rscale>
<asrwt>0</asrwt>
<pdfrwt beam="1">  1        1 0.15953221E+00 0.70576724E+03</pdfrwt>
<pdfrwt beam="2">  1       -1 0.94609630E-01 0.70576724E+03</pdfrwt>
<totfact> 0.15867114E+01</totfact>
</mgrwt>
</event>
<event>
12    1  0.7781383E-008  0.5759143E+03  0.7818608E-02  0.9956676E-01
         -2   -1    0    0    0  501 -0.00000000000E+00  0.00000000000E+00  0.59966065083E+03  0.59966065083E+03  0.00000000000E+00 0.  1.
          2   -1    0    0  501    0  0.00000000000E+00 -0.00000000000E+00 -0.82611457787E+03  0.82611457787E+03  0.00000000000E+00 0. -1.
         23    2    1    2    0    0  0.30346144245E+03  0.44252782757E+03  0.10609906418E+03  0.55512501897E+03  0.94800052961E+02 0.  0.
    5000000    2    1    2    0    0 -0.30346144245E+03 -0.44252782757E+03 -0.33255299122E+03  0.87065020973E+03  0.59960034232E+03 0.  0.
         23    2    4    4    0    0 -0.91772492446E+02 -0.34830673977E+03 -0.46132552490E+03  0.59181146786E+03  0.87634458007E+02 0.  0.
         23    2    4    4    0    0 -0.21168895001E+03 -0.94221087797E+02  0.12877253368E+03  0.27883874187E+03  0.86480365381E+02 0.  0.
          2    1    3    3  502    0  0.20215809557E+03  0.31645112562E+03  0.11619097944E+03  0.39307703344E+03  0.00000000000E+00 0. -1.
         -2    1    3    3    0  502  0.10130334688E+03  0.12607670194E+03 -0.10091915253E+02  0.16204798554E+03  0.00000000000E+00 0.  1.
         15    1    5    5    0    0 -0.23985896980E+02 -0.24477077489E+03 -0.32685462177E+03  0.40905397809E+03  0.17770000000E+01 0.  1.
        -15    1    5    5    0    0 -0.67786595466E+02 -0.10353596488E+03 -0.13447090314E+03  0.18275748977E+03  0.17770000000E+01 0. -1.
          2    1    6    6  503    0 -0.12519889223E+03 -0.12405124278E+02  0.46540195347E+02  0.13414409978E+03  0.00000000000E+00 0. -1.
         -2    1    6    6    0  503 -0.86490057778E+02 -0.81815963518E+02  0.82232338332E+02  0.14469464209E+03  0.00000000000E+00 0.  1.
<mgrwt>
<rscale>  0 0.57591428E+03</rscale>
<asrwt>0</asrwt>
<pdfrwt beam="1">  1        2 0.12709455E+00 0.57591428E+03</pdfrwt>
<pdfrwt beam="2">  1       -2 0.92255486E-01 0.57591428E+03</pdfrwt>
<totfact> 0.33981497E+01</totfact>
</mgrwt>
</event>
<event>
12    1  0.7781383E-008  0.8135433E+03  0.7818608E-02  0.9540618E-01
         -2   -1    0    0    0  501 -0.00000000000E+00  0.00000000000E+00  0.58190280096E+03  0.58190280096E+03  0.00000000000E+00 0. -1.
          2   -1    0    0  501    0  0.00000000000E+00 -0.00000000000E+00 -0.13425698801E+04  0.13425698801E+04  0.00000000000E+00 0.  1.
         23    2    1    2    0    0 -0.39709779050E+03 -0.66901555437E+03 -0.37851012521E+03  0.87025777000E+03  0.93862687698E+02 0.  0.
    5000000    2    1    2    0    0  0.39709779050E+03  0.66901555437E+03 -0.38215695389E+03  0.10542149110E+04  0.60004722650E+03 0.  0.
         23    2    4    4    0    0 -0.26127439027E+02  0.11701534784E+03  0.11954311399E+03  0.19189603431E+03  0.90323292568E+02 0.  0.
         23    2    4    4    0    0  0.42322522952E+03  0.55200020653E+03 -0.50170006788E+03  0.86231887673E+03  0.89816836597E+02 0.  0.
          4    1    3    3  502    0 -0.10677106825E+03 -0.17598274278E+03 -0.14744028025E+03  0.25319680687E+03  0.00000000000E+00 0. -1.
         -4    1    3    3    0  502 -0.29032672225E+03 -0.49303281160E+03 -0.23106984496E+03  0.61706096313E+03  0.00000000000E+00 0.  1.
         15    1    5    5    0    0 -0.57773372960E+02  0.63136924770E+02  0.84277048539E+02  0.12012415466E+03  0.17770000000E+01 0.  1.
        -15    1    5    5    0    0  0.31645933933E+02  0.53878423075E+02  0.35266065446E+02  0.71771879651E+02  0.17770000000E+01 0. -1.
          1    1    6    6  503    0  0.18046228945E+03  0.30672521163E+03 -0.24060877394E+03  0.42958069726E+03  0.00000000000E+00 0. -1.
         -1    1    6    6    0  503  0.24276294008E+03  0.24527499490E+03 -0.26109129394E+03  0.43273817947E+03  0.00000000000E+00 0.  1.
<mgrwt>
<rscale>  0 0.81354333E+03</rscale>
<asrwt>0</asrwt>
<pdfrwt beam="1">  1        2 0.20654921E+00 0.81354333E+03</pdfrwt>
<pdfrwt beam="2">  1       -2 0.89523508E-01 0.81354333E+03</pdfrwt>
<totfact> 0.16940398E+01</totfact>
</mgrwt>
</event>
<event>
12    1  0.8511954E-008  0.1027396E+04  0.7818608E-02  0.9278998E-01
          2   -1    0    0  501    0  0.00000000000E+00  0.00000000000E+00  0.12153347447E+04  0.12153347447E+04  0.00000000000E+00 0.  1.
         -2   -1    0    0    0  501 -0.00000000000E+00 -0.00000000000E+00 -0.10760619382E+04  0.10760619382E+04  0.00000000000E+00 0. -1.
         23    2    1    2    0    0  0.25659089445E+03 -0.97904534771E+03  0.38986473612E+03  0.10884397015E+04  0.91311507052E+02 0.  0.
    5000000    2    1    2    0    0 -0.25659089445E+03  0.97904534771E+03 -0.25059192960E+03  0.12029569813E+04  0.59995041778E+03 0.  0.
         23    2    4    4    0    0 -0.17811809999E+03  0.30985156442E+03 -0.35851682418E+03  0.51450370846E+03  0.91900507521E+02 0.  0.
         23    2    4    4    0    0 -0.78472794455E+02  0.66919378328E+03  0.10792489458E+03  0.68845327288E+03  0.91333602874E+02 0.  0.
          1    1    3    3  502    0  0.17727748790E+03 -0.50717670924E+03  0.18973119459E+03  0.56978368554E+03  0.00000000000E+00 0. -1.
         -1    1    3    3    0  502  0.79313406546E+02 -0.47186863847E+03  0.20013354152E+03  0.51865601594E+03  0.00000000000E+00 0.  1.
         15    1    5    5    0    0 -0.18477348705E+02  0.62510332599E+02 -0.11605475199E+03  0.13311956011E+03  0.17770000000E+01 0. -1.
        -15    1    5    5    0    0 -0.15964075129E+03  0.24734123183E+03 -0.24246207219E+03  0.38138414835E+03  0.17770000000E+01 0.  1.
          4    1    6    6  503    0  0.15578702936E+02  0.21743159973E+03  0.47024572502E+02  0.22300337882E+03  0.00000000000E+00 0. -1.
         -4    1    6    6    0  503 -0.94051497392E+02  0.45176218355E+03  0.60900322073E+02  0.46544989406E+03  0.00000000000E+00 0.  1.
<mgrwt>
<rscale>  0 0.10273956E+04</rscale>
<asrwt>0</asrwt>
<pdfrwt beam="1">  1        2 0.18697458E+00 0.10273956E+04</pdfrwt>
<pdfrwt beam="2">  1       -2 0.16554799E+00 0.10273956E+04</pdfrwt>
<totfact> 0.42049927E+00</totfact>
</mgrwt>
</event>
<event>
12    1  0.7781383E-008  0.1279710E+04  0.7818608E-02  0.9045812E-01
          2   -1    0    0  501    0  0.00000000000E+00  0.00000000000E+00  0.96412688265E+03  0.96412688265E+03  0.00000000000E+00 0. -1.
         -2   -1    0    0    0  501 -0.00000000000E+00 -0.00000000000E+00 -0.17289929066E+04  0.17289929066E+04  0.00000000000E+00 0.  1.
         23    2    1    2    0    0 -0.10020945499E+04  0.68965142749E+03 -0.27078920118E+03  0.12494896128E+04  0.89916197546E+02 0.  0.
    5000000    2    1    2    0    0  0.10020945499E+04 -0.68965142749E+03 -0.49407682273E+03  0.14436301764E+04  0.60011965575E+03 0.  0.
         23    2    4    4    0    0  0.11791673572E+03  0.83537151563E+02 -0.11667952571E+03  0.20685635419E+03  0.91063863817E+02 0.  0.
         23    2    4    4    0    0  0.88417781416E+03 -0.77318857905E+03 -0.37739729702E+03  0.12367738222E+04  0.87119353620E+02 0.  0.
          3    1    3    3  502    0 -0.75469908064E+03  0.51834997531E+03 -0.24320287210E+03  0.94731464478E+03  0.00000000000E+00 0. -1.
         -3    1    3    3    0  502 -0.24739546925E+03  0.17130145218E+03 -0.27586329077E+02  0.30217496798E+03  0.00000000000E+00 0.  1.
         15    1    5    5    0    0  0.45569665511E+02 -0.10359061775E+02 -0.58221706208E+02  0.74678172035E+02  0.17770000000E+01 0. -1.
        -15    1    5    5    0    0  0.72347070213E+02  0.93896213338E+02 -0.58457819502E+02  0.13217818215E+03  0.17770000000E+01 0.  1.
          2    1    6    6  503    0  0.67464309705E+03 -0.54011712738E+03 -0.26797934340E+03  0.90481089084E+03  0.00000000000E+00 0.  1.
         -2    1    6    6    0  503  0.20953471711E+03 -0.23307145167E+03 -0.10941795361E+03  0.33196293141E+03  0.00000000000E+00 0. -1.
<mgrwt>
<rscale>  0 0.12797100E+04</rscale>
<asrwt>0</asrwt>
<pdfrwt beam="1">  1        2 0.14832722E+00 0.12797100E+04</pdfrwt>
<pdfrwt beam="2">  1       -2 0.26599890E+00 0.12797100E+04</pdfrwt>
<totfact> 0.13185143E+00</totfact>
</mgrwt>
</event>
<event>
12    1  0.7781383E-008  0.7220659E+03  0.7818608E-02  0.9680223E-01
          2   -1    0    0  501    0  0.00000000000E+00  0.00000000000E+00  0.12315717547E+04  0.12315717547E+04  0.00000000000E+00 0. -1.
         -2   -1    0    0    0  501 -0.00000000000E+00 -0.00000000000E+00 -0.51517410397E+03  0.51517410397E+03  0.00000000000E+00 0.  1.
         23    2    1    2    0    0  0.67512873923E+03  0.56801180803E+02  0.37442919123E+03  0.77920295167E+03  0.89077673824E+02 0.  0.
    5000000    2    1    2    0    0 -0.67512873923E+03 -0.56801180803E+02  0.34196845948E+03  0.96754290698E+03  0.60014303369E+03 0.  0.
         23    2    4    4    0    0 -0.57507091435E+03  0.62475954124E+02  0.57908288625E+01  0.58627792675E+03  0.95281017599E+02 0.  0.
         23    2    4    4    0    0 -0.10005782488E+03 -0.11927713493E+03  0.33617763061E+03  0.38126498023E+03  0.90049889438E+02 0.  0.
          1    1    3    3  502    0  0.52356494755E+03  0.11604256826E+02  0.26540041345E+03  0.58710500981E+03  0.00000000000E+00 0. -1.
         -1    1    3    3    0  502  0.15156379168E+03  0.45196923977E+02  0.10902877777E+03  0.19209794187E+03  0.00000000000E+00 0.  1.
         15    1    5    5    0    0 -0.28095295930E+03  0.67635936989E+02  0.32954071536E+02  0.29085789291E+03  0.17770000000E+01 0.  1.
        -15    1    5    5    0    0 -0.29411795506E+03 -0.51599828656E+01 -0.27163242673E+02  0.29542003383E+03  0.17770000000E+01 0. -1.
          2    1    6    6  503    0 -0.90421674428E+02 -0.39338768389E+02  0.20198618385E+03  0.22477107547E+03  0.00000000000E+00 0.  1.
         -2    1    6    6    0  503 -0.96361504553E+01 -0.79938366538E+02  0.13419144677E+03  0.15649390476E+03  0.00000000000E+00 0. -1.
<mgrwt>
<rscale>  0 0.72206592E+03</rscale>
<asrwt>0</asrwt>
<pdfrwt beam="1">  1        2 0.18947258E+00 0.72206592E+03</pdfrwt>
<pdfrwt beam="2">  1       -2 0.79257555E-01 0.72206592E+03</pdfrwt>
<totfact> 0.26176728E+01</totfact>
</mgrwt>
</event>
<event>
12    1  0.7781383E-008  0.6982115E+03  0.7818608E-02  0.9720296E-01
          2   -1    0    0  501    0  0.00000000000E+00  0.00000000000E+00  0.26579123807E+04  0.26579123807E+04  0.00000000000E+00 0.  1.
         -2   -1    0    0    0  501 -0.00000000000E+00 -0.00000000000E+00 -0.32039503559E+03  0.32039503559E+03  0.00000000000E+00 0. -1.
         23    2    1    2    0    0  0.57254178056E+03 -0.32408974544E+03  0.25075192558E+03  0.70949260089E+03  0.87549808382E+02 0.  0.
    5000000    2    1    2    0    0 -0.57254178056E+03  0.32408974544E+03  0.20867654195E+04  0.22688148154E+04  0.60007707577E+03 0.  0.
         23    2    4    4    0    0 -0.54222350597E+03  0.19130807294E+03  0.90552614516E+03  0.10762720825E+04  0.88197997572E+02 0.  0.
         23    2    4    4    0    0 -0.30318274592E+02  0.13278167250E+03  0.11812392743E+04  0.11925427329E+04  0.91004264741E+02 0.  0.
          2    1    3    3  502    0  0.35108295277E+03 -0.14905028694E+03  0.14212354028E+03  0.40703111486E+03  0.00000000000E+00 0. -1.
         -2    1    3    3    0  502  0.22145882779E+03 -0.17503945849E+03  0.10862838530E+03  0.30246148602E+03  0.00000000000E+00 0.  1.
         15    1    5    5    0    0 -0.48289982815E+03  0.19537287198E+03  0.83293410141E+03  0.98241802617E+03  0.17770000000E+01 0. -1.
        -15    1    5    5    0    0 -0.59323677823E+02 -0.40647990431E+01  0.72592043750E+02  0.93854056314E+02  0.17770000000E+01 0.  1.
          2    1    6    6  503    0 -0.27576497293E+02  0.97492361761E+01  0.45595193149E+03  0.45688912730E+03  0.00000000000E+00 0. -1.
         -2    1    6    6    0  503 -0.27417772984E+01  0.12303243632E+03  0.72528734283E+03  0.73565360558E+03  0.00000000000E+00 0.  1.
<mgrwt>
<rscale>  0 0.69821151E+03</rscale>
<asrwt>0</asrwt>
<pdfrwt beam="1">  1        2 0.40890958E+00 0.69821151E+03</pdfrwt>
<pdfrwt beam="2">  1       -2 0.49291546E-01 0.69821151E+03</pdfrwt>
<totfact> 0.11639230E+01</totfact>
</mgrwt>
</event>
<event>
12    1  0.7781383E-008  0.4291779E+03  0.7818608E-02  0.1034120E+00
         -1   -1    0    0    0  501 -0.00000000000E+00  0.00000000000E+00  0.33812609922E+03  0.33812609922E+03  0.00000000000E+00 0.  1.
          1   -1    0    0  501    0  0.00000000000E+00 -0.00000000000E+00 -0.86934665657E+03  0.86934665657E+03  0.00000000000E+00 0. -1.
         23    2    1    2    0    0  0.13057303767E+03  0.24345604537E+03  0.87630021523E+02  0.30215775649E+03  0.85440768596E+02 0.  0.
    5000000    2    1    2    0    0 -0.13057303767E+03 -0.24345604537E+03 -0.61885057888E+03  0.90531499930E+03  0.60024915226E+03 0.  0.
         23    2    4    4    0    0  0.18824770764E+03 -0.37315765065E+02 -0.55427291130E+02  0.21952788103E+03  0.91052952696E+02 0.  0.
         23    2    4    4    0    0 -0.31882074532E+03 -0.20614028031E+03 -0.56342328775E+03  0.68578711827E+03  0.93368557856E+02 0.  0.
          2    1    3    3  502    0  0.16343387234E+02  0.48873907891E+02 -0.15864140141E+02  0.53920646521E+02  0.00000000000E+00 0. -1.
         -2    1    3    3    0  502  0.11422965044E+03  0.19458213748E+03  0.10349416166E+03  0.24823710997E+03  0.00000000000E+00 0.  1.
         15    1    5    5    0    0  0.13820018461E+03 -0.14971870221E+02  0.34574361867E+01  0.13906314939E+03  0.17770000000E+01 0.  1.
        -15    1    5    5    0    0  0.50047523029E+02 -0.22343894844E+02 -0.58884727316E+02  0.80464731642E+02  0.17770000000E+01 0. -1.
          3    1    6    6  503    0 -0.14003523632E+03 -0.46242908030E+02 -0.26112832886E+03  0.29989377801E+03  0.00000000000E+00 0. -1.
         -3    1    6    6    0  503 -0.17878550900E+03 -0.15989737228E+03 -0.30229495889E+03  0.38589334026E+03  0.00000000000E+00 0.  1.
<mgrwt>
<rscale>  0 0.42917788E+03</rscale>
<asrwt>0</asrwt>
<pdfrwt beam="1">  1        1 0.13374564E+00 0.42917788E+03</pdfrwt>
<pdfrwt beam="2">  1       -1 0.52019400E-01 0.42917788E+03</pdfrwt>
<totfact> 0.75938962E+01</totfact>
</mgrwt>
</event>
<event>
12    1  0.7781383E-008  0.3973977E+03  0.7818608E-02  0.1044684E+00
          1   -1    0    0  501    0  0.00000000000E+00  0.00000000000E+00  0.20718042601E+04  0.20718042601E+04  0.00000000000E+00 0. -1.
         -1   -1    0    0    0  501 -0.00000000000E+00 -0.00000000000E+00 -0.13266700362E+03  0.13266700362E+03  0.00000000000E+00 0.  1.
         23    2    1    2    0    0 -0.22136205383E+03  0.25539907190E+03  0.80457951071E+03  0.87747491820E+03  0.91565267436E+02 0.  0.
    5000000    2    1    2    0    0  0.22136205383E+03 -0.25539907190E+03  0.11345577457E+04  0.13269963455E+04  0.59955665097E+03 0.  0.
         23    2    4    4    0    0  0.52092255292E+02 -0.25689375979E+03  0.13476588863E+03  0.30880844835E+03  0.92156422186E+02 0.  0.
         23    2    4    4    0    0  0.16926979854E+03  0.14946878854E+01  0.99979185711E+03  0.10181878971E+04  0.92023570703E+02 0.  0.
          1    1    3    3  502    0 -0.21197676191E+03  0.20456234862E+03  0.72517401059E+03  0.78272424755E+03  0.00000000000E+00 0. -1.
         -1    1    3    3    0  502 -0.93852919211E+01  0.50836723286E+02  0.79405500117E+02  0.94750670645E+02  0.00000000000E+00 0.  1.
         15    1    5    5    0    0  0.70544542949E+02 -0.11630833535E+03  0.67032494450E+02  0.15165973247E+03  0.17770000000E+01 0.  1.
        -15    1    5    5    0    0 -0.18452287658E+02 -0.14058542444E+03  0.67733394185E+02  0.15714871587E+03  0.17770000000E+01 0. -1.
          3    1    6    6  503    0  0.11462111055E+03  0.11202244251E+02  0.41238435430E+03  0.42816392297E+03  0.00000000000E+00 0. -1.
         -3    1    6    6    0  503  0.54648687993E+02 -0.97075563658E+01  0.58740750280E+03  0.59002397417E+03  0.00000000000E+00 0.  1.
<mgrwt>
<rscale>  0 0.39739773E+03</rscale>
<asrwt>0</asrwt>
<pdfrwt beam="1">  1        1 0.31873909E+00 0.39739773E+03</pdfrwt>
<pdfrwt beam="2">  1       -1 0.20410310E-01 0.39739773E+03</pdfrwt>
<totfact> 0.57558069E+01</totfact>
</mgrwt>
</event>
<event>
12    1  0.7781383E-008  0.1586051E+04  0.7818608E-02  0.8829163E-01
          2   -1    0    0  501    0  0.00000000000E+00  0.00000000000E+00  0.36475214430E+04  0.36475214430E+04  0.00000000000E+00 0. -1.
         -2   -1    0    0    0  501 -0.00000000000E+00 -0.00000000000E+00 -0.21998045935E+04  0.21998045935E+04  0.00000000000E+00 0.  1.
         23    2    1    2    0    0 -0.15493200306E+04 -0.33165278783E+03  0.30990526702E+04  0.34814748397E+04  0.78444109844E+02 0.  0.
    5000000    2    1    2    0    0  0.15493200306E+04  0.33165278783E+03 -0.16513358207E+04  0.23658511967E+04  0.59996313513E+03 0.  0.
         23    2    4    4    0    0  0.10327572346E+04  0.23440436082E+03 -0.14451832707E+04  0.17938628700E+04  0.88636338375E+02 0.  0.
         23    2    4    4    0    0  0.51656279599E+03  0.97248427017E+02 -0.20615255002E+03  0.57198832674E+03  0.91528101125E+02 0.  0.
          2    1    3    3  502    0 -0.73373389678E+03 -0.12520298681E+03  0.14028289887E+04  0.15880712801E+04  0.00000000000E+00 0. -1.
         -2    1    3    3    0  502 -0.81558613379E+03 -0.20644980102E+03  0.16962236815E+04  0.18934035597E+04  0.00000000000E+00 0.  1.
         15    1    5    5    0    0  0.10336769405E+03  0.24856500008E+02 -0.10400744509E+03  0.14873947738E+03  0.17770000000E+01 0.  1.
        -15    1    5    5    0    0  0.92938954052E+03  0.20954786081E+03 -0.13411758256E+04  0.16451233926E+04  0.17770000000E+01 0. -1.
          2    1    6    6  503    0  0.49035267719E+03  0.10177886420E+03 -0.17379879015E+03  0.53010442810E+03  0.00000000000E+00 0. -1.
         -2    1    6    6    0  503  0.26210118794E+02 -0.45304371873E+01 -0.32353759866E+02  0.41883898646E+02  0.00000000000E+00 0.  1.
<mgrwt>
<rscale>  0 0.15860514E+04</rscale>
<asrwt>0</asrwt>
<pdfrwt beam="1">  1        2 0.56115714E+00 0.15860514E+04</pdfrwt>
<pdfrwt beam="2">  1       -2 0.33843148E+00 0.15860514E+04</pdfrwt>
<totfact> 0.10982601E-02</totfact>
</mgrwt>
</event>
<event>
12    1  0.1205680E-007  0.8279503E+03  0.7818608E-02  0.9520419E-01
         -2   -1    0    0    0  501 -0.00000000000E+00  0.00000000000E+00  0.55770752498E+03  0.55770752498E+03  0.00000000000E+00 0.  1.
          2   -1    0    0  501    0  0.00000000000E+00 -0.00000000000E+00 -0.25110987852E+04  0.25110987852E+04  0.00000000000E+00 0. -1.
         23    2    1    2    0    0  0.74383525466E+03  0.32093244197E+03  0.59569251798E+02  0.81753923007E+03  0.92376287839E+02 0.  0.
    5000000    2    1    2    0    0 -0.74383525466E+03 -0.32093244197E+03 -0.20129605121E+04  0.22512670802E+04  0.59992076531E+03 0.  0.
         23    2    4    4    0    0 -0.52395178056E+03 -0.13012262225E+03 -0.62827290188E+03  0.83340325354E+03  0.91524743065E+02 0.  0.
         23    2    4    4    0    0 -0.21988347410E+03 -0.19080981972E+03 -0.13846876102E+04  0.14178638266E+04  0.90669308644E+02 0.  0.
          1    1    3    3  502    0  0.47626511306E+03  0.16916737645E+03  0.66981719475E+02  0.50983586567E+03  0.00000000000E+00 0. -1.
         -1    1    3    3    0  502  0.26757014160E+03  0.15176506552E+03 -0.74124676773E+01  0.30770336440E+03  0.00000000000E+00 0.  1.
         15    1    5    5    0    0 -0.32881170744E+03 -0.10231643424E+03 -0.45733792821E+03  0.57249186018E+03  0.17770000000E+01 0. -1.
        -15    1    5    5    0    0 -0.19514007313E+03 -0.27806188015E+02 -0.17093497367E+03  0.26091139336E+03  0.17770000000E+01 0.  1.
          4    1    6    6  503    0 -0.19886133394E+03 -0.13137068593E+03 -0.99759366264E+03  0.10256691489E+04  0.00000000000E+00 0. -1.
         -4    1    6    6    0  503 -0.21022140163E+02 -0.59439133787E+02 -0.38709394755E+03  0.39219467772E+03  0.00000000000E+00 0.  1.
<mgrwt>
<rscale>  0 0.82795035E+03</rscale>
<asrwt>0</asrwt>
<pdfrwt beam="1">  1        2 0.38632288E+00 0.82795035E+03</pdfrwt>
<pdfrwt beam="2">  1       -2 0.85801159E-01 0.82795035E+03</pdfrwt>
<totfact> 0.41917085E+00</totfact>
</mgrwt>
</event>
<event>
12    1  0.7781383E-008  0.1387695E+04  0.7818608E-02  0.8962774E-01
          2   -1    0    0  501    0  0.00000000000E+00  0.00000000000E+00  0.24496750142E+04  0.24496750142E+04  0.00000000000E+00 0. -1.
         -2   -1    0    0    0  501 -0.00000000000E+00 -0.00000000000E+00 -0.95013646498E+03  0.95013646498E+03  0.00000000000E+00 0.  1.
         23    2    1    2    0    0  0.97100983927E+03  0.97935556986E+03  0.17043678590E+03  0.13926073357E+04  0.91154007833E+02 0.  0.
    5000000    2    1    2    0    0 -0.97100983927E+03 -0.97935556986E+03  0.13291017633E+04  0.20072041435E+04  0.60029953883E+03 0.  0.
         23    2    4    4    0    0 -0.54131150728E+03 -0.66174169291E+03  0.11508740456E+04  0.14363319988E+04  0.87283021260E+02 0.  0.
         23    2    4    4    0    0 -0.42969833199E+03 -0.31761387695E+03  0.17822771767E+03  0.57087214472E+03  0.92793614653E+02 0.  0.
          3    1    3    3  502    0  0.36108726890E+03  0.42116931255E+03  0.48628846296E+02  0.55689529562E+03  0.00000000000E+00 0. -1.
         -3    1    3    3    0  502  0.60992257036E+03  0.55818625732E+03  0.12180793961E+03  0.83571204003E+03  0.00000000000E+00 0.  1.
         15    1    5    5    0    0 -0.90619202215E+02 -0.64850191986E+02  0.14979392108E+03  0.18670501796E+03  0.17770000000E+01 0.  1.
        -15    1    5    5    0    0 -0.45069230507E+03 -0.59689150092E+03  0.10010801245E+04  0.12496269808E+04  0.17770000000E+01 0. -1.
          1    1    6    6  503    0 -0.32008004325E+03 -0.23058015961E+03  0.87504389551E+02  0.40407358523E+03  0.00000000000E+00 0. -1.
         -1    1    6    6    0  503 -0.10961828874E+03 -0.87033717343E+02  0.90723328121E+02  0.16679855948E+03  0.00000000000E+00 0.  1.
<mgrwt>
<rscale>  0 0.13876953E+04</rscale>
<asrwt>0</asrwt>
<pdfrwt beam="1">  1        2 0.37687308E+00 0.13876953E+04</pdfrwt>
<pdfrwt beam="2">  1       -2 0.14617484E+00 0.13876953E+04</pdfrwt>
<totfact> 0.11420430E+00</totfact>
</mgrwt>
</event>
<event>
12    1  0.7781383E-008  0.7207341E+03  0.7818608E-02  0.9682417E-01
         -2   -1    0    0    0  501 -0.00000000000E+00  0.00000000000E+00  0.22185951459E+03  0.22185951459E+03  0.00000000000E+00 0.  1.
          2   -1    0    0  501    0  0.00000000000E+00 -0.00000000000E+00 -0.24067119536E+04  0.24067119536E+04  0.00000000000E+00 0. -1.
         23    2    1    2    0    0  0.59566452023E+03 -0.87631521604E+02 -0.83600909215E+03  0.10341703274E+04  0.90008664810E+02 0.  0.
    5000000    2    1    2    0    0 -0.59566452023E+03  0.87631521604E+02 -0.13488433468E+04  0.15944011407E+04  0.60020089890E+03 0.  0.
         23    2    4    4    0    0 -0.68942941236E+03  0.30322282447E+02 -0.10028650315E+04  0.12207583763E+04  0.90996628625E+02 0.  0.
         23    2    4    4    0    0  0.93764892128E+02  0.57309239157E+02 -0.34597831539E+03  0.37364276450E+03  0.88496987826E+02 0.  0.
          1    1    3    3  502    0  0.58189303418E+03 -0.96782949535E+02 -0.82541534388E+03  0.10145328642E+04  0.00000000000E+00 0. -1.
         -1    1    3    3    0  502  0.13771486058E+02  0.91514279318E+01 -0.10593748266E+02  0.19637463272E+02  0.00000000000E+00 0.  1.
         15    1    5    5    0    0 -0.64267367080E+03  0.48680990096E+02 -0.90938578119E+03  0.11146232290E+04  0.17770000000E+01 0.  1.
        -15    1    5    5    0    0 -0.46755741564E+02 -0.18358707649E+02 -0.93479250271E+02  0.10613514722E+03  0.17770000000E+01 0. -1.
          1    1    6    6  503    0 -0.16814016584E+02  0.30315250599E+01 -0.57000249156E+02  0.59505711505E+02  0.00000000000E+00 0. -1.
         -1    1    6    6    0  503  0.11057890871E+03  0.54277714097E+02 -0.28897806623E+03  0.31413705299E+03  0.00000000000E+00 0.  1.
<mgrwt>
<rscale>  0 0.72073409E+03</rscale>
<asrwt>0</asrwt>
<pdfrwt beam="1">  1        2 0.37026339E+00 0.72073409E+03</pdfrwt>
<pdfrwt beam="2">  1       -2 0.34132232E-01 0.72073409E+03</pdfrwt>
<totfact> 0.33094727E+01</totfact>
</mgrwt>
</event>
<event>
12    1  0.7781383E-008  0.2424476E+03  0.7818608E-02  0.1118173E+00
         -1   -1    0    0    0  501 -0.00000000000E+00  0.00000000000E+00  0.12070064459E+03  0.12070064459E+03  0.00000000000E+00 0.  1.
          1   -1    0    0  501    0  0.00000000000E+00 -0.00000000000E+00 -0.22476807960E+04  0.22476807960E+04  0.00000000000E+00 0. -1.
         23    2    1    2    0    0 -0.89133747782E+02  0.16755940499E+03 -0.13596487636E+04  0.13760457566E+04  0.94000983308E+02 0.  0.
    5000000    2    1    2    0    0  0.89133747782E+02 -0.16755940499E+03 -0.76733138784E+03  0.99233568396E+03  0.59992638857E+03 0.  0.
         23    2    4    4    0    0  0.76466084378E+02  0.23343435392E+02 -0.77153610248E+03  0.78093764294E+03  0.90574095049E+02 0.  0.
         23    2    4    4    0    0  0.12667663404E+02 -0.19090284038E+03  0.42047146462E+01  0.21139804102E+03  0.89816969219E+02 0.  0.
          3    1    3    3  502    0 -0.27454695753E+02  0.41026905782E+02 -0.68991218564E+03  0.69167607391E+03  0.00000000000E+00 0. -1.
         -3    1    3    3    0  502 -0.61679052029E+02  0.12653249920E+03 -0.66973657794E+03  0.68436968273E+03  0.00000000000E+00 0.  1.
         15    1    5    5    0    0  0.21822792753E+02  0.18676334082E+02 -0.60316311900E+03  0.60384927390E+03  0.17770000000E+01 0.  1.
        -15    1    5    5    0    0  0.54643291626E+02  0.46671013095E+01 -0.16837298348E+03  0.17708836904E+03  0.17770000000E+01 0. -1.
          1    1    6    6  503    0  0.47762102959E+02 -0.14894269742E+03 -0.13120333187E+01  0.15641888321E+03  0.00000000000E+00 0. -1.
         -1    1    6    6    0  503 -0.35094439556E+02 -0.41960142959E+02  0.55167479649E+01  0.54979157805E+02  0.00000000000E+00 0.  1.
<mgrwt>
<rscale>  0 0.24244756E+03</rscale>
<asrwt>0</asrwt>
<pdfrwt beam="1">  1        1 0.34579702E+00 0.24244756E+03</pdfrwt>
<pdfrwt beam="2">  1       -1 0.18569332E-01 0.24244756E+03</pdfrwt>
<totfact> 0.53891844E+01</totfact>
</mgrwt>
</event>
<event>
12    1  0.7781383E-008  0.1445766E+04  0.7818608E-02  0.8921341E-01
          1   -1    0    0  501    0  0.00000000000E+00  0.00000000000E+00  0.13371757917E+04  0.13371757917E+04  0.00000000000E+00 0. -1.
         -1   -1    0    0    0  501 -0.00000000000E+00 -0.00000000000E+00 -0.17127648876E+04  0.17127648876E+04  0.00000000000E+00 0.  1.
         23    2    1    2    0    0  0.11624764437E+04  0.83951614339E+03  0.51429540099E+02  0.14377350058E+04  0.91093973944E+02 0.  0.
    5000000    2    1    2    0    0 -0.11624764437E+04 -0.83951614339E+03 -0.42701863598E+03  0.16122056735E+04  0.60060251496E+03 0.  0.
         23    2    4    4    0    0 -0.22286063385E+03 -0.25134232991E+03  0.12612094733E+03  0.37012874734E+03  0.90823825790E+02 0.  0.
         23    2    4    4    0    0 -0.93961580989E+03 -0.58817381348E+03 -0.55313958331E+03  0.12420769262E+04  0.89249015897E+02 0.  0.
          4    1    3    3  502    0  0.59545465877E+03  0.45274245164E+03 -0.14821853656E+02  0.74817221648E+03  0.00000000000E+00 0. -1.
         -4    1    3    3    0  502  0.56702178497E+03  0.38677369175E+03  0.66251393755E+02  0.68956278933E+03  0.00000000000E+00 0.  1.
         15    1    5    5    0    0  0.65740243310E+01 -0.24125039241E+02  0.90851811159E+01  0.26663337360E+02  0.17770000000E+01 0. -1.
        -15    1    5    5    0    0 -0.22943465818E+03 -0.22721729067E+03  0.11703576621E+03  0.34346540998E+03  0.17770000000E+01 0.  1.
          4    1    6    6  503    0 -0.80110483790E+03 -0.51680158142E+03 -0.50591162159E+03  0.10792587293E+04  0.00000000000E+00 0. -1.
         -4    1    6    6    0  503 -0.13851097198E+03 -0.71372232054E+02 -0.47227961727E+02  0.16281819689E+03  0.00000000000E+00 0.  1.
<mgrwt>
<rscale>  0 0.14457661E+04</rscale>
<asrwt>0</asrwt>
<pdfrwt beam="1">  1        1 0.20571935E+00 0.14457661E+04</pdfrwt>
<pdfrwt beam="2">  1       -1 0.26350229E+00 0.14457661E+04</pdfrwt>
<totfact> 0.46162384E-01</totfact>
</mgrwt>
</event>
<event>
12    1  0.7781383E-008  0.1130418E+04  0.7818608E-02  0.9176041E-01
         -2   -1    0    0    0  501 -0.00000000000E+00  0.00000000000E+00  0.18972171312E+04  0.18972171312E+04  0.00000000000E+00 0.  1.
          2   -1    0    0  501    0  0.00000000000E+00 -0.00000000000E+00 -0.96595476517E+03  0.96595476517E+03  0.00000000000E+00 0. -1.
         23    2    1    2    0    0  0.10906660725E+04  0.44810006823E+02  0.11612719257E+04  0.15964217506E+04  0.91921173112E+02 0.  0.
    5000000    2    1    2    0    0 -0.10906660725E+04 -0.44810006823E+02 -0.23000955960E+03  0.12667501458E+04  0.60015924212E+03 0.  0.
         23    2    4    4    0    0 -0.80634795354E+03  0.14753589154E+03 -0.34454132264E+03  0.89355666500E+03  0.88152873384E+02 0.  0.
         23    2    4    4    0    0 -0.28431811897E+03 -0.19234589836E+03  0.11453176304E+03  0.37319348079E+03  0.91225610270E+02 0.  0.
          3    1    3    3  502    0  0.37589832829E+03 -0.31363828243E+01  0.34307442092E+03  0.50892970870E+03  0.00000000000E+00 0. -1.
         -3    1    3    3    0  502  0.71476774422E+03  0.47946389648E+02  0.81819750476E+03  0.10874920419E+04  0.00000000000E+00 0.  1.
         15    1    5    5    0    0 -0.11770878734E+03  0.53479388903E+02 -0.48419354816E+02  0.13806880641E+03  0.17770000000E+01 0. -1.
        -15    1    5    5    0    0 -0.68863916620E+03  0.94056502632E+02 -0.29612196782E+03  0.75548785858E+03  0.17770000000E+01 0.  1.
          1    1    6    6  503    0 -0.16795052230E+03 -0.12860412018E+03  0.24719755020E+02  0.21297291836E+03  0.00000000000E+00 0. -1.
         -1    1    6    6    0  503 -0.11636759666E+03 -0.63741778181E+02  0.89812008015E+02  0.16022056242E+03  0.00000000000E+00 0.  1.
<mgrwt>
<rscale>  0 0.11304180E+04</rscale>
<asrwt>0</asrwt>
<pdfrwt beam="1">  1        2 0.14860843E+00 0.11304180E+04</pdfrwt>
<pdfrwt beam="2">  1       -2 0.29187956E+00 0.11304180E+04</pdfrwt>
<totfact> 0.93107709E-01</totfact>
</mgrwt>
</event>
<event>
12    1  0.7781383E-008  0.9148679E+03  0.7818608E-02  0.9407184E-01
          4   -1    0    0  501    0  0.00000000000E+00  0.00000000000E+00  0.12872243978E+04  0.12872243978E+04  0.00000000000E+00 0. -1.
         -4   -1    0    0    0  501 -0.00000000000E+00 -0.00000000000E+00 -0.77088241049E+03  0.77088241049E+03  0.00000000000E+00 0.  1.
         23    2    1    2    0    0 -0.24394790358E+03  0.85721773370E+03  0.38884866055E+03  0.97619278875E+03  0.86117694886E+02 0.  0.
    5000000    2    1    2    0    0  0.24394790358E+03 -0.85721773370E+03  0.12749332678E+03  0.10819140196E+04  0.59995881084E+03 0.  0.
         23    2    4    4    0    0  0.12764989811E+03 -0.78505046010E+03 -0.95260428512E+02  0.80621435604E+03  0.91149971222E+02 0.  0.
         23    2    4    4    0    0  0.11629800547E+03 -0.72167273596E+02  0.22275375530E+03  0.27569966351E+03  0.87508442490E+02 0.  0.
          2    1    3    3  502    0 -0.23846642395E+03  0.74009023584E+03  0.32575458141E+03  0.84303964310E+03  0.00000000000E+00 0.  1.
         -2    1    3    3    0  502 -0.54814796323E+01  0.11712749786E+03  0.63094079134E+02  0.13315314565E+03  0.00000000000E+00 0. -1.
         15    1    5    5    0    0  0.61168279016E+02 -0.44012850501E+03 -0.97496335242E+02  0.45493225033E+03  0.17770000000E+01 0. -1.
        -15    1    5    5    0    0  0.66481619098E+02 -0.34492195510E+03  0.22359067302E+01  0.35128210571E+03  0.17770000000E+01 0.  1.
          3    1    6    6  503    0  0.27266429111E+01  0.22219442981E+01  0.74846998271E+02  0.74929598746E+02  0.00000000000E+00 0. -1.
         -3    1    6    6    0  503  0.11357136256E+03 -0.74389217894E+02  0.14790675703E+03  0.20077006476E+03  0.00000000000E+00 0.  1.
<mgrwt>
<rscale>  0 0.91486785E+03</rscale>
<asrwt>0</asrwt>
<pdfrwt beam="1">  1        4 0.19803452E+00 0.91486785E+03</pdfrwt>
<pdfrwt beam="2">  1       -4 0.11859729E+00 0.91486785E+03</pdfrwt>
<totfact> 0.14321735E-01</totfact>
</mgrwt>
</event>
<event>
12    1  0.7781383E-008  0.1127795E+04  0.7818608E-02  0.9178516E-01
         -2   -1    0    0    0  501 -0.00000000000E+00  0.00000000000E+00  0.74569070773E+03  0.74569070773E+03  0.00000000000E+00 0.  1.
          2   -1    0    0  501    0  0.00000000000E+00 -0.00000000000E+00 -0.18982091132E+04  0.18982091132E+04  0.00000000000E+00 0. -1.
         23    2    1    2    0    0  0.10836450938E+04 -0.13734093374E+03 -0.30865556836E+03  0.11387595660E+04  0.91410436407E+02 0.  0.
    5000000    2    1    2    0    0 -0.10836450938E+04  0.13734093374E+03 -0.84386283716E+03  0.15051402550E+04  0.60016120990E+03 0.  0.
         23    2    4    4    0    0 -0.96543710458E+03  0.32344729392E+01 -0.45825597761E+03  0.10725405959E+04  0.90914927792E+02 0.  0.
         23    2    4    4    0    0 -0.11820798920E+03  0.13410646081E+03 -0.38560685955E+03  0.43259965910E+03  0.80573838030E+02 0.  0.
          3    1    3    3  502    0  0.49766077040E+03 -0.29435992171E+02 -0.17281943535E+03  0.52763555345E+03  0.00000000000E+00 0. -1.
         -3    1    3    3    0  502  0.58598432338E+03 -0.10790494157E+03 -0.13583613301E+03  0.61112401254E+03  0.00000000000E+00 0.  1.
         15    1    5    5    0    0 -0.45457007700E+03 -0.43506065772E+02 -0.22172801427E+03  0.50763491084E+03  0.17770000000E+01 0.  1.
        -15    1    5    5    0    0 -0.51086702758E+03  0.46740538711E+02 -0.23652796334E+03  0.56490568504E+03  0.17770000000E+01 0. -1.
          1    1    6    6  503    0 -0.86321915376E+02  0.45879408850E+02 -0.15044184028E+03  0.17941332319E+03  0.00000000000E+00 0. -1.
         -1    1    6    6    0  503 -0.31886073826E+02  0.88227051955E+02 -0.23516501927E+03  0.25318633591E+03  0.00000000000E+00 0.  1.
<mgrwt>
<rscale>  0 0.11277953E+04</rscale>
<asrwt>0</asrwt>
<pdfrwt beam="1">  1        2 0.29203217E+00 0.11277953E+04</pdfrwt>
<pdfrwt beam="2">  1       -2 0.11472165E+00 0.11277953E+04</pdfrwt>
<totfact> 0.44410384E+00</totfact>
</mgrwt>
</event>
<event>
12    1  0.7781383E-008  0.2220057E+04  0.7818608E-02  0.8510126E-01
          1   -1    0    0  501    0  0.00000000000E+00  0.00000000000E+00  0.27982379995E+04  0.27982379995E+04  0.00000000000E+00 0. -1.
         -1   -1    0    0    0  501 -0.00000000000E+00 -0.00000000000E+00 -0.23275734876E+04  0.23275734876E+04  0.00000000000E+00 0.  1.
         23    2    1    2    0    0  0.21783993388E+04  0.38015797083E+03 -0.97311225323E+03  0.24176564599E+04  0.90396564062E+02 0.  0.
    5000000    2    1    2    0    0 -0.21783993388E+04 -0.38015797083E+03  0.14437767651E+04  0.27081550272E+04  0.59972372121E+03 0.  0.
         23    2    4    4    0    0 -0.12084149850E+04 -0.95681443052E+02  0.10910466566E+04  0.16334069683E+04  0.90630031040E+02 0.  0.
         23    2    4    4    0    0 -0.96998435377E+03 -0.28447652778E+03  0.35273010846E+03  0.10747480589E+04  0.94171754063E+02 0.  0.
          4    1    3    3  502    0  0.46406082294E+03  0.65353508325E+02 -0.24327883883E+03  0.52802284217E+03  0.00000000000E+00 0. -1.
         -4    1    3    3    0  502  0.17143385159E+04  0.31480446251E+03 -0.72983341440E+03  0.18896336178E+04  0.00000000000E+00 0.  1.
         15    1    5    5    0    0 -0.36023921630E+03 -0.63555110640E+02  0.35915464723E+03  0.51264682131E+03  0.17770000000E+01 0. -1.
        -15    1    5    5    0    0 -0.84817576873E+03 -0.32126332412E+02  0.73189200940E+03  0.11207601470E+04  0.17770000000E+01 0.  1.
          2    1    6    6  503    0 -0.47028051301E+03 -0.97111675251E+02  0.19463680070E+03  0.51814855261E+03  0.00000000000E+00 0.  1.
         -2    1    6    6    0  503 -0.49970384077E+03 -0.18736485253E+03  0.15809330776E+03  0.55659950629E+03  0.00000000000E+00 0. -1.
<mgrwt>
<rscale>  0 0.22200568E+04</rscale>
<asrwt>0</asrwt>
<pdfrwt beam="1">  1        1 0.43049815E+00 0.22200568E+04</pdfrwt>
<pdfrwt beam="2">  1       -1 0.35808823E+00 0.22200568E+04</pdfrwt>
<totfact> 0.98931369E-03</totfact>
</mgrwt>
</event>
<event>
12    1  0.7781383E-008  0.7425314E+03  0.7818608E-02  0.9647141E-01
         -2   -1    0    0    0  501 -0.00000000000E+00  0.00000000000E+00  0.29823746136E+03  0.29823746136E+03  0.00000000000E+00 0.  1.
          2   -1    0    0  501    0  0.00000000000E+00 -0.00000000000E+00 -0.19335042310E+04  0.19335042310E+04  0.00000000000E+00 0. -1.
         23    2    1    2    0    0 -0.18796855583E+03 -0.59683828847E+03 -0.51677182096E+03  0.81665304224E+03  0.91219273715E+02 0.  0.
    5000000    2    1    2    0    0  0.18796855583E+03  0.59683828847E+03 -0.11184949487E+04  0.14150886502E+04  0.59991400797E+03 0.  0.
         23    2    4    4    0    0  0.35239896933E+03  0.17545053265E+03 -0.51296526616E+03  0.65349570323E+03  0.94632694460E+02 0.  0.
         23    2    4    4    0    0 -0.16443041350E+03  0.42138775581E+03 -0.60552968256E+03  0.76159294693E+03  0.93555431323E+02 0.  0.
          1    1    3    3  502    0 -0.15021813167E+02 -0.13215198407E+03 -0.75708422187E+02  0.15304106297E+03  0.00000000000E+00 0. -1.
         -1    1    3    3    0  502 -0.17294674266E+03 -0.46468630439E+03 -0.44106339878E+03  0.66361197927E+03  0.00000000000E+00 0.  1.
         15    1    5    5    0    0  0.25812998454E+03  0.16747706198E+03 -0.42173059579E+03  0.52205316623E+03  0.17770000000E+01 0. -1.
        -15    1    5    5    0    0  0.94268984793E+02  0.79734706690E+01 -0.91234670361E+02  0.13144253700E+03  0.17770000000E+01 0.  1.
          4    1    6    6  503    0 -0.10447542033E+03  0.31386519265E+03 -0.49957396608E+03  0.59916660471E+03  0.00000000000E+00 0. -1.
         -4    1    6    6    0  503 -0.59954993174E+02  0.10752256316E+03 -0.10595571647E+03  0.16242634222E+03  0.00000000000E+00 0.  1.
<mgrwt>
<rscale>  0 0.74253138E+03</rscale>
<asrwt>0</asrwt>
<pdfrwt beam="1">  1        2 0.29746219E+00 0.74253138E+03</pdfrwt>
<pdfrwt beam="2">  1       -2 0.45882687E-01 0.74253138E+03</pdfrwt>
<totfact> 0.33805306E+01</totfact>
</mgrwt>
</event>
<event>
12    1  0.7781383E-008  0.1775748E+04  0.7818608E-02  0.8719303E-01
         -2   -1    0    0    0  501 -0.00000000000E+00  0.00000000000E+00  0.79540940584E+03  0.79540940584E+03  0.00000000000E+00 0.  1.
          2   -1    0    0  501    0  0.00000000000E+00 -0.00000000000E+00 -0.40422949114E+04  0.40422949114E+04  0.00000000000E+00 0. -1.
         23    2    1    2    0    0  0.12892973143E+04  0.11608575706E+04 -0.17868086262E+04  0.24921316725E+04  0.90318007391E+02 0.  0.
    5000000    2    1    2    0    0 -0.12892973143E+04 -0.11608575706E+04 -0.14600768793E+04  0.23455726447E+04  0.60000722869E+03 0.  0.
         23    2    4    4    0    0 -0.27300240787E+03 -0.58467247765E+03 -0.65627963034E+03  0.92462796695E+03  0.88666246410E+02 0.  0.
         23    2    4    4    0    0 -0.10162949064E+04 -0.57618509295E+03 -0.80379724899E+03  0.14209446778E+04  0.90272707894E+02 0.  0.
          1    1    3    3  502    0  0.14688731084E+03  0.13618573427E+03 -0.16686259003E+03  0.26070205265E+03  0.00000000000E+00 0. -1.
         -1    1    3    3    0  502  0.11424100034E+04  0.10246718363E+04 -0.16199460362E+04  0.22314296198E+04  0.00000000000E+00 0.  1.
         15    1    5    5    0    0 -0.24659063760E+03 -0.48671581066E+03 -0.51191956979E+03  0.74817379435E+03  0.17770000000E+01 0. -1.
        -15    1    5    5    0    0 -0.26411770274E+02 -0.97956666985E+02 -0.14436006055E+03  0.17645417260E+03  0.17770000000E+01 0.  1.
          1    1    6    6  503    0 -0.41725360463E+03 -0.20656271725E+03 -0.36356532808E+03  0.59071860858E+03  0.00000000000E+00 0. -1.
         -1    1    6    6    0  503 -0.59904130175E+03 -0.36962237570E+03 -0.44023192090E+03  0.83022606921E+03  0.00000000000E+00 0.  1.
<mgrwt>
<rscale>  0 0.17757485E+04</rscale>
<asrwt>0</asrwt>
<pdfrwt beam="1">  1        2 0.62189153E+00 0.17757485E+04</pdfrwt>
<pdfrwt beam="2">  1       -2 0.12237068E+00 0.17757485E+04</pdfrwt>
<totfact> 0.14924361E-01</totfact>
</mgrwt>
</event>
<event>
12    1  0.7781383E-008  0.1143710E+04  0.7818608E-02  0.9163606E-01
         -2   -1    0    0    0  501 -0.00000000000E+00  0.00000000000E+00  0.12400239555E+04  0.12400239555E+04  0.00000000000E+00 0.  1.
          2   -1    0    0  501    0  0.00000000000E+00 -0.00000000000E+00 -0.11718045964E+04  0.11718045964E+04  0.00000000000E+00 0. -1.
         23    2    1    2    0    0 -0.98721857294E+03  0.49049807754E+03  0.27556755388E+03  0.11398336119E+04  0.89968390234E+02 0.  0.
    5000000    2    1    2    0    0  0.98721857294E+03 -0.49049807754E+03 -0.20734819482E+03  0.12719949400E+04  0.59982412310E+03 0.  0.
         23    2    4    4    0    0  0.59934393122E+03 -0.52018058119E+03 -0.31378165597E+03  0.85835259910E+03  0.92245714378E+02 0.  0.
         23    2    4    4    0    0  0.38787464172E+03  0.29682503652E+02  0.10643346116E+03  0.41364234090E+03  0.91891870225E+02 0.  0.
          2    1    3    3  502    0 -0.54257594670E+03  0.23419507426E+03  0.11470874740E+03  0.60199176695E+03  0.00000000000E+00 0. -1.
         -2    1    3    3    0  502 -0.44464262624E+03  0.25630300327E+03  0.16085880648E+03  0.53784184495E+03  0.00000000000E+00 0.  1.
         15    1    5    5    0    0  0.25931147533E+03 -0.23573239415E+03 -0.90359800149E+02  0.36191194246E+03  0.17770000000E+01 0.  1.
        -15    1    5    5    0    0  0.34003245589E+03 -0.28444818704E+03 -0.22342185583E+03  0.49644065664E+03  0.17770000000E+01 0. -1.
          1    1    6    6  503    0  0.80526291100E+02  0.13822286402E+02 -0.14493545376E+02  0.82979527700E+02  0.00000000000E+00 0. -1.
         -1    1    6    6    0  503  0.30734835062E+03  0.15860217249E+02  0.12092700654E+03  0.33066281320E+03  0.00000000000E+00 0.  1.
<mgrwt>
<rscale>  0 0.11437103E+04</rscale>
<asrwt>0</asrwt>
<pdfrwt beam="1">  1        2 0.18027763E+00 0.11437103E+04</pdfrwt>
<pdfrwt beam="2">  1       -2 0.19077292E+00 0.11437103E+04</pdfrwt>
<totfact> 0.29460203E+00</totfact>
</mgrwt>
</event>
<event>
12    1  0.7781383E-008  0.5061294E+03  0.7818608E-02  0.1012191E+00
         -4   -1    0    0    0  501 -0.00000000000E+00  0.00000000000E+00  0.43463287478E+03  0.43463287478E+03  0.00000000000E+00 0.  1.
          4   -1    0    0  501    0  0.00000000000E+00 -0.00000000000E+00 -0.70984070790E+03  0.70984070790E+03  0.00000000000E+00 0. -1.
         23    2    1    2    0    0 -0.14300194439E+03  0.35590058740E+03 -0.48261021750E+02  0.39722779453E+03  0.91356501207E+02 0.  0.
    5000000    2    1    2    0    0  0.14300194439E+03 -0.35590058740E+03 -0.22694681137E+03  0.74724578815E+03  0.59979715613E+03 0.  0.
         23    2    4    4    0    0  0.24197235150E+03 -0.60172832285E+00 -0.26038494558E+03  0.36558207946E+03  0.85433927510E+02 0.  0.
         23    2    4    4    0    0 -0.98970407109E+02 -0.35529885908E+03  0.33438134212E+02  0.38166370869E+03  0.92285735427E+02 0.  0.
          3    1    3    3  502    0 -0.54735825595E+02  0.16531160171E+03  0.22516224215E+02  0.17558734754E+03  0.00000000000E+00 0. -1.
         -3    1    3    3    0  502 -0.88266118795E+02  0.19058898569E+03 -0.70777245965E+02  0.22164044698E+03  0.00000000000E+00 0.  1.
         15    1    5    5    0    0  0.13698779411E+03  0.34696721308E+02 -0.17931008898E+03  0.22830852797E+03  0.17770000000E+01 0. -1.
        -15    1    5    5    0    0  0.10498455739E+03 -0.35298449631E+02 -0.81074856597E+02  0.13727355149E+03  0.17770000000E+01 0.  1.
          3    1    6    6  503    0  0.10280215585E+02 -0.65050096216E+02  0.27796922167E+02  0.71483331848E+02  0.00000000000E+00 0. -1.
         -3    1    6    6    0  503 -0.10925062269E+03 -0.29024876286E+03  0.56412120446E+01  0.31018037684E+03  0.00000000000E+00 0.  1.
<mgrwt>
<rscale>  0 0.50612942E+03</rscale>
<asrwt>0</asrwt>
<pdfrwt beam="1">  1        4 0.10920626E+00 0.50612942E+03</pdfrwt>
<pdfrwt beam="2">  1       -4 0.66866597E-01 0.50612942E+03</pdfrwt>
<totfact> 0.26958933E+00</totfact>
</mgrwt>
</event>
<event>
12    1  0.7781383E-008  0.1801280E+04  0.7818608E-02  0.8705619E-01
          2   -1    0    0  501    0  0.00000000000E+00  0.00000000000E+00  0.15992253451E+04  0.15992253451E+04  0.00000000000E+00 0. -1.
         -2   -1    0    0    0  501 -0.00000000000E+00 -0.00000000000E+00 -0.20658022312E+04  0.20658022312E+04  0.00000000000E+00 0.  1.
         23    2    1    2    0    0  0.15109963591E+04 -0.89211616769E+03 -0.17923646415E+02  0.17570490410E+04  0.88987759660E+02 0.  0.
    5000000    2    1    2    0    0 -0.15109963591E+04  0.89211616769E+03 -0.44865323969E+03  0.19079785352E+04  0.60009258254E+03 0.  0.
         23    2    4    4    0    0 -0.89544660628E+03  0.83647753115E+03 -0.32579990544E+03  0.12711746965E+04  0.90665570726E+02 0.  0.
         23    2    4    4    0    0 -0.61554975282E+03  0.55638636545E+02 -0.12285333426E+03  0.63680383879E+03  0.91809755960E+02 0.  0.
          1    1    3    3  502    0  0.53941996534E+03 -0.35784883059E+03 -0.32949941707E+02  0.64816308381E+03  0.00000000000E+00 0. -1.
         -1    1    3    3    0  502  0.97157639376E+03 -0.53426733711E+03  0.15026295292E+02  0.11088859571E+04  0.00000000000E+00 0.  1.
         15    1    5    5    0    0 -0.74410136523E+03  0.67866264735E+03 -0.30087699438E+03  0.10510946457E+04  0.17770000000E+01 0. -1.
        -15    1    5    5    0    0 -0.15134524105E+03  0.15781488380E+03 -0.24922911055E+02  0.22008005081E+03  0.17770000000E+01 0.  1.
          3    1    6    6  503    0 -0.55771818930E+03  0.67032874196E+02 -0.88733092257E+02  0.56869723629E+03  0.00000000000E+00 0. -1.
         -3    1    6    6    0  503 -0.57831563521E+02 -0.11394237651E+02 -0.34120241998E+02  0.68106602506E+02  0.00000000000E+00 0.  1.
<mgrwt>
<rscale>  0 0.18012801E+04</rscale>
<asrwt>0</asrwt>
<pdfrwt beam="1">  1        2 0.24603467E+00 0.18012801E+04</pdfrwt>
<pdfrwt beam="2">  1       -2 0.31781573E+00 0.18012801E+04</pdfrwt>
<totfact> 0.25140210E-01</totfact>
</mgrwt>
</event>
<event>
12    1  0.7781383E-008  0.4885562E+03  0.7818608E-02  0.1016810E+00
         -1   -1    0    0    0  501 -0.00000000000E+00  0.00000000000E+00  0.18104858458E+04  0.18104858458E+04  0.00000000000E+00 0.  1.
          1   -1    0    0  501    0  0.00000000000E+00 -0.00000000000E+00 -0.30492572438E+03  0.30492572438E+03  0.00000000000E+00 0. -1.
         23    2    1    2    0    0 -0.56760840168E+02 -0.45983433249E+03  0.12148389999E+04  0.13034714780E+04  0.92383396714E+02 0.  0.
    5000000    2    1    2    0    0  0.56760840168E+02  0.45983433249E+03  0.29072112154E+03  0.81194009218E+03  0.60004877840E+03 0.  0.
         23    2    4    4    0    0  0.10893657550E+03  0.23409141306E+03 -0.14505322275E+03  0.31014741384E+03  0.92114134249E+02 0.  0.
         23    2    4    4    0    0 -0.52175735336E+02  0.22574291943E+03  0.43577434429E+03  0.50179267834E+03  0.90633547114E+02 0.  0.
          3    1    3    3  502    0 -0.21107825780E+02 -0.20032061611E+03  0.40509677967E+03  0.45241274346E+03  0.00000000000E+00 0. -1.
         -3    1    3    3    0  502 -0.35653014388E+02 -0.25951371639E+03  0.80974222023E+03  0.85105873454E+03  0.00000000000E+00 0.  1.
         15    1    5    5    0    0  0.71032208689E+02  0.59981376546E+02 -0.71802096564E+02  0.11748207950E+03  0.17770000000E+01 0. -1.
        -15    1    5    5    0    0  0.37904366815E+02  0.17411003652E+03 -0.73251126189E+02  0.19266533434E+03  0.17770000000E+01 0.  1.
          4    1    6    6  503    0 -0.11853810716E+02  0.18445992836E+03  0.27842663264E+03  0.33419660046E+03  0.00000000000E+00 0. -1.
         -4    1    6    6    0  503 -0.40321924620E+02  0.41282991067E+02  0.15734771165E+03  0.16759607788E+03  0.00000000000E+00 0.  1.
<mgrwt>
<rscale>  0 0.48855620E+03</rscale>
<asrwt>0</asrwt>
<pdfrwt beam="1">  1        1 0.46911651E-01 0.48855620E+03</pdfrwt>
<pdfrwt beam="2">  1       -1 0.27853628E+00 0.48855620E+03</pdfrwt>
<totfact> 0.42723334E+00</totfact>
</mgrwt>
</event>
<event>
12    1  0.7781383E-008  0.5381124E+03  0.7818608E-02  0.1004284E+00
         -1   -1    0    0    0  501 -0.00000000000E+00  0.00000000000E+00  0.12933832092E+04  0.12933832092E+04  0.00000000000E+00 0.  1.
          1   -1    0    0  501    0  0.00000000000E+00 -0.00000000000E+00 -0.27802355903E+03  0.27802355903E+03  0.00000000000E+00 0. -1.
         23    2    1    2    0    0 -0.43243124140E+02 -0.41888160403E+03  0.56681097741E+03  0.71190410401E+03  0.90559390508E+02 0.  0.
    5000000    2    1    2    0    0  0.43243124140E+02  0.41888160403E+03  0.44854867280E+03  0.85950266426E+03  0.60018093273E+03 0.  0.
         23    2    4    4    0    0 -0.21422291794E+03  0.23718172047E+03  0.40030985480E+02  0.33562291481E+03  0.94306065822E+02 0.  0.
         23    2    4    4    0    0  0.25746604208E+03  0.18169988356E+03  0.40851768731E+03  0.52387974945E+03  0.90882784514E+02 0.  0.
          1    1    3    3  502    0  0.17090933069E+02 -0.21191531519E+03  0.32013610489E+03  0.38430108829E+03  0.00000000000E+00 0. -1.
         -1    1    3    3    0  502 -0.60334057210E+02 -0.20696628884E+03  0.24667487253E+03  0.32760301572E+03  0.00000000000E+00 0.  1.
         15    1    5    5    0    0 -0.15729879291E+03  0.11277053212E+03  0.18291175131E+01  0.19356292663E+03  0.17770000000E+01 0. -1.
        -15    1    5    5    0    0 -0.56924125033E+02  0.12441118835E+03  0.38201867967E+02  0.14205998818E+03  0.17770000000E+01 0.  1.
          1    1    6    6  503    0  0.82041267028E+02  0.81464573078E+02  0.89268177524E+02  0.14606866084E+03  0.00000000000E+00 0. -1.
         -1    1    6    6    0  503  0.17542477505E+03  0.10023531049E+03  0.31924950979E+03  0.37781108860E+03  0.00000000000E+00 0.  1.
<mgrwt>
<rscale>  0 0.53811238E+03</rscale>
<asrwt>0</asrwt>
<pdfrwt beam="1">  1        1 0.42772856E-01 0.53811238E+03</pdfrwt>
<pdfrwt beam="2">  1       -1 0.19898203E+00 0.53811238E+03</pdfrwt>
<totfact> 0.15648302E+01</totfact>
</mgrwt>
</event>
<event>
12    1  0.7781383E-008  0.1085835E+04  0.7818608E-02  0.9219109E-01
         -2   -1    0    0    0  501 -0.00000000000E+00  0.00000000000E+00  0.15506059285E+04  0.15506059285E+04  0.00000000000E+00 0.  1.
          2   -1    0    0  501    0  0.00000000000E+00 -0.00000000000E+00 -0.81110684864E+03  0.81110684864E+03  0.00000000000E+00 0. -1.
         23    2    1    2    0    0  0.98280465966E+03  0.32158651690E+03  0.45128881349E+03  0.11319260126E+04  0.90950634467E+02 0.  0.
    5000000    2    1    2    0    0 -0.98280465966E+03 -0.32158651690E+03  0.28821026636E+03  0.12297867645E+04  0.59998953462E+03 0.  0.
         23    2    4    4    0    0 -0.15063905970E+03  0.10554134970E+03 -0.80708552235E+02  0.22073416116E+03  0.91534674825E+02 0.  0.
         23    2    4    4    0    0 -0.83216559997E+03 -0.42712786660E+03  0.36891881860E+03  0.10090526034E+04  0.84547391792E+02 0.  0.
          4    1    3    3  502    0  0.58052108692E+03  0.18735277542E+03  0.31461237610E+03  0.68635759048E+03  0.00000000000E+00 0. -1.
         -4    1    3    3    0  502  0.40228357275E+03  0.13423374149E+03  0.13667643739E+03  0.44556842213E+03  0.00000000000E+00 0.  1.
         15    1    5    5    0    0  0.69868466671E+01 -0.25040866577E+01 -0.18079027399E+02  0.19623848680E+02  0.17770000000E+01 0. -1.
        -15    1    5    5    0    0 -0.15762590636E+03  0.10804543635E+03 -0.62629524837E+02  0.20111031247E+03  0.17770000000E+01 0.  1.
          2    1    6    6  503    0 -0.83029272075E+03 -0.41810935028E+03  0.36793691635E+03  0.99978948051E+03  0.00000000000E+00 0.  1.
         -2    1    6    6    0  503 -0.18728792200E+01 -0.90185163187E+01  0.98190224557E+00  0.92631228634E+01  0.00000000000E+00 0. -1.
<mgrwt>
<rscale>  0 0.10858348E+04</rscale>
<asrwt>0</asrwt>
<pdfrwt beam="1">  1        2 0.12478567E+00 0.10858348E+04</pdfrwt>
<pdfrwt beam="2">  1       -2 0.23855476E+00 0.10858348E+04</pdfrwt>
<totfact> 0.25236915E+00</totfact>
</mgrwt>
</event>
<event>
12    1  0.7781383E-008  0.7319652E+03  0.7818608E-02  0.9664077E-01
         -2   -1    0    0    0  501 -0.00000000000E+00  0.00000000000E+00  0.29301599165E+03  0.29301599165E+03  0.00000000000E+00 0.  1.
          2   -1    0    0  501    0  0.00000000000E+00 -0.00000000000E+00 -0.28619298003E+04  0.28619298003E+04  0.00000000000E+00 0. -1.
         23    2    1    2    0    0 -0.46581422176E+03  0.44485851251E+03 -0.29154165588E+03  0.71351792774E+03  0.96069301800E+02 0.  0.
    5000000    2    1    2    0    0  0.46581422176E+03 -0.44485851251E+03 -0.22773721528E+04  0.24414278642E+04  0.59938644346E+03 0.  0.
         23    2    4    4    0    0  0.47758044135E+03 -0.53998449095E+03 -0.20851304734E+04  0.22080645161E+04  0.90074900605E+02 0.  0.
         23    2    4    4    0    0 -0.11766219588E+02  0.95125978435E+02 -0.19224167939E+03  0.23336334814E+03  0.91182198170E+02 0.  0.
          4    1    3    3  502    0 -0.39167230775E+03  0.34534057873E+03 -0.19940531845E+03  0.55895419580E+03  0.00000000000E+00 0.  1.
         -4    1    3    3    0  502 -0.74141914005E+02  0.99517933782E+02 -0.92136337422E+02  0.15456373194E+03  0.00000000000E+00 0. -1.
         15    1    5    5    0    0  0.35917123620E+02 -0.33451802545E+02 -0.22381436543E+03  0.22913989344E+03  0.17770000000E+01 0. -1.
        -15    1    5    5    0    0  0.44166331773E+03 -0.50653268840E+03 -0.18613161079E+04  0.19789246226E+04  0.17770000000E+01 0.  1.
          2    1    6    6  503    0 -0.11583736790E+02  0.48334641202E+02 -0.17746494729E+03  0.18429386321E+03  0.00000000000E+00 0. -1.
         -2    1    6    6    0  503 -0.18248279797E+00  0.46791337234E+02 -0.14776732099E+02  0.49069484934E+02  0.00000000000E+00 0.  1.
<mgrwt>
<rscale>  0 0.73196523E+03</rscale>
<asrwt>0</asrwt>
<pdfrwt beam="1">  1        2 0.44029690E+00 0.73196523E+03</pdfrwt>
<pdfrwt beam="2">  1       -2 0.45079382E-01 0.73196523E+03</pdfrwt>
<totfact> 0.10509229E+01</totfact>
</mgrwt>
</event>
<event>
12    1  0.7781383E-008  0.6536100E+03  0.7818608E-02  0.9800029E-01
         -2   -1    0    0    0  501 -0.00000000000E+00  0.00000000000E+00  0.69564338872E+03  0.69564338872E+03  0.00000000000E+00 0.  1.
          2   -1    0    0  501    0  0.00000000000E+00 -0.00000000000E+00 -0.11239354189E+04  0.11239354189E+04  0.00000000000E+00 0. -1.
         23    2    1    2    0    0  0.17196258404E+03 -0.60100106397E+03  0.28891816279E+03  0.69481680680E+03  0.92321617309E+02 0.  0.
    5000000    2    1    2    0    0 -0.17196258404E+03  0.60100106397E+03 -0.71721019301E+03  0.11247620009E+04  0.59993807048E+03 0.  0.
         23    2    4    4    0    0 -0.13857245028E+03  0.54747304732E+03 -0.21634923616E+03  0.61161226618E+03  0.91288064021E+02 0.  0.
         23    2    4    4    0    0 -0.33390133760E+02  0.53528016650E+02 -0.50086095685E+03  0.51314973468E+03  0.92091272699E+02 0.  0.
          1    1    3    3  502    0  0.16229161332E+03 -0.42394990386E+03  0.19366565459E+03  0.49353670026E+03  0.00000000000E+00 0. -1.
         -1    1    3    3    0  502  0.96709707191E+01 -0.17705116011E+03  0.95252508199E+02  0.20128010654E+03  0.00000000000E+00 0.  1.
         15    1    5    5    0    0 -0.37771707682E+02  0.26153361471E+03 -0.62159040915E+02  0.27146535252E+03  0.17770000000E+01 0.  1.
        -15    1    5    5    0    0 -0.10080074259E+03  0.28593943262E+03 -0.15419019525E+03  0.34014691366E+03  0.17770000000E+01 0. -1.
          3    1    6    6  503    0 -0.61816534899E+02  0.50687090447E+02 -0.30897806112E+03  0.31915185630E+03  0.00000000000E+00 0. -1.
         -3    1    6    6    0  503  0.28426401139E+02  0.28409262031E+01 -0.19188289573E+03  0.19399787838E+03  0.00000000000E+00 0.  1.
<mgrwt>
<rscale>  0 0.65361003E+03</rscale>
<asrwt>0</asrwt>
<pdfrwt beam="1">  1        2 0.17291314E+00 0.65361003E+03</pdfrwt>
<pdfrwt beam="2">  1       -2 0.10702206E+00 0.65361003E+03</pdfrwt>
<totfact> 0.15236961E+01</totfact>
</mgrwt>
</event>
<event>
12    1  0.7781383E-008  0.6402467E+03  0.7818608E-02  0.9825255E-01
          1   -1    0    0  501    0  0.00000000000E+00  0.00000000000E+00  0.42189583537E+03  0.42189583537E+03  0.00000000000E+00 0. -1.
         -1   -1    0    0    0  501 -0.00000000000E+00 -0.00000000000E+00 -0.10740928205E+04  0.10740928205E+04  0.00000000000E+00 0.  1.
         23    2    1    2    0    0 -0.46885124839E+03 -0.22115239961E+03 -0.41208677154E+03  0.66756083634E+03  0.84214523525E+02 0.  0.
    5000000    2    1    2    0    0  0.46885124839E+03  0.22115239961E+03 -0.24011021355E+03  0.82842781949E+03  0.59992487904E+03 0.  0.
         23    2    4    4    0    0  0.31107465138E+02  0.30094621460E+03 -0.68061936230E+00  0.31654800960E+03  0.93090712051E+02 0.  0.
         23    2    4    4    0    0  0.43774378325E+03 -0.79793814988E+02 -0.23942959419E+03  0.51187980989E+03  0.81900772381E+02 0.  0.
          4    1    3    3  502    0 -0.15704633485E+03 -0.11070509064E+03 -0.18168904676E+03  0.26444295812E+03  0.00000000000E+00 0. -1.
         -4    1    3    3    0  502 -0.31180491353E+03 -0.11044730897E+03 -0.23039772478E+03  0.40311787823E+03  0.00000000000E+00 0.  1.
         15    1    5    5    0    0 -0.46695039675E+01  0.16646978570E+03 -0.41273991355E+02  0.17158290681E+03  0.17770000000E+01 0. -1.
        -15    1    5    5    0    0  0.35776969106E+02  0.13447642890E+03  0.40593371993E+02  0.14496510279E+03  0.17770000000E+01 0.  1.
          2    1    6    6  503    0  0.29775199047E+03 -0.16480393973E+02 -0.17019984811E+03  0.34335963582E+03  0.00000000000E+00 0. -1.
         -2    1    6    6    0  503  0.13999179278E+03 -0.63313421015E+02 -0.69229746072E+02  0.16852017406E+03  0.00000000000E+00 0.  1.
<mgrwt>
<rscale>  0 0.64024669E+03</rscale>
<asrwt>0</asrwt>
<pdfrwt beam="1">  1        1 0.64907053E-01 0.64024669E+03</pdfrwt>
<pdfrwt beam="2">  1       -1 0.16524505E+00 0.64024669E+03</pdfrwt>
<totfact> 0.15524842E+01</totfact>
</mgrwt>
</event>
<event>
12    1  0.7781383E-008  0.1109666E+04  0.7818608E-02  0.9195822E-01
          2   -1    0    0  501    0  0.00000000000E+00  0.00000000000E+00  0.15716752018E+04  0.15716752018E+04  0.00000000000E+00 0. -1.
         -2   -1    0    0    0  501 -0.00000000000E+00 -0.00000000000E+00 -0.14859118757E+04  0.14859118757E+04  0.00000000000E+00 0.  1.
         23    2    1    2    0    0 -0.36492259143E+03  0.10346476753E+04 -0.93423273852E+03  0.14437766987E+04  0.89643941840E+02 0.  0.
    5000000    2    1    2    0    0  0.36492259143E+03 -0.10346476753E+04  0.10199960646E+04  0.16138103788E+04  0.60027298553E+03 0.  0.
         23    2    4    4    0    0  0.37542210145E+03 -0.89400836972E+03  0.55905473124E+03  0.11229918692E+04  0.91519541019E+02 0.  0.
         23    2    4    4    0    0 -0.10499510019E+02 -0.14063930560E+03  0.46094133333E+03  0.49081850959E+03  0.92445890036E+02 0.  0.
          4    1    3    3  502    0 -0.15819827696E+03  0.46826487374E+03 -0.36328969728E+03  0.61341510493E+03  0.00000000000E+00 0. -1.
         -4    1    3    3    0  502 -0.20672431447E+03  0.56638280158E+03 -0.57094304125E+03  0.83036159380E+03  0.00000000000E+00 0.  1.
         15    1    5    5    0    0  0.28602816456E+03 -0.66277373418E+03  0.36965862474E+03  0.81100665238E+03  0.17770000000E+01 0.  1.
        -15    1    5    5    0    0  0.89393936885E+02 -0.23123463554E+03  0.18939610650E+03  0.31198521682E+03  0.17770000000E+01 0. -1.
          2    1    6    6  503    0  0.12407422800E+02 -0.12252425561E+03  0.25912966840E+03  0.28690472704E+03  0.00000000000E+00 0. -1.
         -2    1    6    6    0  503 -0.22906932818E+02 -0.18115049987E+02  0.20181166494E+03  0.20391378254E+03  0.00000000000E+00 0.  1.
<mgrwt>
<rscale>  0 0.11096658E+04</rscale>
<asrwt>0</asrwt>
<pdfrwt beam="1">  1        2 0.24179618E+00 0.11096658E+04</pdfrwt>
<pdfrwt beam="2">  1       -2 0.22860183E+00 0.11096658E+04</pdfrwt>
<totfact> 0.99053091E-01</totfact>
</mgrwt>
</event>
<event>
12    1  0.7781383E-008  0.1291165E+04  0.7818608E-02  0.9036601E-01
         -1   -1    0    0    0  501 -0.00000000000E+00  0.00000000000E+00  0.14003101556E+04  0.14003101556E+04  0.00000000000E+00 0.  1.
          1   -1    0    0  501    0  0.00000000000E+00 -0.00000000000E+00 -0.16794876986E+04  0.16794876986E+04  0.00000000000E+00 0. -1.
         23    2    1    2    0    0  0.11373477863E+04  0.51987199870E+03  0.64807302473E+03  0.14114064744E+04  0.90789364220E+02 0.  0.
    5000000    2    1    2    0    0 -0.11373477863E+04 -0.51987199870E+03 -0.92725056769E+03  0.16683913797E+04  0.59992441083E+03 0.  0.
         23    2    4    4    0    0 -0.56079077404E+03 -0.49617967637E+03 -0.73805167763E+03  0.10547382505E+04  0.84094796525E+02 0.  0.
         23    2    4    4    0    0 -0.57655701225E+03 -0.23692322339E+02 -0.18919889006E+03  0.61365312921E+03  0.88287193156E+02 0.  0.
          3    1    3    3  502    0  0.15034250267E+03  0.93195288410E+02  0.11744424729E+03  0.21232376483E+03  0.00000000000E+00 0. -1.
         -3    1    3    3    0  502  0.98700528363E+03  0.42667671029E+03  0.53062877744E+03  0.11990827096E+04  0.00000000000E+00 0.  1.
         15    1    5    5    0    0 -0.51751981338E+03 -0.42549445692E+03 -0.64296733127E+03  0.92859164163E+03  0.17770000000E+01 0. -1.
        -15    1    5    5    0    0 -0.43270960662E+02 -0.70685219448E+02 -0.95084346363E+02  0.12614660890E+03  0.17770000000E+01 0.  1.
          1    1    6    6  503    0 -0.25967351079E+03 -0.23847634754E+01 -0.39970813945E+02  0.26274262172E+03  0.00000000000E+00 0. -1.
         -1    1    6    6    0  503 -0.31688350146E+03 -0.21307558864E+02 -0.14922807612E+03  0.35091050749E+03  0.00000000000E+00 0.  1.
<mgrwt>
<rscale>  0 0.12911648E+04</rscale>
<asrwt>0</asrwt>
<pdfrwt beam="1">  1        1 0.25838272E+00 0.12911648E+04</pdfrwt>
<pdfrwt beam="2">  1       -1 0.21543233E+00 0.12911648E+04</pdfrwt>
<totfact> 0.56324894E-01</totfact>
</mgrwt>
</event>
<event>
12    1  0.7781383E-008  0.7215455E+03  0.7818608E-02  0.9681080E-01
          1   -1    0    0  501    0  0.00000000000E+00  0.00000000000E+00  0.14166310822E+04  0.14166310822E+04  0.00000000000E+00 0. -1.
         -1   -1    0    0    0  501 -0.00000000000E+00 -0.00000000000E+00 -0.51026146004E+03  0.51026146004E+03  0.00000000000E+00 0.  1.
         23    2    1    2    0    0 -0.20778849206E+03  0.59981991682E+03 -0.35140097296E+02  0.64253498703E+03  0.93039739185E+02 0.  0.
    5000000    2    1    2    0    0  0.20778849206E+03 -0.59981991682E+03  0.94150971947E+03  0.12843575552E+04  0.60014480565E+03 0.  0.
         23    2    4    4    0    0  0.28459535141E+03 -0.11528076462E+03  0.16294101630E+03  0.35951278396E+03  0.91736025132E+02 0.  0.
         23    2    4    4    0    0 -0.76806859350E+02 -0.48453915220E+03  0.77856870317E+03  0.92484477125E+03  0.92147391195E+02 0.  0.
          4    1    3    3  502    0 -0.14970370085E+03  0.49010531743E+03  0.36565953672E+01  0.51247223429E+03  0.00000000000E+00 0. -1.
         -4    1    3    3    0  502 -0.58084791212E+02  0.10971459939E+03 -0.38796692663E+02  0.13006275274E+03  0.00000000000E+00 0.  1.
         15    1    5    5    0    0  0.10099907338E+03 -0.79214663354E+02  0.35724864370E+02  0.13324863743E+03  0.17770000000E+01 0.  1.
        -15    1    5    5    0    0  0.18359627803E+03 -0.36066101267E+02  0.12721615193E+03  0.22626414653E+03  0.17770000000E+01 0. -1.
          1    1    6    6  503    0 -0.37461727787E+02 -0.29925475929E+03  0.39418578776E+03  0.49632572700E+03  0.00000000000E+00 0. -1.
         -1    1    6    6    0  503 -0.39345131563E+02 -0.18528439291E+03  0.38438291540E+03  0.42851904425E+03  0.00000000000E+00 0.  1.
<mgrwt>
<rscale>  0 0.72154548E+03</rscale>
<asrwt>0</asrwt>
<pdfrwt beam="1">  1        1 0.21794324E+00 0.72154548E+03</pdfrwt>
<pdfrwt beam="2">  1       -1 0.78501764E-01 0.72154548E+03</pdfrwt>
<totfact> 0.12635656E+01</totfact>
</mgrwt>
</event>
<event>
12    1  0.7781383E-008  0.1258263E+04  0.7818608E-02  0.9063334E-01
         -2   -1    0    0    0  501 -0.00000000000E+00  0.00000000000E+00  0.13909232142E+04  0.13909232142E+04  0.00000000000E+00 0.  1.
          2   -1    0    0  501    0  0.00000000000E+00 -0.00000000000E+00 -0.12271918235E+04  0.12271918235E+04  0.00000000000E+00 0. -1.
         23    2    1    2    0    0 -0.15051717724E+03 -0.11977283479E+04 -0.18783516626E+03  0.12250273112E+04  0.90560738414E+02 0.  0.
    5000000    2    1    2    0    0  0.15051717724E+03  0.11977283479E+04  0.35156655692E+03  0.13930877265E+04  0.59990478716E+03 0.  0.
         23    2    4    4    0    0 -0.10301249708E+03  0.77581714394E+02 -0.66056250363E+02  0.16780693902E+03  0.84647761975E+02 0.  0.
         23    2    4    4    0    0  0.25352967433E+03  0.11201466336E+04  0.41762280728E+03  0.12252807875E+04  0.88873070011E+02 0.  0.
          3    1    3    3  502    0 -0.92987187557E+02 -0.40030248715E+03 -0.70529139294E+02  0.41696889303E+03  0.00000000000E+00 0. -1.
         -3    1    3    3    0  502 -0.57529989686E+02 -0.79742586080E+03 -0.11730602697E+03  0.80805841815E+03  0.00000000000E+00 0.  1.
         15    1    5    5    0    0 -0.27972208930E+02  0.73895759625E+02 -0.31259263667E+02  0.84990158589E+02  0.17770000000E+01 0.  1.
        -15    1    5    5    0    0 -0.75040288154E+02  0.36859547689E+01 -0.34796986697E+02  0.82816780431E+02  0.17770000000E+01 0. -1.
          2    1    6    6  503    0  0.15948744119E+03  0.87300397393E+03  0.31801194319E+03  0.94271086682E+03  0.00000000000E+00 0. -1.
         -2    1    6    6    0  503  0.94042233138E+02  0.24714265962E+03  0.99610864092E+02  0.28256992066E+03  0.00000000000E+00 0.  1.
<mgrwt>
<rscale>  0 0.12582634E+04</rscale>
<asrwt>0</asrwt>
<pdfrwt beam="1">  1        2 0.18879874E+00 0.12582634E+04</pdfrwt>
<pdfrwt beam="2">  1       -2 0.21398819E+00 0.12582634E+04</pdfrwt>
<totfact> 0.19014182E+00</totfact>
</mgrwt>
</event>
<event>
12    1  0.7781383E-008  0.8801747E+03  0.7818608E-02  0.9450709E-01
         -1   -1    0    0    0  501 -0.00000000000E+00  0.00000000000E+00  0.85005329409E+03  0.85005329409E+03  0.00000000000E+00 0. -1.
          1   -1    0    0  501    0  0.00000000000E+00 -0.00000000000E+00 -0.11010267339E+04  0.11010267339E+04  0.00000000000E+00 0.  1.
         23    2    1    2    0    0 -0.60333283755E+03 -0.61880501298E+03 -0.22907971045E+03  0.89872560416E+03  0.91104560172E+02 0.  0.
    5000000    2    1    2    0    0  0.60333283755E+03  0.61880501298E+03 -0.21893729326E+02  0.10523544238E+04  0.60003361650E+03 0.  0.
         23    2    4    4    0    0  0.26294611217E+03  0.16836274644E+03  0.25870443261E+03  0.41539259365E+03  0.90201724569E+02 0.  0.
         23    2    4    4    0    0  0.34038672538E+03  0.45044226654E+03 -0.28059816193E+03  0.63696183014E+03  0.90684542646E+02 0.  0.
          4    1    3    3  502    0 -0.47982241022E+03 -0.44696432161E+03 -0.14904068180E+03  0.67247288047E+03  0.00000000000E+00 0. -1.
         -4    1    3    3    0  502 -0.12351042733E+03 -0.17184069138E+03 -0.80039028650E+02  0.22625272370E+03  0.00000000000E+00 0.  1.
         15    1    5    5    0    0  0.74649771645E+02  0.40178570365E+01  0.52409267321E+02  0.91316047943E+02  0.17770000000E+01 0. -1.
        -15    1    5    5    0    0  0.18829634052E+03  0.16434488941E+03  0.20629516529E+03  0.32407654571E+03  0.17770000000E+01 0.  1.
          1    1    6    6  503    0  0.19993705562E+03  0.31533955709E+03 -0.21754420677E+03  0.43213347981E+03  0.00000000000E+00 0. -1.
         -1    1    6    6    0  503  0.14044966976E+03  0.13510270945E+03 -0.63053955167E+02  0.20482835033E+03  0.00000000000E+00 0.  1.
<mgrwt>
<rscale>  0 0.88017469E+03</rscale>
<asrwt>0</asrwt>
<pdfrwt beam="1">  1        1 0.16938873E+00 0.88017469E+03</pdfrwt>
<pdfrwt beam="2">  1       -1 0.13077743E+00 0.88017469E+03</pdfrwt>
<totfact> 0.64312125E+00</totfact>
</mgrwt>
</event>
<event>
12    1  0.7781383E-008  0.4976930E+03  0.7818608E-02  0.1014383E+00
          1   -1    0    0  501    0  0.00000000000E+00  0.00000000000E+00  0.18506456730E+04  0.18506456730E+04  0.00000000000E+00 0. -1.
         -1   -1    0    0    0  501 -0.00000000000E+00 -0.00000000000E+00 -0.27495998829E+03  0.27495998829E+03  0.00000000000E+00 0.  1.
         23    2    1    2    0    0 -0.43952950373E+03  0.19576415349E+03  0.11421453043E+04  0.12425338337E+04  0.88795514026E+02 0.  0.
    5000000    2    1    2    0    0  0.43952950373E+03 -0.19576415349E+03  0.43354038042E+03  0.88307182759E+03  0.60029059862E+03 0.  0.
         23    2    4    4    0    0  0.16102358855E+03 -0.64986997150E+02 -0.12930434713E+03  0.23499469605E+03  0.91383735503E+02 0.  0.
         23    2    4    4    0    0  0.27850591518E+03 -0.13077715634E+03  0.56284472755E+03  0.64807713155E+03  0.92420623723E+02 0.  0.
          2    1    3    3  502    0 -0.32418932775E+03  0.16828387545E+03  0.93563261059E+03  0.10044035867E+04  0.00000000000E+00 0. -1.
         -2    1    3    3    0  502 -0.11534017598E+03  0.27480278044E+02  0.20651269375E+03  0.23813024704E+03  0.00000000000E+00 0.  1.
         15    1    5    5    0    0 -0.90472403379E+01 -0.96522602180E+00  0.35010854149E+01  0.99095684612E+01  0.17770000000E+01 0. -1.
        -15    1    5    5    0    0  0.17007082888E+03 -0.64021771128E+02 -0.13280543255E+03  0.22508512758E+03  0.17770000000E+01 0.  1.
          3    1    6    6  503    0  0.32509947022E+02  0.13686210714E+02  0.76439381418E+02  0.84185438472E+02  0.00000000000E+00 0. -1.
         -3    1    6    6    0  503  0.24599596816E+03 -0.14446336706E+03  0.48640534613E+03  0.56389169308E+03  0.00000000000E+00 0.  1.
<mgrwt>
<rscale>  0 0.49769296E+03</rscale>
<asrwt>0</asrwt>
<pdfrwt beam="1">  1        1 0.28471471E+00 0.49769296E+03</pdfrwt>
<pdfrwt beam="2">  1       -1 0.42301538E-01 0.49769296E+03</pdfrwt>
<totfact> 0.22400317E+01</totfact>
</mgrwt>
</event>
<event>
12    1  0.7781383E-008  0.9912615E+03  0.7818608E-02  0.9318181E-01
         -2   -1    0    0    0  501 -0.00000000000E+00  0.00000000000E+00  0.75273704898E+03  0.75273704898E+03  0.00000000000E+00 0.  1.
          2   -1    0    0  501    0  0.00000000000E+00 -0.00000000000E+00 -0.14136894571E+04  0.14136894571E+04  0.00000000000E+00 0. -1.
         23    2    1    2    0    0  0.65971531230E+03 -0.66768961301E+03 -0.38695370837E+03  0.10192569603E+04  0.90099201743E+02 0.  0.
    5000000    2    1    2    0    0 -0.65971531230E+03  0.66768961301E+03 -0.27399869975E+03  0.11471695458E+04  0.59990746505E+03 0.  0.
         23    2    4    4    0    0 -0.47817677023E+03  0.68415302999E+03 -0.37514987236E+03  0.91958264799E+03  0.90423601585E+02 0.  0.
         23    2    4    4    0    0 -0.18153854207E+03 -0.16463416983E+02  0.10115117261E+03  0.22758689776E+03  0.91306899826E+02 0.  0.
          4    1    3    3  502    0  0.49986999809E+03 -0.45709668442E+03 -0.25490695787E+03  0.72372988819E+03  0.00000000000E+00 0. -1.
         -4    1    3    3    0  502  0.15984531422E+03 -0.21059292859E+03 -0.13204675050E+03  0.29552707214E+03  0.00000000000E+00 0.  1.
         15    1    5    5    0    0 -0.13987289984E+03  0.13430689477E+03 -0.81669719304E+02  0.21041832352E+03  0.17770000000E+01 0. -1.
        -15    1    5    5    0    0 -0.33830387039E+03  0.54984613522E+03 -0.29348015305E+03  0.70916432447E+03  0.17770000000E+01 0.  1.
          1    1    6    6  503    0 -0.10575324712E+03  0.32991128433E+02  0.73566959262E+02  0.13298218425E+03  0.00000000000E+00 0. -1.
         -1    1    6    6    0  503 -0.75785294949E+02 -0.49454545416E+02  0.27584213345E+02  0.94604713512E+02  0.00000000000E+00 0.  1.
<mgrwt>
<rscale>  0 0.99126154E+03</rscale>
<asrwt>0</asrwt>
<pdfrwt beam="1">  1        2 0.21749068E+00 0.99126154E+03</pdfrwt>
<pdfrwt beam="2">  1       -2 0.11580570E+00 0.99126154E+03</pdfrwt>
<totfact> 0.81942054E+00</totfact>
</mgrwt>
</event>
<event>
12    1  0.7781383E-008  0.7107938E+03  0.7818608E-02  0.9698949E-01
          2   -1    0    0  501    0  0.00000000000E+00  0.00000000000E+00  0.19746452368E+04  0.19746452368E+04  0.00000000000E+00 0. -1.
         -2   -1    0    0    0  501 -0.00000000000E+00 -0.00000000000E+00 -0.28465912010E+03  0.28465912010E+03  0.00000000000E+00 0.  1.
         23    2    1    2    0    0  0.58661990686E+03 -0.21306867135E+03  0.63940185834E+03  0.89792429633E+03  0.88950163956E+02 0.  0.
    5000000    2    1    2    0    0 -0.58661990686E+03  0.21306867135E+03  0.10505842583E+04  0.13613800606E+04  0.60008933632E+03 0.  0.
         23    2    4    4    0    0 -0.48005296920E+03 -0.62642362391E+02  0.37608883202E+03  0.61926202176E+03  0.87565536762E+02 0.  0.
         23    2    4    4    0    0 -0.10656693766E+03  0.27571103375E+03  0.67449542633E+03  0.74211803880E+03  0.91771548067E+02 0.  0.
          4    1    3    3  502    0  0.31312335142E+02 -0.22530011496E+02  0.16494133190E+02  0.41953786238E+02  0.00000000000E+00 0. -1.
         -4    1    3    3    0  502  0.55530757171E+03 -0.19053865986E+03  0.62290772515E+03  0.85597051009E+03  0.00000000000E+00 0.  1.
         15    1    5    5    0    0 -0.41352995233E+03 -0.83342819064E+02  0.31340759731E+03  0.52552880677E+03  0.17770000000E+01 0. -1.
        -15    1    5    5    0    0 -0.66523016864E+02  0.20700456673E+02  0.62681234701E+02  0.93733214987E+02  0.17770000000E+01 0.  1.
          1    1    6    6  503    0 -0.75139900015E+02  0.95816431907E+02  0.33796061856E+03  0.35922718841E+03  0.00000000000E+00 0. -1.
         -1    1    6    6    0  503 -0.31427037643E+02  0.17989460184E+03  0.33653480777E+03  0.38289085038E+03  0.00000000000E+00 0.  1.
<mgrwt>
<rscale>  0 0.71079385E+03</rscale>
<asrwt>0</asrwt>
<pdfrwt beam="1">  1        2 0.30379157E+00 0.71079385E+03</pdfrwt>
<pdfrwt beam="2">  1       -2 0.43793712E-01 0.71079385E+03</pdfrwt>
<totfact> 0.35372691E+01</totfact>
</mgrwt>
</event>
<event>
12    1  0.7781383E-008  0.4720130E+03  0.7818608E-02  0.1021354E+00
         -2   -1    0    0    0  501 -0.00000000000E+00  0.00000000000E+00  0.72781625598E+03  0.72781625598E+03  0.00000000000E+00 0.  1.
          2   -1    0    0  501    0  0.00000000000E+00 -0.00000000000E+00 -0.48523261395E+03  0.48523261395E+03  0.00000000000E+00 0. -1.
         23    2    1    2    0    0 -0.39289396306E+02 -0.43292320028E+03  0.50626230041E+02  0.44717428965E+03  0.91845937061E+02 0.  0.
    5000000    2    1    2    0    0  0.39289396306E+02  0.43292320028E+03  0.19195741199E+03  0.76587458028E+03  0.60062473368E+03 0.  0.
         23    2    4    4    0    0  0.14146975468E+03  0.30735955049E+03 -0.14659755957E+03  0.37958212807E+03  0.90045336985E+02 0.  0.
         23    2    4    4    0    0 -0.10218035837E+03  0.12556364979E+03  0.33855497156E+03  0.38629245222E+03  0.91626055723E+02 0.  0.
          3    1    3    3  502    0 -0.26407770775E+02 -0.12852159516E+03  0.55498194602E+02  0.14246129434E+03  0.00000000000E+00 0. -1.
         -3    1    3    3    0  502 -0.12881625531E+02 -0.30440160511E+03 -0.48719645608E+01  0.30471299531E+03  0.00000000000E+00 0.  1.
         15    1    5    5    0    0  0.37887941149E+02  0.25680810650E+02 -0.55218554067E+00  0.45808981194E+02  0.17770000000E+01 0. -1.
        -15    1    5    5    0    0  0.10358181353E+03  0.28167873984E+03 -0.14604537403E+03  0.33377314687E+03  0.17770000000E+01 0.  1.
          3    1    6    6  503    0 -0.13052520596E+02  0.11037908134E+02  0.13626117053E+03  0.13732920412E+03  0.00000000000E+00 0. -1.
         -3    1    6    6    0  503 -0.89127837778E+02  0.11452574165E+03  0.20229380102E+03  0.24896324809E+03  0.00000000000E+00 0.  1.
<mgrwt>
<rscale>  0 0.47201301E+03</rscale>
<asrwt>0</asrwt>
<pdfrwt beam="1">  1        2 0.74651171E-01 0.47201301E+03</pdfrwt>
<pdfrwt beam="2">  1       -2 0.11197173E+00 0.47201301E+03</pdfrwt>
<totfact> 0.41597671E+01</totfact>
</mgrwt>
</event>
<event>
12    1  0.7781383E-008  0.7141762E+03  0.7818608E-02  0.9693292E-01
          2   -1    0    0  501    0  0.00000000000E+00  0.00000000000E+00  0.71903307908E+03  0.71903307908E+03  0.00000000000E+00 0. -1.
         -2   -1    0    0    0  501 -0.00000000000E+00 -0.00000000000E+00 -0.78610033720E+03  0.78610033720E+03  0.00000000000E+00 0.  1.
         23    2    1    2    0    0 -0.40526550841E+03 -0.44480910028E+03  0.15255734268E+03  0.62745321213E+03  0.91260739694E+02 0.  0.
    5000000    2    1    2    0    0  0.40526550841E+03  0.44480910028E+03 -0.21962460079E+03  0.87768020415E+03  0.59999358954E+03 0.  0.
         23    2    4    4    0    0  0.11734827475E+03  0.50791871817E+03 -0.68355126102E+02  0.53397109851E+03  0.93277376298E+02 0.  0.
         23    2    4    4    0    0  0.28791723366E+03 -0.63109617887E+02 -0.15126947469E+03  0.34370910564E+03  0.91511409231E+02 0.  0.
          2    1    3    3  502    0 -0.15475767608E+03 -0.23121517483E+03  0.50351014681E+02  0.28274656507E+03  0.00000000000E+00 0. -1.
         -2    1    3    3    0  502 -0.25050783233E+03 -0.21359392545E+03  0.10220632800E+03  0.34470664706E+03  0.00000000000E+00 0.  1.
         15    1    5    5    0    0  0.77081381936E+02  0.32322059705E+03 -0.88453439798E+02  0.34386081855E+03  0.17770000000E+01 0. -1.
        -15    1    5    5    0    0  0.40266892810E+02  0.18469812112E+03  0.20098313696E+02  0.19011027996E+03  0.17770000000E+01 0.  1.
          1    1    6    6  503    0  0.64724503158E+02 -0.37819549999E+02 -0.76157675766E+02  0.10686239399E+03  0.00000000000E+00 0. -1.
         -1    1    6    6    0  503  0.22319273050E+03 -0.25290067888E+02 -0.75111798927E+02  0.23684671165E+03  0.00000000000E+00 0.  1.
<mgrwt>
<rscale>  0 0.71417615E+03</rscale>
<asrwt>0</asrwt>
<pdfrwt beam="1">  1        2 0.11062047E+00 0.71417615E+03</pdfrwt>
<pdfrwt beam="2">  1       -2 0.12093851E+00 0.71417615E+03</pdfrwt>
<totfact> 0.20980831E+01</totfact>
</mgrwt>
</event>
<event>
12    1  0.7781383E-008  0.2910586E+03  0.7818608E-02  0.1089798E+00
          2   -1    0    0  501    0  0.00000000000E+00  0.00000000000E+00  0.21194026275E+04  0.21194026275E+04  0.00000000000E+00 0. -1.
         -2   -1    0    0    0  501 -0.00000000000E+00 -0.00000000000E+00 -0.11775798866E+03  0.11775798866E+03  0.00000000000E+00 0.  1.
         23    2    1    2    0    0 -0.20735507643E+03  0.14115782389E+03  0.10558932184E+04  0.10893365643E+04  0.93925516971E+02 0.  0.
    5000000    2    1    2    0    0  0.20735507643E+03 -0.14115782389E+03  0.94575142042E+03  0.11478240518E+04  0.60011052792E+03 0.  0.
         23    2    4    4    0    0  0.19450293325E+03 -0.71810245998E+02  0.99666248451E+03  0.10220740370E+04  0.91165380147E+02 0.  0.
         23    2    4    4    0    0  0.12852143184E+02 -0.69347577888E+02 -0.50911064089E+02  0.12575001485E+03  0.90812254923E+02 0.  0.
          4    1    3    3  502    0 -0.91181547889E+02  0.25289977642E+02  0.53202917468E+03  0.54037829375E+03  0.00000000000E+00 0. -1.
         -4    1    3    3    0  502 -0.11617352854E+03  0.11586784624E+03  0.52386404373E+03  0.54895827059E+03  0.00000000000E+00 0.  1.
         15    1    5    5    0    0  0.10449492662E+03  0.71129678322E+01  0.39775172601E+03  0.41131420747E+03  0.17770000000E+01 0.  1.
        -15    1    5    5    0    0  0.90008006621E+02 -0.78923213830E+02  0.59891075850E+03  0.61075982949E+03  0.17770000000E+01 0. -1.
          3    1    6    6  503    0 -0.19680791899E+02 -0.62725999854E+02 -0.93057532341E+00  0.65747628078E+02  0.00000000000E+00 0. -1.
         -3    1    6    6    0  503  0.32532935084E+02 -0.66215780338E+01 -0.49980488765E+02  0.60002386770E+02  0.00000000000E+00 0.  1.
<mgrwt>
<rscale>  0 0.29105862E+03</rscale>
<asrwt>0</asrwt>
<pdfrwt beam="1">  1        2 0.32606191E+00 0.29105862E+03</pdfrwt>
<pdfrwt beam="2">  1       -2 0.18116615E-01 0.29105862E+03</pdfrwt>
<totfact> 0.16016566E+02</totfact>
</mgrwt>
</event>
<event>
12    1  0.7781383E-008  0.1621813E+04  0.7818608E-02  0.8807258E-01
         -2   -1    0    0    0  501 -0.00000000000E+00  0.00000000000E+00  0.97464070335E+03  0.97464070335E+03  0.00000000000E+00 0.  1.
          2   -1    0    0  501    0  0.00000000000E+00 -0.00000000000E+00 -0.28977092565E+04  0.28977092565E+04  0.00000000000E+00 0. -1.
         23    2    1    2    0    0  0.94861941319E+03  0.12519322119E+04 -0.14145943824E+04  0.21157388873E+04  0.89781502884E+02 0.  0.
    5000000    2    1    2    0    0 -0.94861941319E+03 -0.12519322119E+04 -0.50847417078E+03  0.17566110726E+04  0.59993618308E+03 0.  0.
         23    2    4    4    0    0 -0.56398752898E+02  0.28639938073E+02  0.72887736993E+01  0.11047892465E+03  0.90285110552E+02 0.  0.
         23    2    4    4    0    0 -0.89222066029E+03 -0.12805721500E+04 -0.51576294448E+03  0.16461321479E+04  0.88413210050E+02 0.  0.
          1    1    3    3  502    0  0.26648662410E+03  0.37450792983E+03 -0.36299681774E+03  0.58569445961E+03  0.00000000000E+00 0.  1.
         -1    1    3    3    0  502  0.68213278909E+03  0.87742428205E+03 -0.10515975646E+04  0.15300444277E+04  0.00000000000E+00 0. -1.
         15    1    5    5    0    0  0.13360690162E+02 -0.20341180520E+02 -0.30762884918E+01  0.24594571483E+02  0.17770000000E+01 0.  1.
        -15    1    5    5    0    0 -0.69759443060E+02  0.48981118594E+02  0.10365062191E+02  0.85884353162E+02  0.17770000000E+01 0. -1.
          4    1    6    6  503    0 -0.42088869110E+03 -0.53229426831E+03 -0.24011891061E+03  0.71982051208E+03  0.00000000000E+00 0. -1.
         -4    1    6    6    0  503 -0.47133196918E+03 -0.74827788164E+03 -0.27564403388E+03  0.92631163587E+03  0.00000000000E+00 0.  1.
<mgrwt>
<rscale>  0 0.16218129E+04</rscale>
<asrwt>0</asrwt>
<pdfrwt beam="1">  1        2 0.44580143E+00 0.16218129E+04</pdfrwt>
<pdfrwt beam="2">  1       -2 0.14994472E+00 0.16218129E+04</pdfrwt>
<totfact> 0.56509480E-01</totfact>
</mgrwt>
</event>
<event>
12    1  0.7781383E-008  0.1155969E+04  0.7818608E-02  0.9152295E-01
          2   -1    0    0  501    0  0.00000000000E+00  0.00000000000E+00  0.13291995321E+04  0.13291995321E+04  0.00000000000E+00 0. -1.
         -2   -1    0    0    0  501 -0.00000000000E+00 -0.00000000000E+00 -0.11610110321E+04  0.11610110321E+04  0.00000000000E+00 0.  1.
         23    2    1    2    0    0  0.38982504641E+03  0.10108186833E+04  0.51657804899E+03  0.12037235683E+04  0.91539995888E+02 0.  0.
    5000000    2    1    2    0    0 -0.38982504641E+03 -0.10108186833E+04 -0.34838954896E+03  0.12864869959E+04  0.59996294516E+03 0.  0.
         23    2    4    4    0    0 -0.38315292403E+03 -0.10551684085E+04 -0.27024065023E+03  0.11582512586E+04  0.91265740837E+02 0.  0.
         23    2    4    4    0    0 -0.66721223790E+01  0.44349725244E+02 -0.78148898726E+02  0.12823573733E+03  0.91245485424E+02 0.  0.
          2    1    3    3  502    0  0.15806854409E+03  0.53390035156E+03  0.25341714959E+03  0.61176425339E+03  0.00000000000E+00 0. -1.
         -2    1    3    3    0  502  0.23175650233E+03  0.47691833170E+03  0.26316089940E+03  0.59195931486E+03  0.00000000000E+00 0.  1.
         15    1    5    5    0    0 -0.65921111910E+00 -0.21003622201E+01 -0.67255926621E+01  0.72963968102E+01  0.17770000000E+01 0. -1.
        -15    1    5    5    0    0 -0.38249371291E+03 -0.10530680463E+04 -0.26351505757E+03  0.11509548618E+04  0.17770000000E+01 0.  1.
          1    1    6    6  503    0  0.18302866247E+02 -0.23258947178E+02 -0.22518876320E+02  0.37189693833E+02  0.00000000000E+00 0. -1.
         -1    1    6    6    0  503 -0.24974988627E+02  0.67608672422E+02 -0.55630022406E+02  0.91046043497E+02  0.00000000000E+00 0.  1.
<mgrwt>
<rscale>  0 0.11559690E+04</rscale>
<asrwt>0</asrwt>
<pdfrwt beam="1">  1        2 0.20449223E+00 0.11559690E+04</pdfrwt>
<pdfrwt beam="2">  1       -2 0.17861708E+00 0.11559690E+04</pdfrwt>
<totfact> 0.28734849E+00</totfact>
</mgrwt>
</event>
<event>
12    1  0.7781383E-008  0.5283428E+03  0.7818608E-02  0.1006635E+00
         -1   -1    0    0    0  501 -0.00000000000E+00  0.00000000000E+00  0.21209536268E+03  0.21209536268E+03  0.00000000000E+00 0.  1.
          1   -1    0    0  501    0  0.00000000000E+00 -0.00000000000E+00 -0.27647261924E+04  0.27647261924E+04  0.00000000000E+00 0. -1.
         23    2    1    2    0    0 -0.26486790507E+03 -0.44158381838E+03 -0.33190760027E+03  0.61951068089E+03  0.92084487419E+02 0.  0.
    5000000    2    1    2    0    0  0.26486790507E+03  0.44158381838E+03 -0.22207232295E+04  0.23573108742E+04  0.60012633667E+03 0.  0.
         23    2    4    4    0    0  0.64895218762E+02  0.91905979754E+02 -0.16303316540E+04  0.16367830467E+04  0.91756968306E+02 0.  0.
         23    2    4    4    0    0  0.19997268631E+03  0.34967783863E+03 -0.59039157545E+03  0.72052782754E+03  0.91293328353E+02 0.  0.
          1    1    3    3  502    0 -0.11001236400E+03 -0.22009670614E+03 -0.20805181306E+03  0.32222792741E+03  0.00000000000E+00 0. -1.
         -1    1    3    3    0  502 -0.15485554106E+03 -0.22148711225E+03 -0.12385578721E+03  0.29728275348E+03  0.00000000000E+00 0.  1.
         15    1    5    5    0    0 -0.15795519440E+02  0.23667412527E+02 -0.67901339099E+03  0.67961164478E+03  0.17770000000E+01 0.  1.
        -15    1    5    5    0    0  0.80690738202E+02  0.68238567227E+02 -0.95131826303E+03  0.95717140189E+03  0.17770000000E+01 0. -1.
          1    1    6    6  503    0  0.15631272064E+03  0.22417065792E+03 -0.45538253843E+03  0.53109265370E+03  0.00000000000E+00 0. -1.
         -1    1    6    6    0  503  0.43659965668E+02  0.12550718071E+03 -0.13500903702E+03  0.18943517384E+03  0.00000000000E+00 0.  1.
<mgrwt>
<rscale>  0 0.52834285E+03</rscale>
<asrwt>0</asrwt>
<pdfrwt beam="1">  1        1 0.42534251E+00 0.52834285E+03</pdfrwt>
<pdfrwt beam="2">  1       -1 0.32630055E-01 0.52834285E+03</pdfrwt>
<totfact> 0.86087158E+00</totfact>
</mgrwt>
</event>
<event>
12    1  0.7781383E-008  0.9424533E+03  0.7818608E-02  0.9374015E-01
          1   -1    0    0  501    0  0.00000000000E+00  0.00000000000E+00  0.30448229030E+04  0.30448229030E+04  0.00000000000E+00 0. -1.
         -1   -1    0    0    0  501 -0.00000000000E+00 -0.00000000000E+00 -0.31209497846E+03  0.31209497846E+03  0.00000000000E+00 0.  1.
         23    2    1    2    0    0  0.83563235672E+03 -0.18095452452E+03  0.88110768878E+03  0.12309780701E+04  0.89052088201E+02 0.  0.
    5000000    2    1    2    0    0 -0.83563235672E+03  0.18095452452E+03  0.18516202358E+04  0.21259398113E+04  0.60008050156E+03 0.  0.
         23    2    4    4    0    0 -0.49781400053E+03  0.38589807962E+03  0.10567337073E+04  0.12335246558E+04  0.90337374923E+02 0.  0.
         23    2    4    4    0    0 -0.33781835619E+03 -0.20494355511E+03  0.79488652844E+03  0.89241515552E+03  0.91853765021E+02 0.  0.
          4    1    3    3  502    0  0.59023886406E+03 -0.13220483109E+03  0.67911020417E+03  0.90942328067E+03  0.00000000000E+00 0. -1.
         -4    1    3    3    0  502  0.24539349266E+03 -0.48749693429E+02  0.20199748462E+03  0.32155478948E+03  0.00000000000E+00 0.  1.
         15    1    5    5    0    0 -0.45206206178E+02  0.11444672654E+02  0.53777821882E+02  0.71202482151E+02  0.17770000000E+01 0. -1.
        -15    1    5    5    0    0 -0.45260779435E+03  0.37445340697E+03  0.10029558854E+04  0.11623221736E+04  0.17770000000E+01 0.  1.
          4    1    6    6  503    0 -0.88046666654E+02 -0.42123051969E+02  0.29092068215E+03  0.30685731264E+03  0.00000000000E+00 0.  1.
         -4    1    6    6    0  503 -0.24977168953E+03 -0.16282050314E+03  0.50396584629E+03  0.58555784288E+03  0.00000000000E+00 0. -1.
<mgrwt>
<rscale>  0 0.94245328E+03</rscale>
<asrwt>0</asrwt>
<pdfrwt beam="1">  1        1 0.46843427E+00 0.94245328E+03</pdfrwt>
<pdfrwt beam="2">  1       -1 0.48014614E-01 0.94245328E+03</pdfrwt>
<totfact> 0.24932710E+00</totfact>
</mgrwt>
</event>
<event>
12    1  0.7781383E-008  0.1629479E+04  0.7818608E-02  0.8802640E-01
          2   -1    0    0  501    0  0.00000000000E+00  0.00000000000E+00  0.16280732617E+04  0.16280732617E+04  0.00000000000E+00 0. -1.
         -2   -1    0    0    0  501 -0.00000000000E+00 -0.00000000000E+00 -0.17191113630E+04  0.17191113630E+04  0.00000000000E+00 0.  1.
         23    2    1    2    0    0  0.12431892095E+04  0.10340456598E+04  0.19378890216E+01  0.16196597945E+04  0.92326904743E+02 0.  0.
    5000000    2    1    2    0    0 -0.12431892095E+04 -0.10340456598E+04 -0.92975990241E+02  0.17275248302E+04  0.60077255841E+03 0.  0.
         23    2    4    4    0    0 -0.29195748173E+03 -0.38554557524E+03 -0.26664112452E+03  0.55966569559E+03  0.90794492140E+02 0.  0.
         23    2    4    4    0    0 -0.95123172781E+03 -0.64850008452E+03  0.17366513428E+03  0.11678591346E+04  0.91330278528E+02 0.  0.
          3    1    3    3  502    0  0.97832364748E+03  0.76476305969E+03  0.11730952179E+02  0.12418201609E+04  0.00000000000E+00 0. -1.
         -3    1    3    3    0  502  0.26486556206E+03  0.26928260007E+03 -0.97930631577E+01  0.37783963364E+03  0.00000000000E+00 0.  1.
         15    1    5    5    0    0 -0.20845991516E+03 -0.24227967651E+03 -0.21785751937E+03  0.38680749005E+03  0.17770000000E+01 0. -1.
        -15    1    5    5    0    0 -0.83497566567E+02 -0.14326589873E+03 -0.48783605147E+02  0.17285820554E+03  0.17770000000E+01 0.  1.
          3    1    6    6  503    0 -0.38217744663E+03 -0.30836699413E+03  0.96023380655E+02  0.50037015640E+03  0.00000000000E+00 0. -1.
         -3    1    6    6    0  503 -0.56905428118E+03 -0.34013309038E+03  0.77641753625E+02  0.66748897819E+03  0.00000000000E+00 0.  1.
<mgrwt>
<rscale>  0 0.16294795E+04</rscale>
<asrwt>0</asrwt>
<pdfrwt beam="1">  1        2 0.25047281E+00 0.16294795E+04</pdfrwt>
<pdfrwt beam="2">  1       -2 0.26447867E+00 0.16294795E+04</pdfrwt>
<totfact> 0.52253684E-01</totfact>
</mgrwt>
</event>
<event>
12    1  0.7781383E-008  0.1187470E+04  0.7818608E-02  0.9123895E-01
          2   -1    0    0  501    0  0.00000000000E+00  0.00000000000E+00  0.25357311600E+04  0.25357311600E+04  0.00000000000E+00 0. -1.
         -2   -1    0    0    0  501 -0.00000000000E+00 -0.00000000000E+00 -0.66219385367E+03  0.66219385367E+03  0.00000000000E+00 0.  1.
         23    2    1    2    0    0  0.10749811293E+04 -0.43375956144E+03  0.40079442787E+03  0.12299896869E+04  0.92231616921E+02 0.  0.
    5000000    2    1    2    0    0 -0.10749811293E+04  0.43375956144E+03  0.14727428784E+04  0.19679353267E+04  0.60005506311E+03 0.  0.
         23    2    4    4    0    0 -0.98572813756E+03  0.28783101346E+03  0.91713024594E+03  0.13796628631E+04  0.88515955706E+02 0.  0.
         23    2    4    4    0    0 -0.89252991691E+02  0.14592854798E+03  0.55561263246E+03  0.58827246355E+03  0.89988090235E+02 0.  0.
          3    1    3    3  502    0  0.48587584871E+03 -0.24166908270E+03  0.20629018098E+03  0.58054709082E+03  0.00000000000E+00 0. -1.
         -3    1    3    3    0  502  0.58910528054E+03 -0.19209047874E+03  0.19450424690E+03  0.64944259611E+03  0.00000000000E+00 0.  1.
         15    1    5    5    0    0 -0.20473441710E+03  0.52635586876E+02  0.23773186379E+03  0.31812935002E+03  0.17770000000E+01 0. -1.
        -15    1    5    5    0    0 -0.78099372046E+03  0.23519542658E+03  0.67939838215E+03  0.10615335131E+04  0.17770000000E+01 0.  1.
          3    1    6    6  503    0 -0.95316660421E+02  0.95893716935E+02  0.32110194733E+03  0.34840684735E+03  0.00000000000E+00 0. -1.
         -3    1    6    6    0  503  0.60636687303E+01  0.50034831050E+02  0.23451068513E+03  0.23986561620E+03  0.00000000000E+00 0.  1.
<mgrwt>
<rscale>  0 0.11874702E+04</rscale>
<asrwt>0</asrwt>
<pdfrwt beam="1">  1        2 0.39011248E+00 0.11874702E+04</pdfrwt>
<pdfrwt beam="2">  1       -2 0.10187598E+00 0.11874702E+04</pdfrwt>
<totfact> 0.25830668E+00</totfact>
</mgrwt>
</event>
<event>
12    1  0.7781383E-008  0.6685285E+03  0.7818608E-02  0.9772620E-01
         -1   -1    0    0    0  501 -0.00000000000E+00  0.00000000000E+00  0.47035268287E+03  0.47035268287E+03  0.00000000000E+00 0.  1.
          1   -1    0    0  501    0  0.00000000000E+00 -0.00000000000E+00 -0.18457732150E+04  0.18457732150E+04  0.00000000000E+00 0. -1.
         23    2    1    2    0    0 -0.15651844102E+03  0.58137280590E+03  0.96608167624E+02  0.61635446817E+03  0.89818319764E+02 0.  0.
    5000000    2    1    2    0    0  0.15651844102E+03 -0.58137280590E+03 -0.14720286998E+04  0.16997714297E+04  0.59988503772E+03 0.  0.
         23    2    4    4    0    0 -0.53846702660E+02 -0.48785863712E+03 -0.54163441982E+03  0.73650921873E+03  0.90401699911E+02 0.  0.
         23    2    4    4    0    0  0.21036514368E+03 -0.93514168785E+02 -0.93039427996E+03  0.96326221098E+03  0.96136244427E+02 0.  0.
          3    1    3    3  502    0 -0.76450492985E+02  0.13668413195E+03  0.16642708537E+02  0.15749352225E+03  0.00000000000E+00 0. -1.
         -3    1    3    3    0  502 -0.80067948037E+02  0.44468867395E+03  0.79965459087E+02  0.45886094592E+03  0.00000000000E+00 0.  1.
         15    1    5    5    0    0 -0.19961774201E+02 -0.22427810045E+03 -0.31521359017E+03  0.38737824400E+03  0.17770000000E+01 0.  1.
        -15    1    5    5    0    0 -0.33884928459E+02 -0.26358053667E+03 -0.22642082966E+03  0.34913097473E+03  0.17770000000E+01 0. -1.
          1    1    6    6  503    0  0.22091719134E+02 -0.33392443239E+02 -0.29870261902E+03  0.30137410959E+03  0.00000000000E+00 0. -1.
         -1    1    6    6    0  503  0.18827342455E+03 -0.60121725545E+02 -0.63169166094E+03  0.66188810140E+03  0.00000000000E+00 0.  1.
<mgrwt>
<rscale>  0 0.66852852E+03</rscale>
<asrwt>0</asrwt>
<pdfrwt beam="1">  1        1 0.28396511E+00 0.66852852E+03</pdfrwt>
<pdfrwt beam="2">  1       -1 0.72361951E-01 0.66852852E+03</pdfrwt>
<totfact> 0.77430919E+00</totfact>
</mgrwt>
</event>
<event>
12    1  0.7781383E-008  0.7234620E+03  0.7818608E-02  0.9677929E-01
          2   -1    0    0  501    0  0.00000000000E+00  0.00000000000E+00  0.15297773515E+04  0.15297773515E+04  0.00000000000E+00 0. -1.
         -2   -1    0    0    0  501 -0.00000000000E+00 -0.00000000000E+00 -0.75111473258E+03  0.75111473258E+03  0.00000000000E+00 0.  1.
         23    2    1    2    0    0  0.21013722968E+03 -0.62127496402E+03 -0.42330547550E+03  0.78606885992E+03  0.92609344739E+02 0.  0.
    5000000    2    1    2    0    0 -0.21013722968E+03  0.62127496402E+03  0.12019680944E+04  0.14948232241E+04  0.59969069970E+03 0.  0.
         23    2    4    4    0    0  0.53260755654E+02  0.48452322479E+03  0.10223960133E+04  0.11360572249E+04  0.87937175502E+02 0.  0.
         23    2    4    4    0    0 -0.26339798533E+03  0.13675173922E+03  0.17957208112E+03  0.35876599925E+03  0.91582602286E+02 0.  0.
          4    1    3    3  502    0  0.30120392714E+02 -0.43340582757E+02 -0.60756401552E+02  0.80479714839E+02  0.00000000000E+00 0.  1.
         -4    1    3    3    0  502  0.18001683697E+03 -0.57793438126E+03 -0.36254907395E+03  0.70558914508E+03  0.00000000000E+00 0. -1.
         15    1    5    5    0    0 -0.74426459129E+01  0.14019300802E+03  0.37240137920E+03  0.39798921773E+03  0.17770000000E+01 0. -1.
        -15    1    5    5    0    0  0.60703401567E+02  0.34433021678E+03  0.64999463407E+03  0.73806800717E+03  0.17770000000E+01 0.  1.
          1    1    6    6  503    0 -0.19318905719E+03  0.82580996400E+02  0.16865601952E+03  0.26941879241E+03  0.00000000000E+00 0. -1.
         -1    1    6    6    0  503 -0.70208928142E+02  0.54170742823E+02  0.10916061603E+02  0.89347206838E+02  0.00000000000E+00 0.  1.
<mgrwt>
<rscale>  0 0.72346202E+03</rscale>
<asrwt>0</asrwt>
<pdfrwt beam="1">  1        2 0.23535036E+00 0.72346202E+03</pdfrwt>
<pdfrwt beam="2">  1       -2 0.11555611E+00 0.72346202E+03</pdfrwt>
<totfact> 0.73263585E+00</totfact>
</mgrwt>
</event>
<event>
12    1  0.7781383E-008  0.8214289E+03  0.7818608E-02  0.9529507E-01
         -2   -1    0    0    0  501 -0.00000000000E+00  0.00000000000E+00  0.31668711364E+04  0.31668711364E+04  0.00000000000E+00 0.  1.
          2   -1    0    0  501    0  0.00000000000E+00 -0.00000000000E+00 -0.52705152789E+03  0.52705152789E+03  0.00000000000E+00 0. -1.
         23    2    1    2    0    0 -0.21744027324E+03 -0.71535413944E+03 -0.12917537976E+03  0.76378193572E+03  0.87548554318E+02 0.  0.
    5000000    2    1    2    0    0  0.21744027324E+03  0.71535413944E+03  0.27689949883E+04  0.29301407286E+04  0.59948279956E+03 0.  0.
         23    2    4    4    0    0  0.44189623745E+02 -0.58808346843E+02  0.14348488504E+03  0.18577317260E+03  0.92263833211E+02 0.  0.
         23    2    4    4    0    0  0.17325064950E+03  0.77416248628E+03  0.26255101032E+04  0.27443675560E+04  0.94374982964E+02 0.  0.
          3    1    3    3  502    0 -0.36593837496E+02 -0.25338255439E+03 -0.28854724161E+02  0.25763234059E+03  0.00000000000E+00 0. -1.
         -3    1    3    3    0  502 -0.18084643575E+03 -0.46197158505E+03 -0.10032065560E+03  0.50614959514E+03  0.00000000000E+00 0.  1.
         15    1    5    5    0    0 -0.13058429097E+02 -0.84581853779E+01 -0.69348579374E+01  0.17126396410E+02  0.17770000000E+01 0. -1.
        -15    1    5    5    0    0  0.57248052842E+02 -0.50350161465E+02  0.15041974298E+03  0.16864677619E+03  0.17770000000E+01 0.  1.
          4    1    6    6  503    0  0.88466121398E+02  0.58331917586E+03  0.19212109876E+04  0.20097609745E+04  0.00000000000E+00 0. -1.
         -4    1    6    6    0  503  0.84784528099E+02  0.19084331042E+03  0.70429911562E+03  0.73460658151E+03  0.00000000000E+00 0.  1.
<mgrwt>
<rscale>  0 0.82142889E+03</rscale>
<asrwt>0</asrwt>
<pdfrwt beam="1">  1        2 0.81084852E-01 0.82142889E+03</pdfrwt>
<pdfrwt beam="2">  1       -2 0.48721093E+00 0.82142889E+03</pdfrwt>
<totfact> 0.12032822E-01</totfact>
</mgrwt>
</event>
<event>
12    1  0.7781383E-008  0.3603666E+03  0.7818608E-02  0.1058439E+00
         -1   -1    0    0    0  501 -0.00000000000E+00  0.00000000000E+00  0.18786608911E+03  0.18786608911E+03  0.00000000000E+00 0.  1.
          1   -1    0    0  501    0  0.00000000000E+00 -0.00000000000E+00 -0.10395793945E+04  0.10395793945E+04  0.00000000000E+00 0. -1.
         23    2    1    2    0    0  0.22754711014E+03 -0.23392798557E+02 -0.19567846004E+03  0.30946601559E+03  0.71793068785E+02 0.  0.
    5000000    2    1    2    0    0 -0.22754711014E+03  0.23392798557E+02 -0.65603484531E+03  0.91797946798E+03  0.59998306227E+03 0.  0.
         23    2    4    4    0    0 -0.35419539166E+03  0.73901918624E+01 -0.16729918212E+03  0.40435652228E+03  0.10003094703E+03 0.  0.
         23    2    4    4    0    0  0.12664828152E+03  0.16002606695E+02 -0.48873566319E+03  0.51362294570E+03  0.93005974244E+02 0.  0.
          3    1    3    3  502    0  0.55822270009E+02 -0.16921373966E+01 -0.92221310272E+02  0.10781353916E+03  0.00000000000E+00 0. -1.
         -3    1    3    3    0  502  0.17172484013E+03 -0.21700661161E+02 -0.10345714976E+03  0.20165247643E+03  0.00000000000E+00 0.  1.
         15    1    5    5    0    0 -0.14581407495E+03 -0.24440230810E+02 -0.24846433145E+02  0.14993189222E+03  0.17770000000E+01 0.  1.
        -15    1    5    5    0    0 -0.20838131671E+03  0.31830422673E+02 -0.14245274898E+03  0.25442463007E+03  0.17770000000E+01 0. -1.
          3    1    6    6  503    0  0.63796668796E+02  0.27086253726E+02 -0.38962333120E+03  0.39573983917E+03  0.00000000000E+00 0. -1.
         -3    1    6    6    0  503  0.62851612723E+02 -0.11083647031E+02 -0.99112331993E+02  0.11788310654E+03  0.00000000000E+00 0.  1.
<mgrwt>
<rscale>  0 0.36036656E+03</rscale>
<asrwt>0</asrwt>
<pdfrwt beam="1">  1        1 0.15993529E+00 0.36036656E+03</pdfrwt>
<pdfrwt beam="2">  1       -1 0.28902475E-01 0.36036656E+03</pdfrwt>
<totfact> 0.16204409E+02</totfact>
</mgrwt>
</event>
<event>
12    1  0.8099712E-008  0.6352565E+03  0.7818608E-02  0.9834844E-01
         -1   -1    0    0    0  501 -0.00000000000E+00  0.00000000000E+00  0.29602515581E+03  0.29602515581E+03  0.00000000000E+00 0.  1.
          1   -1    0    0  501    0  0.00000000000E+00 -0.00000000000E+00 -0.18888665083E+04  0.18888665083E+04  0.00000000000E+00 0. -1.
         23    2    1    2    0    0 -0.35481506851E+03  0.44483567993E+03 -0.10435138987E+04  0.11920917445E+04  0.91591241500E+02 0.  0.
    5000000    2    1    2    0    0  0.35481506851E+03 -0.44483567993E+03 -0.54932745384E+03  0.99279991965E+03  0.60009875349E+03 0.  0.
         23    2    4    4    0    0  0.12906806155E+03  0.60346049819E+02  0.45583140497E+02  0.17529234591E+03  0.91374906831E+02 0.  0.
         23    2    4    4    0    0  0.22574700696E+03 -0.50518172975E+03 -0.59491059433E+03  0.81750757374E+03  0.90717840809E+02 0.  0.
          3    1    3    3  502    0 -0.20747674603E+03  0.20769974978E+03 -0.60101158839E+03  0.66888019523E+03  0.00000000000E+00 0. -1.
         -3    1    3    3    0  502 -0.14733832248E+03  0.23713593016E+03 -0.44250231027E+03  0.52321154922E+03  0.00000000000E+00 0.  1.
         15    1    5    5    0    0  0.82827494033E+02  0.49364953666E+02 -0.15711565596E+02  0.97710303657E+02  0.17770000000E+01 0. -1.
        -15    1    5    5    0    0  0.46240567512E+02  0.10981096153E+02  0.61294706093E+02  0.77582042256E+02  0.17770000000E+01 0.  1.
          2    1    6    6  503    0  0.12506199901E+03 -0.25304997770E+03 -0.23893353918E+03  0.36981621241E+03  0.00000000000E+00 0. -1.
         -2    1    6    6    0  503  0.10068500795E+03 -0.25213175205E+03 -0.35597705515E+03  0.44769136133E+03  0.00000000000E+00 0.  1.
<mgrwt>
<rscale>  0 0.63525649E+03</rscale>
<asrwt>0</asrwt>
<pdfrwt beam="1">  1        1 0.29059485E+00 0.63525649E+03</pdfrwt>
<pdfrwt beam="2">  1       -1 0.45542332E-01 0.63525649E+03</pdfrwt>
<totfact> 0.17978836E+01</totfact>
</mgrwt>
</event>
<event>
12    1  0.7781383E-008  0.1257238E+04  0.7818608E-02  0.9064180E-01
         -1   -1    0    0    0  501 -0.00000000000E+00  0.00000000000E+00  0.13679000864E+04  0.13679000864E+04  0.00000000000E+00 0.  1.
          1   -1    0    0  501    0  0.00000000000E+00 -0.00000000000E+00 -0.16188976962E+04  0.16188976962E+04  0.00000000000E+00 0. -1.
         23    2    1    2    0    0 -0.10955814892E+03  0.12362948369E+04 -0.82584748727E+03  0.14932075894E+04  0.84952464222E+02 0.  0.
    5000000    2    1    2    0    0  0.10955814892E+03 -0.12362948369E+04  0.57484987746E+03  0.14935901933E+04  0.59994280748E+03 0.  0.
         23    2    4    4    0    0 -0.70786227607E+02 -0.14020158315E+03 -0.82566420823E+02  0.19947350973E+03  0.91133381932E+02 0.  0.
         23    2    4    4    0    0  0.18034437653E+03 -0.10960932537E+04  0.65741629828E+03  0.12941166836E+04  0.92721553280E+02 0.  0.
          2    1    3    3  502    0 -0.10063822983E+03  0.66135040878E+03 -0.45179986858E+03  0.80723945503E+03  0.00000000000E+00 0. -1.
         -2    1    3    3    0  502 -0.89199190943E+01  0.57494442807E+03 -0.37404761868E+03  0.68596813437E+03  0.00000000000E+00 0.  1.
         15    1    5    5    0    0 -0.74829578693E+01 -0.25416270450E+02 -0.61114292053E+02  0.66634044483E+02  0.17770000000E+01 0. -1.
        -15    1    5    5    0    0 -0.63303269738E+02 -0.11478531270E+03 -0.21452128770E+02  0.13283946525E+03  0.17770000000E+01 0.  1.
          2    1    6    6  503    0  0.12555828814E+03 -0.55687316677E+03  0.30000330384E+03  0.64488339249E+03  0.00000000000E+00 0. -1.
         -2    1    6    6    0  503  0.54786088388E+02 -0.53922008693E+03  0.35741299444E+03  0.64923329107E+03  0.00000000000E+00 0.  1.
<mgrwt>
<rscale>  0 0.12572382E+04</rscale>
<asrwt>0</asrwt>
<pdfrwt beam="1">  1        1 0.24906118E+00 0.12572382E+04</pdfrwt>
<pdfrwt beam="2">  1       -1 0.21044617E+00 0.12572382E+04</pdfrwt>
<totfact> 0.67265651E-01</totfact>
</mgrwt>
</event>
<event>
12    1  0.7781383E-008  0.7707965E+03  0.7818608E-02  0.9603277E-01
          2   -1    0    0  501    0  0.00000000000E+00  0.00000000000E+00  0.12827609563E+04  0.12827609563E+04  0.00000000000E+00 0. -1.
         -2   -1    0    0    0  501 -0.00000000000E+00 -0.00000000000E+00 -0.50572804227E+03  0.50572804227E+03  0.00000000000E+00 0.  1.
         23    2    1    2    0    0 -0.66317484748E+03  0.83239043745E+02  0.14633365603E+03  0.69099179807E+03  0.96573854512E+02 0.  0.
    5000000    2    1    2    0    0  0.66317484748E+03 -0.83239043745E+02  0.63069925797E+03  0.10974972005E+04  0.59999077850E+03 0.  0.
         23    2    4    4    0    0  0.72686515744E+03 -0.17735148367E+03  0.50487449329E+03  0.90718602063E+03  0.91113754125E+02 0.  0.
         23    2    4    4    0    0 -0.63690309960E+02  0.94112439924E+02  0.12582476469E+03  0.19031117984E+03  0.86445745017E+02 0.  0.
          4    1    3    3  502    0 -0.21405462470E+03 -0.28894929263E+00  0.83958672082E+02  0.22993156474E+03  0.00000000000E+00 0.  1.
         -4    1    3    3    0  502 -0.44912022278E+03  0.83527993038E+02  0.62374983949E+02  0.46106023333E+03  0.00000000000E+00 0. -1.
         15    1    5    5    0    0  0.36133149461E+03 -0.11151821867E+03  0.30217813067E+03  0.48405737519E+03  0.17770000000E+01 0. -1.
        -15    1    5    5    0    0  0.36553366283E+03 -0.65833265003E+02  0.20269636262E+03  0.42312864544E+03  0.17770000000E+01 0.  1.
          1    1    6    6  503    0 -0.47031858031E+02  0.32121754775E+02  0.11050446050E+03  0.12431829548E+03  0.00000000000E+00 0. -1.
         -1    1    6    6    0  503 -0.16658451929E+02  0.61990685149E+02  0.15320304187E+02  0.65992884361E+02  0.00000000000E+00 0.  1.
<mgrwt>
<rscale>  0 0.77079646E+03</rscale>
<asrwt>0</asrwt>
<pdfrwt beam="1">  1        2 0.19734784E+00 0.77079646E+03</pdfrwt>
<pdfrwt beam="2">  1       -2 0.77804315E-01 0.77079646E+03</pdfrwt>
<totfact> 0.25338276E+01</totfact>
</mgrwt>
</event>
<event>
12    1  0.7781383E-008  0.8786485E+03  0.7818608E-02  0.9452673E-01
         -2   -1    0    0    0  501 -0.00000000000E+00  0.00000000000E+00  0.71033529912E+03  0.71033529912E+03  0.00000000000E+00 0.  1.
          2   -1    0    0  501    0  0.00000000000E+00 -0.00000000000E+00 -0.25142180662E+04  0.25142180662E+04  0.00000000000E+00 0. -1.
         23    2    1    2    0    0  0.29314069012E+03 -0.76507087696E+03 -0.20240593817E+04  0.21853312216E+04  0.87127817176E+02 0.  0.
    5000000    2    1    2    0    0 -0.29314069012E+03  0.76507087696E+03  0.22017661464E+03  0.10392221437E+04  0.60019997613E+03 0.  0.
         23    2    4    4    0    0 -0.38460130702E+03  0.41555339104E+03 -0.54786424425E+02  0.57610175920E+03  0.91043387887E+02 0.  0.
         23    2    4    4    0    0  0.91460616901E+02  0.34951748591E+03  0.27496303906E+03  0.46312038450E+03  0.91369033503E+02 0.  0.
          1    1    3    3  502    0  0.13030039843E+03 -0.42843773959E+03 -0.11813273878E+04  0.12633572289E+04  0.00000000000E+00 0. -1.
         -1    1    3    3    0  502  0.16284029169E+03 -0.33663313737E+03 -0.84273199388E+03  0.92197399274E+03  0.00000000000E+00 0.  1.
         15    1    5    5    0    0 -0.22662453109E+03  0.17817495252E+03 -0.31701700931E+02  0.29002266699E+03  0.17770000000E+01 0. -1.
        -15    1    5    5    0    0 -0.15797677593E+03  0.23737843853E+03 -0.23084723494E+02  0.28607909221E+03  0.17770000000E+01 0.  1.
          1    1    6    6  503    0  0.57957622361E+02  0.26331077761E+03  0.15282254709E+03  0.30991350809E+03  0.00000000000E+00 0. -1.
         -1    1    6    6    0  503  0.33502994540E+02  0.86206708301E+02  0.12214049198E+03  0.15320687641E+03  0.00000000000E+00 0.  1.
<mgrwt>
<rscale>  0 0.87864849E+03</rscale>
<asrwt>0</asrwt>
<pdfrwt beam="1">  1        2 0.38680278E+00 0.87864849E+03</pdfrwt>
<pdfrwt beam="2">  1       -2 0.10928235E+00 0.87864849E+03</pdfrwt>
<totfact> 0.23417161E+00</totfact>
</mgrwt>
</event>
<event>
12    1  0.7781383E-008  0.7347428E+03  0.7818608E-02  0.9659595E-01
          2   -1    0    0  501    0  0.00000000000E+00  0.00000000000E+00  0.13613698492E+04  0.13613698492E+04  0.00000000000E+00 0. -1.
         -2   -1    0    0    0  501 -0.00000000000E+00 -0.00000000000E+00 -0.79485212959E+03  0.79485212959E+03  0.00000000000E+00 0.  1.
         23    2    1    2    0    0  0.61290843251E+03 -0.28630326871E+03 -0.43309016557E+03  0.80830438759E+03  0.90347015258E+02 0.  0.
    5000000    2    1    2    0    0 -0.61290843251E+03  0.28630326871E+03  0.99960788518E+03  0.13479175912E+04  0.60003299929E+03 0.  0.
         23    2    4    4    0    0 -0.13446130759E+03  0.26834563917E+03  0.72154175051E+03  0.78676206334E+03  0.91010006491E+02 0.  0.
         23    2    4    4    0    0 -0.47844712492E+03  0.17957629535E+02  0.27806613467E+03  0.56115552786E+03  0.91327013498E+02 0.  0.
          2    1    3    3  502    0  0.25956287719E+03 -0.15484747499E+03 -0.15384845305E+03  0.33914594827E+03  0.00000000000E+00 0. -1.
         -2    1    3    3    0  502  0.35334555532E+03 -0.13145579372E+03 -0.27924171253E+03  0.46915843931E+03  0.00000000000E+00 0.  1.
         15    1    5    5    0    0 -0.13078928332E+03  0.17749685208E+03  0.46621005961E+03  0.51571886386E+03  0.17770000000E+01 0. -1.
        -15    1    5    5    0    0 -0.36720242692E+01  0.90848787097E+02  0.25533169090E+03  0.27104319948E+03  0.17770000000E+01 0.  1.
          2    1    6    6  503    0 -0.35535242336E+03  0.11145307127E+02  0.25026052949E+03  0.43477568386E+03  0.00000000000E+00 0. -1.
         -2    1    6    6    0  503 -0.12309470156E+03  0.68123224085E+01  0.27805605179E+02  0.12637984400E+03  0.00000000000E+00 0.  1.
<mgrwt>
<rscale>  0 0.73474279E+03</rscale>
<asrwt>0</asrwt>
<pdfrwt beam="1">  1        2 0.20944152E+00 0.73474279E+03</pdfrwt>
<pdfrwt beam="2">  1       -2 0.12228494E+00 0.73474279E+03</pdfrwt>
<totfact> 0.79061744E+00</totfact>
</mgrwt>
</event>
<event>
12    1  0.7781383E-008  0.1203334E+04  0.7818608E-02  0.9109943E-01
         -2   -1    0    0    0  501 -0.00000000000E+00  0.00000000000E+00  0.36895490204E+03  0.36895490204E+03  0.00000000000E+00 0.  1.
          2   -1    0    0  501    0  0.00000000000E+00 -0.00000000000E+00 -0.39643771776E+04  0.39643771776E+04  0.00000000000E+00 0. -1.
         23    2    1    2    0    0 -0.11437838044E+03 -0.11267577315E+04 -0.16027821605E+04  0.19641539807E+04  0.79528653761E+02 0.  0.
    5000000    2    1    2    0    0  0.11437838044E+03  0.11267577315E+04 -0.19926401151E+04  0.23691780989E+04  0.59977065339E+03 0.  0.
         23    2    4    4    0    0 -0.13801162810E+03  0.51895251191E+02 -0.23376792983E+03  0.29036584048E+03  0.89019939990E+02 0.  0.
         23    2    4    4    0    0  0.25239000855E+03  0.10748624803E+04 -0.17588721853E+04  0.20788122584E+04  0.93802844788E+02 0.  0.
          1    1    3    3  502    0 -0.19446299629E+02 -0.52055823742E+03 -0.77340333315E+03  0.93247614063E+03  0.00000000000E+00 0. -1.
         -1    1    3    3    0  502 -0.94932080814E+02 -0.60619949407E+03 -0.82937882731E+03  0.10316778401E+04  0.00000000000E+00 0.  1.
         15    1    5    5    0    0 -0.11870186415E+03  0.69855349311E+02 -0.15539043560E+03  0.20765174592E+03  0.17770000000E+01 0. -1.
        -15    1    5    5    0    0 -0.19309763956E+02 -0.17960098120E+02 -0.78377494233E+02  0.82714094565E+02  0.17770000000E+01 0.  1.
          3    1    6    6  503    0  0.11025662007E+03  0.66736523032E+03 -0.10865835748E+04  0.12799205983E+04  0.00000000000E+00 0. -1.
         -3    1    6    6    0  503  0.14213338848E+03  0.40749724998E+03 -0.67228861051E+03  0.79889166016E+03  0.00000000000E+00 0.  1.
<mgrwt>
<rscale>  0 0.12033341E+04</rscale>
<asrwt>0</asrwt>
<pdfrwt beam="1">  1        2 0.60990415E+00 0.12033341E+04</pdfrwt>
<pdfrwt beam="2">  1       -2 0.56762296E-01 0.12033341E+04</pdfrwt>
<totfact> 0.10837118E+00</totfact>
</mgrwt>
</event>
<event>
12    1  0.7781383E-008  0.6732956E+03  0.7818608E-02  0.9764023E-01
          2   -1    0    0  501    0  0.00000000000E+00  0.00000000000E+00  0.79434019948E+03  0.79434019948E+03  0.00000000000E+00 0. -1.
         -2   -1    0    0    0  501 -0.00000000000E+00 -0.00000000000E+00 -0.67808490982E+03  0.67808490982E+03  0.00000000000E+00 0.  1.
         23    2    1    2    0    0 -0.56844488453E+03 -0.13759960518E+03 -0.11543434225E+03  0.60310402131E+03  0.91357183965E+02 0.  0.
    5000000    2    1    2    0    0  0.56844488453E+03  0.13759960518E+03  0.23168963190E+03  0.86932108799E+03  0.59997985833E+03 0.  0.
         23    2    4    4    0    0  0.63688213148E+03  0.14466723304E+03  0.31229975495E+03  0.72983870000E+03  0.92660311712E+02 0.  0.
         23    2    4    4    0    0 -0.68437246952E+02 -0.70676278589E+01 -0.80610123045E+02  0.13948238799E+03  0.90684819500E+02 0.  0.
          2    1    3    3  502    0 -0.24651945443E+03 -0.84809691957E+02 -0.12400653254E+02  0.26099483034E+03  0.00000000000E+00 0. -1.
         -2    1    3    3    0  502 -0.32192543010E+03 -0.52789913225E+02 -0.10303368899E+03  0.34210919097E+03  0.00000000000E+00 0.  1.
         15    1    5    5    0    0  0.51257842284E+03  0.95065184913E+02  0.21289945064E+03  0.56311931485E+03  0.17770000000E+01 0. -1.
        -15    1    5    5    0    0  0.12430370864E+03  0.49602048128E+02  0.99400304312E+02  0.16671938515E+03  0.17770000000E+01 0.  1.
          3    1    6    6  503    0 -0.55208251713E+02  0.31611559040E+02 -0.20596639983E+02  0.66869001045E+02  0.00000000000E+00 0. -1.
         -3    1    6    6    0  503 -0.13228995239E+02 -0.38679186899E+02 -0.60013483062E+02  0.72613386944E+02  0.00000000000E+00 0.  1.
<mgrwt>
<rscale>  0 0.67329557E+03</rscale>
<asrwt>0</asrwt>
<pdfrwt beam="1">  1        2 0.12220618E+00 0.67329557E+03</pdfrwt>
<pdfrwt beam="2">  1       -2 0.10432076E+00 0.67329557E+03</pdfrwt>
<totfact> 0.26528395E+01</totfact>
</mgrwt>
</event>
<event>
12    1  0.7781383E-008  0.8088381E+03  0.7818608E-02  0.9547312E-01
         -2   -1    0    0    0  501 -0.00000000000E+00  0.00000000000E+00  0.61907993176E+03  0.61907993176E+03  0.00000000000E+00 0. -1.
          2   -1    0    0  501    0  0.00000000000E+00 -0.00000000000E+00 -0.11693343749E+04  0.11693343749E+04  0.00000000000E+00 0.  1.
         23    2    1    2    0    0  0.70246438771E+03  0.10528340175E+03 -0.46844730299E+03  0.85507397061E+03  0.84662913092E+02 0.  0.
    5000000    2    1    2    0    0 -0.70246438771E+03 -0.10528340175E+03 -0.81807140148E+02  0.93334033604E+03  0.59990912980E+03 0.  0.
         23    2    4    4    0    0 -0.46756533270E+03  0.20047957305E+03  0.40916782783E+02  0.51849120136E+03  0.91375834979E+02 0.  0.
         23    2    4    4    0    0 -0.23489905501E+03 -0.30576297481E+03 -0.12272392293E+03  0.41484913468E+03  0.91488143930E+02 0.  0.
          3    1    3    3  502    0  0.38976400713E+03  0.34027721084E+02 -0.29849011578E+03  0.49210793153E+03  0.00000000000E+00 0. -1.
         -3    1    3    3    0  502  0.31270038058E+03  0.71255680671E+02 -0.16995718721E+03  0.36296603908E+03  0.00000000000E+00 0.  1.
         15    1    5    5    0    0 -0.38734454256E+03  0.14202083165E+03  0.40319805468E+01  0.41258347745E+03  0.17770000000E+01 0.  1.
        -15    1    5    5    0    0 -0.80220790139E+02  0.58458741403E+02  0.36884802236E+02  0.10590772390E+03  0.17770000000E+01 0. -1.
          1    1    6    6  503    0 -0.77335639826E+02 -0.16650811858E+03 -0.80037306259E+02  0.20027911807E+03  0.00000000000E+00 0. -1.
         -1    1    6    6    0  503 -0.15756341519E+03 -0.13925485623E+03 -0.42686616672E+02  0.21457001662E+03  0.00000000000E+00 0.  1.
<mgrwt>
<rscale>  0 0.80883806E+03</rscale>
<asrwt>0</asrwt>
<pdfrwt beam="1">  1        2 0.17989759E+00 0.80883806E+03</pdfrwt>
<pdfrwt beam="2">  1       -2 0.95243068E-01 0.80883806E+03</pdfrwt>
<totfact> 0.18533943E+01</totfact>
</mgrwt>
</event>
<event>
12    1  0.7781383E-008  0.4754926E+03  0.7818608E-02  0.1020381E+00
          1   -1    0    0  501    0  0.00000000000E+00  0.00000000000E+00  0.68902742528E+03  0.68902742528E+03  0.00000000000E+00 0. -1.
         -1   -1    0    0    0  501 -0.00000000000E+00 -0.00000000000E+00 -0.55162571190E+03  0.55162571190E+03  0.00000000000E+00 0.  1.
         23    2    1    2    0    0 -0.24134484838E+03  0.39248878683E+03 -0.10627587389E+02  0.46908793824E+03  0.87382861963E+02 0.  0.
    5000000    2    1    2    0    0  0.24134484838E+03 -0.39248878683E+03  0.14802930077E+03  0.77156519895E+03  0.60092045956E+03 0.  0.
         23    2    4    4    0    0  0.11603425211E+03 -0.19781992979E+03 -0.21811179459E+03  0.32849907551E+03  0.87989859569E+02 0.  0.
         23    2    4    4    0    0  0.12531059627E+03 -0.19466885704E+03  0.36614109536E+03  0.44306612344E+03  0.93003110633E+02 0.  0.
          3    1    3    3  502    0 -0.21189051103E+03  0.27497757111E+03  0.31539533713E+01  0.34716019458E+03  0.00000000000E+00 0. -1.
         -3    1    3    3    0  502 -0.29454337341E+02  0.11751121572E+03 -0.13781540761E+02  0.12192774366E+03  0.00000000000E+00 0.  1.
         15    1    5    5    0    0  0.17634154631E+02 -0.11193961615E+03 -0.12060599472E+03  0.16550046757E+03  0.17770000000E+01 0.  1.
        -15    1    5    5    0    0  0.98400097474E+02 -0.85880313641E+02 -0.97505799869E+02  0.16299860794E+03  0.17770000000E+01 0. -1.
          2    1    6    6  503    0  0.30225820150E+02 -0.11457227292E+02  0.14745055352E+02  0.35528649261E+02  0.00000000000E+00 0. -1.
         -2    1    6    6    0  503  0.95084776120E+02 -0.18321162975E+03  0.35139604001E+03  0.40753747418E+03  0.00000000000E+00 0.  1.
<mgrwt>
<rscale>  0 0.47549260E+03</rscale>
<asrwt>0</asrwt>
<pdfrwt beam="1">  1        1 0.10600422E+00 0.47549260E+03</pdfrwt>
<pdfrwt beam="2">  1       -1 0.84865494E-01 0.47549260E+03</pdfrwt>
<totfact> 0.40547132E+01</totfact>
</mgrwt>
</event>
<event>
12    1  0.7781383E-008  0.4696590E+03  0.7818608E-02  0.1022017E+00
         -1   -1    0    0    0  501 -0.00000000000E+00  0.00000000000E+00  0.34250174631E+03  0.34250174631E+03  0.00000000000E+00 0.  1.
          1   -1    0    0  501    0  0.00000000000E+00 -0.00000000000E+00 -0.24029768819E+04  0.24029768819E+04  0.00000000000E+00 0. -1.
         23    2    1    2    0    0 -0.33159687941E+02  0.29276478264E+03 -0.20540203792E+04  0.20771338113E+04  0.93136291612E+02 0.  0.
    5000000    2    1    2    0    0  0.33159687941E+02 -0.29276478264E+03 -0.64547563721E+01  0.66834481695E+03  0.59986027340E+03 0.  0.
         23    2    4    4    0    0  0.23396276622E+03 -0.35349020632E+03 -0.47679516301E+02  0.43628239135E+03  0.91515500208E+02 0.  0.
         23    2    4    4    0    0 -0.20080307828E+03  0.60725423681E+02  0.41224759929E+02  0.23206242560E+03  0.90244308501E+02 0.  0.
          2    1    3    3  502    0 -0.47565258135E+02  0.24701858214E+03 -0.14907683098E+04  0.15118435062E+04  0.00000000000E+00 0. -1.
         -2    1    3    3    0  502  0.14405570194E+02  0.45746200501E+02 -0.56325206943E+03  0.56529030509E+03  0.00000000000E+00 0.  1.
         15    1    5    5    0    0  0.11753518031E+03 -0.17104114760E+03  0.22483988052E+02  0.20875411428E+03  0.17770000000E+01 0.  1.
        -15    1    5    5    0    0  0.11642758592E+03 -0.18244905872E+03 -0.70163504353E+02  0.22752827706E+03  0.17770000000E+01 0. -1.
          1    1    6    6  503    0 -0.62333354890E+02  0.44101782768E+02 -0.21228750645E+02  0.79253228509E+02  0.00000000000E+00 0. -1.
         -1    1    6    6    0  503 -0.13846972339E+03  0.16623640913E+02  0.62453510573E+02  0.15280919709E+03  0.00000000000E+00 0.  1.
<mgrwt>
<rscale>  0 0.46965897E+03</rscale>
<asrwt>0</asrwt>
<pdfrwt beam="1">  1        1 0.36968876E+00 0.46965897E+03</pdfrwt>
<pdfrwt beam="2">  1       -1 0.52692576E-01 0.46965897E+03</pdfrwt>
<totfact> 0.64496169E+00</totfact>
</mgrwt>
</event>
<event>
12    1  0.7781383E-008  0.1067385E+04  0.7818608E-02  0.9237577E-01
          2   -1    0    0  501    0  0.00000000000E+00  0.00000000000E+00  0.30658115593E+04  0.30658115593E+04  0.00000000000E+00 0. -1.
         -2   -1    0    0    0  501 -0.00000000000E+00 -0.00000000000E+00 -0.45618016276E+03  0.45618016276E+03  0.00000000000E+00 0.  1.
         23    2    1    2    0    0  0.52106401717E+03  0.85669575844E+03  0.19124138348E+04  0.21612830515E+04  0.91555560632E+02 0.  0.
    5000000    2    1    2    0    0 -0.52106401717E+03 -0.85669575844E+03  0.69721756177E+03  0.13607086706E+04  0.59998368751E+03 0.  0.
         23    2    4    4    0    0 -0.48274178016E+03 -0.92569007827E+03  0.62632210939E+03  0.12206627848E+04  0.88297803580E+02 0.  0.
         23    2    4    4    0    0 -0.38322237005E+02  0.68994319832E+02  0.70895452386E+02  0.14004588581E+03  0.91421414047E+02 0.  0.
          2    1    3    3  502    0  0.36386386330E+03  0.65650726850E+03  0.13710214490E+04  0.15630414321E+04  0.00000000000E+00 0. -1.
         -2    1    3    3    0  502  0.15720015387E+03  0.20018848994E+03  0.54139238574E+03  0.59824161943E+03  0.00000000000E+00 0.  1.
         15    1    5    5    0    0 -0.34867111420E+03 -0.65457147607E+03  0.49001267307E+03  0.88890434844E+03  0.17770000000E+01 0. -1.
        -15    1    5    5    0    0 -0.13407066596E+03 -0.27111860219E+03  0.13630943632E+03  0.33175843634E+03  0.17770000000E+01 0.  1.
          2    1    6    6  503    0  0.54377720997E+01  0.15438799194E+02 -0.19991340636E+02  0.25837561541E+02  0.00000000000E+00 0.  1.
         -2    1    6    6    0  503 -0.43760009105E+02  0.53555520638E+02  0.90886793022E+02  0.11420832427E+03  0.00000000000E+00 0. -1.
<mgrwt>
<rscale>  0 0.10673846E+04</rscale>
<asrwt>0</asrwt>
<pdfrwt beam="1">  1        2 0.47166330E+00 0.10673846E+04</pdfrwt>
<pdfrwt beam="2">  1       -2 0.70181565E-01 0.10673846E+04</pdfrwt>
<totfact> 0.29647616E+00</totfact>
</mgrwt>
</event>
<event>
12    1  0.7781383E-008  0.5676689E+03  0.7818608E-02  0.9974850E-01
          2   -1    0    0  501    0  0.00000000000E+00  0.00000000000E+00  0.12507711110E+04  0.12507711110E+04  0.00000000000E+00 0. -1.
         -2   -1    0    0    0  501 -0.00000000000E+00 -0.00000000000E+00 -0.33319022507E+03  0.33319022507E+03  0.00000000000E+00 0.  1.
         23    2    1    2    0    0 -0.22597823053E+03 -0.44422788973E+03  0.42982360076E+03  0.66455343659E+03  0.92078030134E+02 0.  0.
    5000000    2    1    2    0    0  0.22597823053E+03  0.44422788973E+03  0.48775728513E+03  0.91940789943E+03  0.59916536753E+03 0.  0.
         23    2    4    4    0    0 -0.34715081839E+02 -0.99240883895E+01  0.35690496428E+03  0.37181401966E+03  0.97779789583E+02 0.  0.
         23    2    4    4    0    0  0.26069331237E+03  0.45415197812E+03  0.13085232085E+03  0.54759387977E+03  0.92313081121E+02 0.  0.
          3    1    3    3  502    0 -0.17146326060E+03 -0.23682596243E+03  0.24598158459E+03  0.38209046857E+03  0.00000000000E+00 0. -1.
         -3    1    3    3    0  502 -0.54514969924E+02 -0.20740192730E+03  0.18384201617E+03  0.28246296802E+03  0.00000000000E+00 0.  1.
         15    1    5    5    0    0 -0.13511988006E+01  0.41238276387E+02  0.11109747009E+03  0.11852521574E+03  0.17770000000E+01 0.  1.
        -15    1    5    5    0    0 -0.33363883039E+02 -0.51162364776E+02  0.24580749419E+03  0.25328880392E+03  0.17770000000E+01 0. -1.
          3    1    6    6  503    0  0.12979478965E+03  0.17590838230E+03  0.15449304872E+02  0.21915548683E+03  0.00000000000E+00 0. -1.
         -3    1    6    6    0  503  0.13089852271E+03  0.27824359582E+03  0.11540301598E+03  0.32843839294E+03  0.00000000000E+00 0.  1.
<mgrwt>
<rscale>  0 0.56766888E+03</rscale>
<asrwt>0</asrwt>
<pdfrwt beam="1">  1        2 0.19242632E+00 0.56766888E+03</pdfrwt>
<pdfrwt beam="2">  1       -2 0.51260035E-01 0.56766888E+03</pdfrwt>
<totfact> 0.65895405E+01</totfact>
</mgrwt>
</event>
<event>
12    1  0.7781383E-008  0.1334105E+04  0.7818608E-02  0.9002949E-01
          2   -1    0    0  501    0  0.00000000000E+00  0.00000000000E+00  0.21111316701E+04  0.21111316701E+04  0.00000000000E+00 0.  1.
         -2   -1    0    0    0  501 -0.00000000000E+00 -0.00000000000E+00 -0.90099625778E+03  0.90099625778E+03  0.00000000000E+00 0. -1.
         23    2    1    2    0    0 -0.35996640809E+03  0.12618271292E+04  0.59191022741E+03  0.14424285793E+04  0.91972660983E+02 0.  0.
    5000000    2    1    2    0    0  0.35996640809E+03 -0.12618271292E+04  0.61822518495E+03  0.15696993486E+04  0.59997512176E+03 0.  0.
         23    2    4    4    0    0  0.28665597405E+02 -0.69622282539E+03  0.57140544279E+03  0.90568770145E+03  0.90653700636E+02 0.  0.
         23    2    4    4    0    0  0.33130081068E+03 -0.56560430377E+03  0.46819742161E+02  0.66401164711E+03  0.95136342387E+02 0.  0.
          3    1    3    3  502    0 -0.16985383543E+03  0.58360376117E+03  0.22411942320E+03  0.64782188240E+03  0.00000000000E+00 0. -1.
         -3    1    3    3    0  502 -0.19011257266E+03  0.67822336799E+03  0.36779080421E+03  0.79460669695E+03  0.00000000000E+00 0.  1.
         15    1    5    5    0    0  0.39421329072E+01 -0.49579687240E+03  0.45292068291E+03  0.67154328366E+03  0.17770000000E+01 0.  1.
        -15    1    5    5    0    0  0.24723464498E+02 -0.20042595299E+03  0.11848475988E+03  0.23414441779E+03  0.17770000000E+01 0. -1.
          3    1    6    6  503    0  0.29700493694E+03 -0.46300460582E+03  0.66411548216E+02  0.55407191890E+03  0.00000000000E+00 0. -1.
         -3    1    6    6    0  503  0.34295873748E+02 -0.10259969795E+03 -0.19591806055E+02  0.10993972821E+03  0.00000000000E+00 0.  1.
<mgrwt>
<rscale>  0 0.13341048E+04</rscale>
<asrwt>0</asrwt>
<pdfrwt beam="1">  1        2 0.32478949E+00 0.13341048E+04</pdfrwt>
<pdfrwt beam="2">  1       -2 0.13861481E+00 0.13341048E+04</pdfrwt>
<totfact> 0.20518612E+00</totfact>
</mgrwt>
</event>
<event>
12    1  0.7781383E-008  0.6345106E+03  0.7818608E-02  0.9836286E-01
          1   -1    0    0  501    0  0.00000000000E+00  0.00000000000E+00  0.76259542266E+03  0.76259542266E+03  0.00000000000E+00 0. -1.
         -1   -1    0    0    0  501 -0.00000000000E+00 -0.00000000000E+00 -0.65891905125E+03  0.65891905125E+03  0.00000000000E+00 0.  1.
         23    2    1    2    0    0  0.32998203731E+02 -0.52285586292E+03  0.28677481369E+03  0.60419272001E+03  0.91334080712E+02 0.  0.
    5000000    2    1    2    0    0 -0.32998203731E+02  0.52285586292E+03 -0.18309844229E+03  0.81732175390E+03  0.60001889553E+03 0.  0.
         23    2    4    4    0    0  0.16577994351E+03  0.49153571703E+03  0.60551376557E+01  0.52640122040E+03  0.89281741450E+02 0.  0.
         23    2    4    4    0    0 -0.19877814725E+03  0.31320145892E+02 -0.18915357995E+03  0.29092053351E+03  0.91443844232E+02 0.  0.
          3    1    3    3  502    0  0.42528376520E+02 -0.26872354102E+03  0.10513376450E+03  0.29167466936E+03  0.00000000000E+00 0. -1.
         -3    1    3    3    0  502 -0.95301727882E+01 -0.25413232190E+03  0.18164104919E+03  0.31251805065E+03  0.00000000000E+00 0.  1.
         15    1    5    5    0    0  0.10428453292E+03  0.18028888937E+03  0.16707902284E+02  0.20895372493E+03  0.17770000000E+01 0. -1.
        -15    1    5    5    0    0  0.61495410597E+02  0.31124682766E+03 -0.10652764628E+02  0.31744749547E+03  0.17770000000E+01 0.  1.
          1    1    6    6  503    0 -0.56604466714E+02 -0.27860990068E+02 -0.81308312641E+02  0.10291424646E+03  0.00000000000E+00 0. -1.
         -1    1    6    6    0  503 -0.14217368053E+03  0.59181135960E+02 -0.10784526731E+03  0.18800628705E+03  0.00000000000E+00 0.  1.
<mgrwt>
<rscale>  0 0.63451060E+03</rscale>
<asrwt>0</asrwt>
<pdfrwt beam="1">  1        1 0.11732237E+00 0.63451060E+03</pdfrwt>
<pdfrwt beam="2">  1       -1 0.10137216E+00 0.63451060E+03</pdfrwt>
<totfact> 0.22947483E+01</totfact>
</mgrwt>
</event>
<event>
12    1  0.7781383E-008  0.3265263E+03  0.7818608E-02  0.1072684E+00
          1   -1    0    0  501    0  0.00000000000E+00  0.00000000000E+00  0.89096551296E+03  0.89096551296E+03  0.00000000000E+00 0. -1.
         -1   -1    0    0    0  501 -0.00000000000E+00 -0.00000000000E+00 -0.27235863063E+03  0.27235863063E+03  0.00000000000E+00 0.  1.
         23    2    1    2    0    0  0.19758445980E+03  0.71471611168E+02  0.45072184447E+03  0.50573790407E+03  0.92048012299E+02 0.  0.
    5000000    2    1    2    0    0 -0.19758445980E+03 -0.71471611168E+02  0.16788503786E+03  0.65758623952E+03  0.60007205110E+03 0.  0.
         23    2    4    4    0    0 -0.26879527486E+03 -0.16392072673E+03 -0.10662569022E+03  0.34574457095E+03  0.95128156130E+02 0.  0.
         23    2    4    4    0    0  0.71210815060E+02  0.92449115563E+02  0.27451072808E+03  0.31184166857E+03  0.90946507756E+02 0.  0.
          1    1    3    3  502    0  0.15503941084E+03  0.29117641835E+02  0.24464461167E+03  0.29109455851E+03  0.00000000000E+00 0. -1.
         -1    1    3    3    0  502  0.42545048962E+02  0.42353969333E+02  0.20607723280E+03  0.21464334555E+03  0.00000000000E+00 0.  1.
         15    1    5    5    0    0 -0.14609635971E+03 -0.11513534796E+03 -0.10515129135E+03  0.21368258345E+03  0.17770000000E+01 0. -1.
        -15    1    5    5    0    0 -0.12269891515E+03 -0.48785378773E+02 -0.14743988717E+01  0.13206198750E+03  0.17770000000E+01 0.  1.
          4    1    6    6  503    0  0.20229813933E+02  0.18752703821E+02  0.17807152696E+03  0.18019538836E+03  0.00000000000E+00 0.  1.
         -4    1    6    6    0  503  0.50981001127E+02  0.73696411741E+02  0.96439201123E+02  0.13164628021E+03  0.00000000000E+00 0. -1.
<mgrwt>
<rscale>  0 0.32652635E+03</rscale>
<asrwt>0</asrwt>
<pdfrwt beam="1">  1        1 0.13707162E+00 0.32652635E+03</pdfrwt>
<pdfrwt beam="2">  1       -1 0.41901328E-01 0.32652635E+03</pdfrwt>
<totfact> 0.11052744E+02</totfact>
</mgrwt>
</event>
<event>
12    1  0.7781383E-008  0.7828560E+03  0.7818608E-02  0.9585169E-01
         -1   -1    0    0    0  501 -0.00000000000E+00  0.00000000000E+00  0.50335016364E+03  0.50335016364E+03  0.00000000000E+00 0.  1.
          1   -1    0    0  501    0  0.00000000000E+00 -0.00000000000E+00 -0.14881176747E+04  0.14881176747E+04  0.00000000000E+00 0. -1.
         23    2    1    2    0    0 -0.24065126735E+02 -0.66823877732E+03 -0.84353438837E+03  0.10819740767E+04  0.10952371631E+03 0.  0.
    5000000    2    1    2    0    0  0.24065126735E+02  0.66823877732E+03 -0.14123312266E+03  0.90949376162E+03  0.60009158772E+03 0.  0.
         23    2    4    4    0    0  0.16871200598E+03  0.69748295164E+03 -0.11210180091E+03  0.73211839612E+03  0.92110386930E+02 0.  0.
         23    2    4    4    0    0 -0.14464687924E+03 -0.29244174327E+02 -0.29131321747E+02  0.17737536550E+03  0.93997047672E+02 0.  0.
          2    1    3    3  502    0 -0.46068190507E+02 -0.41450078866E+03 -0.59076431091E+03  0.72314289945E+03  0.00000000000E+00 0. -1.
         -2    1    3    3    0  502  0.22003063772E+02 -0.25373798865E+03 -0.25277007746E+03  0.35883117724E+03  0.00000000000E+00 0.  1.
         15    1    5    5    0    0  0.82898715702E+02  0.23905773613E+03 -0.25908356099E+01  0.25304281936E+03  0.17770000000E+01 0. -1.
        -15    1    5    5    0    0  0.85813290277E+02  0.45842521551E+03 -0.10951096530E+03  0.47907557677E+03  0.17770000000E+01 0.  1.
          3    1    6    6  503    0 -0.10672471897E+03  0.23796204008E+02 -0.12297257095E+02  0.11003475586E+03  0.00000000000E+00 0. -1.
         -3    1    6    6    0  503 -0.37922160272E+02 -0.53040378335E+02 -0.16834064652E+02  0.67340609637E+02  0.00000000000E+00 0.  1.
<mgrwt>
<rscale>  0 0.78285596E+03</rscale>
<asrwt>0</asrwt>
<pdfrwt beam="1">  1        1 0.22894118E+00 0.78285596E+03</pdfrwt>
<pdfrwt beam="2">  1       -1 0.77438487E-01 0.78285596E+03</pdfrwt>
<totfact> 0.11508713E+01</totfact>
</mgrwt>
</event>
<event>
12    1  0.1416620E-007  0.1790130E+04  0.7818608E-02  0.8711566E-01
          1   -1    0    0  501    0  0.00000000000E+00  0.00000000000E+00  0.20784556356E+04  0.20784556356E+04  0.00000000000E+00 0. -1.
         -1   -1    0    0    0  501 -0.00000000000E+00 -0.00000000000E+00 -0.15739039563E+04  0.15739039563E+04  0.00000000000E+00 0.  1.
         23    2    1    2    0    0 -0.15685795272E+04  0.78405340373E+03  0.36622936993E+03  0.17937562109E+04  0.90862092298E+02 0.  0.
    5000000    2    1    2    0    0  0.15685795272E+04 -0.78405340373E+03  0.13832230939E+03  0.18586033809E+04  0.60007665613E+03 0.  0.
         23    2    4    4    0    0  0.35526807091E+03 -0.41815031523E+03  0.18745907239E+03  0.58700790205E+03  0.91500190812E+02 0.  0.
         23    2    4    4    0    0  0.12133114563E+04 -0.36590308850E+03 -0.49136763001E+02  0.12715954789E+04  0.92362764375E+02 0.  0.
          3    1    3    3  502    0 -0.71867973797E+03  0.31127908590E+03  0.17782340117E+03  0.80312912853E+03  0.00000000000E+00 0. -1.
         -3    1    3    3    0  502 -0.84989978925E+03  0.47277431783E+03  0.18840596876E+03  0.99062708242E+03  0.00000000000E+00 0.  1.
         15    1    5    5    0    0  0.60434137673E+02 -0.12109623673E+03  0.22846666425E+02  0.13726511371E+03  0.17770000000E+01 0.  1.
        -15    1    5    5    0    0  0.29483393323E+03 -0.29705407850E+03  0.16461240596E+03  0.44974278834E+03  0.17770000000E+01 0. -1.
          1    1    6    6  503    0  0.56325127072E+03 -0.12191770447E+03 -0.24970790033E+02  0.57683573137E+03  0.00000000000E+00 0. -1.
         -1    1    6    6    0  503  0.65006018559E+03 -0.24398538403E+03 -0.24165972968E+02  0.69475974751E+03  0.00000000000E+00 0.  1.
<mgrwt>
<rscale>  0 0.17901304E+04</rscale>
<asrwt>0</asrwt>
<pdfrwt beam="1">  1        1 0.31976241E+00 0.17901304E+04</pdfrwt>
<pdfrwt beam="2">  1       -1 0.24213907E+00 0.17901304E+04</pdfrwt>
<totfact> 0.18906152E-01</totfact>
</mgrwt>
</event>
<event>
12    1  0.7781383E-008  0.8863632E+03  0.7818608E-02  0.9442791E-01
         -1   -1    0    0    0  501 -0.00000000000E+00  0.00000000000E+00  0.11452348951E+04  0.11452348951E+04  0.00000000000E+00 0. -1.
          1   -1    0    0  501    0  0.00000000000E+00 -0.00000000000E+00 -0.11630719484E+04  0.11630719484E+04  0.00000000000E+00 0.  1.
         23    2    1    2    0    0  0.38026973008E+03  0.73608999004E+03  0.67324462429E+03  0.10737183825E+04  0.11480113164E+03 0.  0.
    5000000    2    1    2    0    0 -0.38026973008E+03 -0.73608999004E+03 -0.69108167752E+03  0.12345884610E+04  0.60015101591E+03 0.  0.
         23    2    4    4    0    0 -0.29186043381E+03 -0.13383539790E+03 -0.47967031218E+03  0.58402415372E+03  0.88916686790E+02 0.  0.
         23    2    4    4    0    0 -0.88409296277E+02 -0.60225459214E+03 -0.21141136534E+03  0.65056430725E+03  0.89511759282E+02 0.  0.
          2    1    3    3  502    0  0.23367685765E+03  0.43304862452E+03  0.47010493809E+03  0.68053996049E+03  0.00000000000E+00 0.  1.
         -2    1    3    3    0  502  0.14659287243E+03  0.30304136552E+03  0.20313968620E+03  0.39317842206E+03  0.00000000000E+00 0. -1.
         15    1    5    5    0    0 -0.25946444490E+03 -0.82315080713E+02 -0.38737510158E+03  0.47345559214E+03  0.17770000000E+01 0.  1.
        -15    1    5    5    0    0 -0.32395988906E+02 -0.51520317187E+02 -0.92295210605E+02  0.11056856158E+03  0.17770000000E+01 0. -1.
          1    1    6    6  503    0 -0.35646738738E+02 -0.41024826049E+03 -0.17816634806E+03  0.44868426850E+03  0.00000000000E+00 0. -1.
         -1    1    6    6    0  503 -0.52762557539E+02 -0.19200633165E+03 -0.33245017280E+02  0.20188003875E+03  0.00000000000E+00 0.  1.
<mgrwt>
<rscale>  0 0.88636316E+03</rscale>
<asrwt>0</asrwt>
<pdfrwt beam="1">  1        1 0.17893415E+00 0.88636316E+03</pdfrwt>
<pdfrwt beam="2">  1       -1 0.17618998E+00 0.88636316E+03</pdfrwt>
<totfact> 0.25719412E+00</totfact>
</mgrwt>
</event>
<event>
12    1  0.7781383E-008  0.1069587E+04  0.7818608E-02  0.9235352E-01
         -2   -1    0    0    0  501 -0.00000000000E+00  0.00000000000E+00  0.16151662113E+04  0.16151662113E+04  0.00000000000E+00 0.  1.
          2   -1    0    0  501    0  0.00000000000E+00 -0.00000000000E+00 -0.92001673559E+03  0.92001673559E+03  0.00000000000E+00 0. -1.
         23    2    1    2    0    0  0.15233797110E+03  0.10160290974E+04  0.84856073786E+03  0.13356304312E+04  0.91276166462E+02 0.  0.
    5000000    2    1    2    0    0 -0.15233797110E+03 -0.10160290974E+04 -0.15341126218E+03  0.11995525157E+04  0.59989102195E+03 0.  0.
         23    2    4    4    0    0 -0.26055440305E+03 -0.42488881248E+03  0.13862143355E+03  0.52518857583E+03  0.90487780501E+02 0.  0.
         23    2    4    4    0    0  0.10821643195E+03 -0.59114028496E+03 -0.29203269574E+03  0.67436393985E+03  0.91246892252E+02 0.  0.
          1    1    3    3  502    0  0.10259040077E+03  0.40090503118E+03  0.32077777819E+03  0.52359146034E+03  0.00000000000E+00 0. -1.
         -1    1    3    3    0  502  0.49747570324E+02  0.61512406626E+03  0.52778295967E+03  0.81203897084E+03  0.00000000000E+00 0.  1.
         15    1    5    5    0    0 -0.16073705159E+02 -0.92694480565E+02  0.24853283778E+02  0.97321499004E+02  0.17770000000E+01 0.  1.
        -15    1    5    5    0    0 -0.24448069789E+03 -0.33219433192E+03  0.11376814977E+03  0.42786707683E+03  0.17770000000E+01 0. -1.
          3    1    6    6  503    0  0.10601777455E+03 -0.58938833684E+03 -0.27831607577E+03  0.66036218710E+03  0.00000000000E+00 0. -1.
         -3    1    6    6    0  503  0.21986574009E+01 -0.17519481173E+01 -0.13716619971E+02  0.14001752748E+02  0.00000000000E+00 0.  1.
<mgrwt>
<rscale>  0 0.10695868E+04</rscale>
<asrwt>0</asrwt>
<pdfrwt beam="1">  1        2 0.14154104E+00 0.10695868E+04</pdfrwt>
<pdfrwt beam="2">  1       -2 0.24848711E+00 0.10695868E+04</pdfrwt>
<totfact> 0.18450903E+00</totfact>
</mgrwt>
</event>
<event>
12    1  0.7781383E-008  0.9896341E+03  0.7818608E-02  0.9319988E-01
         -1   -1    0    0    0  501 -0.00000000000E+00  0.00000000000E+00  0.11104828275E+04  0.11104828275E+04  0.00000000000E+00 0.  1.
          1   -1    0    0  501    0  0.00000000000E+00 -0.00000000000E+00 -0.10951662091E+04  0.10951662091E+04  0.00000000000E+00 0. -1.
         23    2    1    2    0    0  0.27755635327E+03 -0.93408769753E+03  0.30514762517E+03  0.10251694589E+04  0.91104282506E+02 0.  0.
    5000000    2    1    2    0    0 -0.27755635327E+03  0.93408769753E+03 -0.28983100682E+03  0.11804795777E+04  0.59997722041E+03 0.  0.
         23    2    4    4    0    0 -0.27470166300E+02  0.61472661709E+02  0.13327610103E+03  0.17512519638E+03  0.91503098998E+02 0.  0.
         23    2    4    4    0    0 -0.25008618697E+03  0.87261503582E+03 -0.42310710785E+03  0.10053543814E+04  0.87850473743E+02 0.  0.
          1    1    3    3  502    0  0.17683628225E+03 -0.71107131498E+03  0.20596274987E+03  0.76112688827E+03  0.00000000000E+00 0. -1.
         -1    1    3    3    0  502  0.10072007102E+03 -0.22301638255E+03  0.99184875298E+02  0.26404257058E+03  0.00000000000E+00 0.  1.
         15    1    5    5    0    0  0.18200438920E+02  0.84604299041E+01  0.91325392343E+02  0.93521761460E+02  0.17770000000E+01 0. -1.
        -15    1    5    5    0    0 -0.45670605220E+02  0.53012231804E+02  0.41950708690E+02  0.81603434919E+02  0.17770000000E+01 0.  1.
          1    1    6    6  503    0 -0.18198724205E+03  0.74648976256E+03 -0.36583646570E+03  0.85100096446E+03  0.00000000000E+00 0. -1.
         -1    1    6    6    0  503 -0.68098944918E+02  0.12612527326E+03 -0.57270642157E+02  0.15435341690E+03  0.00000000000E+00 0.  1.
<mgrwt>
<rscale>  0 0.98963409E+03</rscale>
<asrwt>0</asrwt>
<pdfrwt beam="1">  1        1 0.16848711E+00 0.98963409E+03</pdfrwt>
<pdfrwt beam="2">  1       -1 0.17084351E+00 0.98963409E+03</pdfrwt>
<totfact> 0.31160066E+00</totfact>
</mgrwt>
</event>
<event>
12    1  0.7781383E-008  0.3682065E+03  0.7818608E-02  0.1055381E+00
         -2   -1    0    0    0  501 -0.00000000000E+00  0.00000000000E+00  0.26805498512E+03  0.26805498512E+03  0.00000000000E+00 0.  1.
          2   -1    0    0  501    0  0.00000000000E+00 -0.00000000000E+00 -0.84749850037E+03  0.84749850037E+03  0.00000000000E+00 0. -1.
         23    2    1    2    0    0  0.21161281559E+03  0.17879075167E+03 -0.18175598047E+03  0.34368882817E+03  0.91327200587E+02 0.  0.
    5000000    2    1    2    0    0 -0.21161281559E+03 -0.17879075167E+03 -0.39768753478E+03  0.77186465732E+03  0.60072752334E+03 0.  0.
         23    2    4    4    0    0 -0.90189441373E+02  0.88263890401E+02  0.10103762172E+03  0.18600606010E+03  0.92005454774E+02 0.  0.
         23    2    4    4    0    0 -0.12142337422E+03 -0.26705464208E+03 -0.49872515651E+03  0.58585859722E+03  0.91878705590E+02 0.  0.
          1    1    3    3  502    0  0.16776788854E+03  0.10858657234E+03 -0.16518770186E+03  0.25927607866E+03  0.00000000000E+00 0. -1.
         -1    1    3    3    0  502  0.43844927050E+02  0.70204179335E+02 -0.16568278602E+02  0.84412749511E+02  0.00000000000E+00 0.  1.
         15    1    5    5    0    0  0.17147994385E+02  0.24543979706E+02  0.29757818790E+02  0.42250990040E+02  0.17770000000E+01 0. -1.
        -15    1    5    5    0    0 -0.10733743576E+03  0.63719910696E+02  0.71279802932E+02  0.14375507006E+03  0.17770000000E+01 0.  1.
          1    1    6    6  503    0  0.62140269329E+01 -0.76031861179E+01 -0.57486369128E+02  0.58318995236E+02  0.00000000000E+00 0. -1.
         -1    1    6    6    0  503 -0.12763740116E+03 -0.25945145596E+03 -0.44123878738E+03  0.52753960198E+03  0.00000000000E+00 0.  1.
<mgrwt>
<rscale>  0 0.36820651E+03</rscale>
<asrwt>0</asrwt>
<pdfrwt beam="1">  1        2 0.13038438E+00 0.36820651E+03</pdfrwt>
<pdfrwt beam="2">  1       -2 0.41239230E-01 0.36820651E+03</pdfrwt>
<totfact> 0.18458296E+02</totfact>
</mgrwt>
</event>
<event>
12    1  0.7781383E-008  0.3661750E+03  0.7818608E-02  0.1056165E+00
         -1   -1    0    0    0  501 -0.00000000000E+00  0.00000000000E+00  0.25619112679E+03  0.25619112679E+03  0.00000000000E+00 0.  1.
          1   -1    0    0  501    0  0.00000000000E+00 -0.00000000000E+00 -0.12068914195E+04  0.12068914195E+04  0.00000000000E+00 0. -1.
         23    2    1    2    0    0 -0.13125865919E+02 -0.16395656320E+03 -0.80166502000E+03  0.82337638209E+03  0.90707327829E+02 0.  0.
    5000000    2    1    2    0    0  0.13125865919E+02  0.16395656320E+03 -0.14903527266E+03  0.63970616415E+03  0.59996534981E+03 0.  0.
         23    2    4    4    0    0 -0.89338402752E+02 -0.18045750558E+03 -0.15377136235E+03  0.26916251625E+03  0.90865652202E+02 0.  0.
         23    2    4    4    0    0  0.10246426867E+03  0.34441406878E+03  0.47360896841E+01  0.37054364789E+03  0.90333755143E+02 0.  0.
          1    1    3    3  502    0  0.86486610225E+00 -0.63198409592E+02 -0.52148502982E+03  0.52530126908E+03  0.00000000000E+00 0. -1.
         -1    1    3    3    0  502 -0.13990732021E+02 -0.10075815361E+03 -0.28017999018E+03  0.29807511301E+03  0.00000000000E+00 0.  1.
         15    1    5    5    0    0 -0.74598718998E+02 -0.99696822966E+02 -0.13739430143E+03  0.18543132740E+03  0.17770000000E+01 0.  1.
        -15    1    5    5    0    0 -0.14739683754E+02 -0.80760682618E+02 -0.16377060916E+02  0.83731188857E+02  0.17770000000E+01 0. -1.
          3    1    6    6  503    0  0.74462757908E+02  0.19441473478E+03  0.44429129911E+02  0.21287493746E+03  0.00000000000E+00 0. -1.
         -3    1    6    6    0  503  0.28001510763E+02  0.14999933401E+03 -0.39693040227E+02  0.15766871043E+03  0.00000000000E+00 0.  1.
<mgrwt>
<rscale>  0 0.36617505E+03</rscale>
<asrwt>0</asrwt>
<pdfrwt beam="1">  1        1 0.18567561E+00 0.36617505E+03</pdfrwt>
<pdfrwt beam="2">  1       -1 0.39414019E-01 0.36617505E+03</pdfrwt>
<totfact> 0.71208034E+01</totfact>
</mgrwt>
</event>
<event>
12    1  0.7781383E-008  0.2022936E+04  0.7818608E-02  0.8595972E-01
          2   -1    0    0  501    0  0.00000000000E+00  0.00000000000E+00  0.48341703440E+04  0.48341703440E+04  0.00000000000E+00 0.  1.
         -2   -1    0    0    0  501 -0.00000000000E+00 -0.00000000000E+00 -0.11043159787E+04  0.11043159787E+04  0.00000000000E+00 0. -1.
         23    2    1    2    0    0  0.12038855163E+04 -0.16235987700E+04  0.50442793358E+03  0.20850805804E+04  0.87750693654E+02 0.  0.
    5000000    2    1    2    0    0 -0.12038855163E+04  0.16235987700E+04  0.32254264317E+04  0.38534057423E+04  0.59995570365E+03 0.  0.
         23    2    4    4    0    0 -0.64234397358E+03  0.87552817437E+03  0.22437936327E+04  0.24943816624E+04  0.90413754059E+02 0.  0.
         23    2    4    4    0    0 -0.56154154269E+03  0.74807059567E+03  0.98163279892E+03  0.13590240799E+04  0.91678664515E+02 0.  0.
          2    1    3    3  502    0  0.48415334174E+03 -0.70964830921E+03  0.18624786502E+03  0.87902983357E+03  0.00000000000E+00 0. -1.
         -2    1    3    3    0  502  0.71973217453E+03 -0.91395046083E+03  0.31818006856E+03  0.12060507468E+04  0.00000000000E+00 0.  1.
         15    1    5    5    0    0 -0.14610163593E+03  0.15661393633E+03  0.50286996714E+03  0.54658482842E+03  0.17770000000E+01 0. -1.
        -15    1    5    5    0    0 -0.49624233765E+03  0.71891423804E+03  0.17409236656E+04  0.19477968340E+04  0.17770000000E+01 0.  1.
          1    1    6    6  503    0 -0.22839299203E+03  0.28341261658E+03  0.44485316903E+03  0.57478727547E+03  0.00000000000E+00 0. -1.
         -1    1    6    6    0  503 -0.33314855067E+03  0.46465797910E+03  0.53677962989E+03  0.78423680442E+03  0.00000000000E+00 0.  1.
<mgrwt>
<rscale>  0 0.20229359E+04</rscale>
<asrwt>0</asrwt>
<pdfrwt beam="1">  1        2 0.74371850E+00 0.20229359E+04</pdfrwt>
<pdfrwt beam="2">  1       -2 0.16989477E+00 0.20229359E+04</pdfrwt>
<totfact> 0.10528136E-02</totfact>
</mgrwt>
</event>
<event>
12    1  0.7781383E-008  0.2034529E+04  0.7818608E-02  0.8590645E-01
          1   -1    0    0  501    0  0.00000000000E+00  0.00000000000E+00  0.23391183752E+04  0.23391183752E+04  0.00000000000E+00 0. -1.
         -1   -1    0    0    0  501 -0.00000000000E+00 -0.00000000000E+00 -0.18732746046E+04  0.18732746046E+04  0.00000000000E+00 0.  1.
         23    2    1    2    0    0  0.20064792945E+04 -0.25000437998E+03  0.56254617795E+03  0.21010359531E+04  0.97121185191E+02 0.  0.
    5000000    2    1    2    0    0 -0.20064792945E+04  0.25000437998E+03 -0.96702407294E+02  0.21113570267E+04  0.60001315784E+03 0.  0.
         23    2    4    4    0    0 -0.10354522305E+04 -0.21126529380E+02 -0.29272604043E+03  0.10800793279E+04  0.90967950135E+02 0.  0.
         23    2    4    4    0    0 -0.97102706401E+03  0.27113090936E+03  0.19602363314E+03  0.10312776988E+04  0.93289325969E+02 0.  0.
          1    1    3    3  502    0  0.18648059653E+04 -0.25268373643E+03  0.53785961077E+03  0.19572029327E+04  0.00000000000E+00 0.  1.
         -1    1    3    3    0  502  0.14167332914E+03  0.26793564502E+01  0.24686567179E+02  0.14383302034E+03  0.00000000000E+00 0. -1.
         15    1    5    5    0    0 -0.68390401974E+03 -0.39731622330E+02 -0.15731381841E+03  0.70288982438E+03  0.17770000000E+01 0. -1.
        -15    1    5    5    0    0 -0.35154821072E+03  0.18605092950E+02 -0.13541222202E+03  0.37718950349E+03  0.17770000000E+01 0.  1.
          4    1    6    6  503    0 -0.62115547012E+03  0.18433838138E+03  0.17000903564E+03  0.66986403778E+03  0.00000000000E+00 0. -1.
         -4    1    6    6    0  503 -0.34987159389E+03  0.86792527985E+02  0.26014597501E+02  0.36141366107E+03  0.00000000000E+00 0.  1.
<mgrwt>
<rscale>  0 0.20345289E+04</rscale>
<asrwt>0</asrwt>
<pdfrwt beam="1">  1        1 0.35986437E+00 0.20345289E+04</pdfrwt>
<pdfrwt beam="2">  1       -1 0.28819609E+00 0.20345289E+04</pdfrwt>
<totfact> 0.61111141E-02</totfact>
</mgrwt>
</event>
<event>
12    1  0.7781383E-008  0.2162404E+04  0.7818608E-02  0.8534241E-01
          2   -1    0    0  501    0  0.00000000000E+00  0.00000000000E+00  0.10883054102E+04  0.10883054102E+04  0.00000000000E+00 0. -1.
         -2   -1    0    0    0  501 -0.00000000000E+00 -0.00000000000E+00 -0.44450662896E+04  0.44450662896E+04  0.00000000000E+00 0.  1.
         23    2    1    2    0    0 -0.19230565441E+04 -0.90329117934E+03 -0.21192554880E+04  0.30024695178E+04  0.97457454622E+02 0.  0.
    5000000    2    1    2    0    0  0.19230565441E+04  0.90329117934E+03 -0.12375053914E+04  0.25309021820E+04  0.59997069481E+03 0.  0.
         23    2    4    4    0    0  0.20857838507E+03  0.31954906186E+03 -0.15775204618E+03  0.42036772747E+03  0.78783072822E+02 0.  0.
         23    2    4    4    0    0  0.17144781590E+04  0.58374211748E+03 -0.10797533453E+04  0.21105344545E+04  0.91094345446E+02 0.  0.
          2    1    3    3  502    0 -0.74653858303E+03 -0.31350504737E+03 -0.85448239863E+03  0.11771768942E+04  0.00000000000E+00 0. -1.
         -2    1    3    3    0  502 -0.11765179611E+04 -0.58978613197E+03 -0.12647730894E+04  0.18252926236E+04  0.00000000000E+00 0.  1.
         15    1    5    5    0    0  0.35014546153E+02  0.10458881837E+03 -0.21801756104E+02  0.11244249049E+03  0.17770000000E+01 0. -1.
        -15    1    5    5    0    0  0.17356383892E+03  0.21496024350E+03 -0.13595029008E+03  0.30792523698E+03  0.17770000000E+01 0.  1.
          1    1    6    6  503    0  0.10780677374E+04  0.33168741093E+03 -0.70533440209E+03  0.13303169561E+04  0.00000000000E+00 0. -1.
         -1    1    6    6    0  503  0.63641042164E+03  0.25205470655E+03 -0.37441894317E+03  0.78021749844E+03  0.00000000000E+00 0.  1.
<mgrwt>
<rscale>  0 0.21624044E+04</rscale>
<asrwt>0</asrwt>
<pdfrwt beam="1">  1        2 0.16743160E+00 0.21624044E+04</pdfrwt>
<pdfrwt beam="2">  1       -2 0.68385636E+00 0.21624044E+04</pdfrwt>
<totfact> 0.49759278E-03</totfact>
</mgrwt>
</event>
<event>
12    1  0.7781383E-008  0.5520019E+03  0.7818608E-02  0.1001032E+00
         -2   -1    0    0    0  501 -0.00000000000E+00  0.00000000000E+00  0.83994386882E+03  0.83994386882E+03  0.00000000000E+00 0.  1.
          2   -1    0    0  501    0  0.00000000000E+00 -0.00000000000E+00 -0.40948428407E+03  0.40948428407E+03  0.00000000000E+00 0. -1.
         23    2    1    2    0    0  0.28053577068E+03  0.27527897932E+03  0.33930099007E+03  0.52641503459E+03  0.86653284379E+02 0.  0.
    5000000    2    1    2    0    0 -0.28053577068E+03 -0.27527897932E+03  0.91158594683E+02  0.72301311829E+03  0.59996603633E+03 0.  0.
         23    2    4    4    0    0  0.17549249610E+03 -0.54166851640E+02  0.23776260621E+02  0.20364943777E+03  0.84711976335E+02 0.  0.
         23    2    4    4    0    0 -0.45602826678E+03 -0.22111212768E+03  0.67382334062E+02  0.51936368052E+03  0.91355900698E+02 0.  0.
          4    1    3    3  502    0  0.19487121812E+03  0.13609589697E+03  0.17965142751E+03  0.29794549876E+03  0.00000000000E+00 0. -1.
         -4    1    3    3    0  502  0.85664552558E+02  0.13918308235E+03  0.15964956256E+03  0.22846953583E+03  0.00000000000E+00 0.  1.
         15    1    5    5    0    0  0.14993201264E+03 -0.66997057284E+02 -0.32474487786E+01  0.16426173550E+03  0.17770000000E+01 0.  1.
        -15    1    5    5    0    0  0.25560483459E+02  0.12830205645E+02  0.27023709399E+02  0.39387702272E+02  0.17770000000E+01 0. -1.
          1    1    6    6  503    0 -0.19092460321E+03 -0.61665312610E+02  0.61856772603E+02  0.20995493613E+03  0.00000000000E+00 0. -1.
         -1    1    6    6    0  503 -0.26510366357E+03 -0.15944681507E+03  0.55255614587E+01  0.30940874439E+03  0.00000000000E+00 0.  1.
<mgrwt>
<rscale>  0 0.55200191E+03</rscale>
<asrwt>0</asrwt>
<pdfrwt beam="1">  1        2 0.62997583E-01 0.55200191E+03</pdfrwt>
<pdfrwt beam="2">  1       -2 0.12922213E+00 0.55200191E+03</pdfrwt>
<totfact> 0.35114360E+01</totfact>
</mgrwt>
</event>
<event>
12    1  0.7781383E-008  0.6022104E+03  0.7818608E-02  0.9900831E-01
          1   -1    0    0  501    0  0.00000000000E+00  0.00000000000E+00  0.78700769735E+03  0.78700769735E+03  0.00000000000E+00 0. -1.
         -1   -1    0    0    0  501 -0.00000000000E+00 -0.00000000000E+00 -0.65526935255E+03  0.65526935255E+03  0.00000000000E+00 0.  1.
         23    2    1    2    0    0 -0.48025380454E+03 -0.33431296217E+03 -0.82684906055E+01  0.59251381462E+03  0.92711267536E+02 0.  0.
    5000000    2    1    2    0    0  0.48025380454E+03  0.33431296217E+03  0.14000683541E+03  0.84976323529E+03  0.60007230285E+03 0.  0.
         23    2    4    4    0    0  0.32125852792E+03  0.11709363666E+03  0.34925195584E+03  0.49658531143E+03  0.87761502746E+02 0.  0.
         23    2    4    4    0    0  0.15899527662E+03  0.21721932551E+03 -0.20924512043E+03  0.35317792386E+03  0.92127043357E+02 0.  0.
          3    1    3    3  502    0 -0.16787534322E+03 -0.16654249444E+03 -0.23291873069E+02  0.23761532919E+03  0.00000000000E+00 0. -1.
         -3    1    3    3    0  502 -0.31237846132E+03 -0.16777046773E+03  0.15023382463E+02  0.35489848542E+03  0.00000000000E+00 0.  1.
         15    1    5    5    0    0  0.11460063633E+03  0.47514311817E+02  0.18852090937E+03  0.22568607993E+03  0.17770000000E+01 0. -1.
        -15    1    5    5    0    0  0.20665789159E+03  0.69579324842E+02  0.16073104647E+03  0.27089923150E+03  0.17770000000E+01 0.  1.
          4    1    6    6  503    0  0.95023491968E+02  0.15615651072E+03 -0.87384848536E+02  0.20260906105E+03  0.00000000000E+00 0. -1.
         -4    1    6    6    0  503  0.63971784650E+02  0.61062814782E+02 -0.12186027190E+03  0.15056886281E+03  0.00000000000E+00 0.  1.
<mgrwt>
<rscale>  0 0.60221042E+03</rscale>
<asrwt>0</asrwt>
<pdfrwt beam="1">  1        1 0.12107811E+00 0.60221042E+03</pdfrwt>
<pdfrwt beam="2">  1       -1 0.10081067E+00 0.60221042E+03</pdfrwt>
<totfact> 0.22219998E+01</totfact>
</mgrwt>
</event>
<event>
12    1  0.7781383E-008  0.1256067E+04  0.7818608E-02  0.9065149E-01
          2   -1    0    0  501    0  0.00000000000E+00  0.00000000000E+00  0.88574767566E+03  0.88574767566E+03  0.00000000000E+00 0. -1.
         -2   -1    0    0    0  501 -0.00000000000E+00 -0.00000000000E+00 -0.25212249389E+04  0.25212249389E+04  0.00000000000E+00 0.  1.
         23    2    1    2    0    0  0.28997345458E+03 -0.11640949075E+04  0.10779960819E+03  0.12076910725E+04  0.87723502925E+02 0.  0.
    5000000    2    1    2    0    0 -0.28997345458E+03  0.11640949075E+04 -0.17432768714E+04  0.21992815420E+04  0.59885181197E+03 0.  0.
         23    2    4    4    0    0 -0.41519012361E+02 -0.37584438875E+02 -0.15947222577E+03  0.19363386391E+03  0.94478907848E+02 0.  0.
         23    2    4    4    0    0 -0.24845444222E+03  0.12016793464E+04 -0.15838046456E+04  0.20056476781E+04  0.91774679680E+02 0.  0.
          1    1    3    3  502    0  0.18170629184E+03 -0.63307978911E+03  0.96186314672E+02  0.66562677456E+03  0.00000000000E+00 0. -1.
         -1    1    3    3    0  502  0.10826716275E+03 -0.53101511841E+03  0.11613293519E+02  0.54206429793E+03  0.00000000000E+00 0.  1.
         15    1    5    5    0    0  0.13029551244E+02  0.35467533883E+01  0.57891156871E+01  0.14799332912E+02  0.17770000000E+01 0. -1.
        -15    1    5    5    0    0 -0.54548563604E+02 -0.41131192264E+02 -0.16526134146E+03  0.17883453100E+03  0.17770000000E+01 0.  1.
          4    1    6    6  503    0 -0.11720451859E+03  0.75451641799E+03 -0.94541191743E+03  0.12152512571E+04  0.00000000000E+00 0. -1.
         -4    1    6    6    0  503 -0.13124992364E+03  0.44716292841E+03 -0.63839272821E+03  0.79039642106E+03  0.00000000000E+00 0.  1.
<mgrwt>
<rscale>  0 0.12560668E+04</rscale>
<asrwt>0</asrwt>
<pdfrwt beam="1">  1        2 0.13626887E+00 0.12560668E+04</pdfrwt>
<pdfrwt beam="2">  1       -2 0.38788076E+00 0.12560668E+04</pdfrwt>
<totfact> 0.26144641E-01</totfact>
</mgrwt>
</event>
<event>
12    1  0.7781383E-008  0.3816786E+03  0.7818608E-02  0.1050315E+00
          2   -1    0    0  501    0  0.00000000000E+00  0.00000000000E+00  0.11769096095E+04  0.11769096095E+04  0.00000000000E+00 0. -1.
         -2   -1    0    0    0  501 -0.00000000000E+00 -0.00000000000E+00 -0.45172333041E+03  0.45172333041E+03  0.00000000000E+00 0.  1.
         23    2    1    2    0    0  0.18916346826E+03  0.61996962032E+02 -0.33156518713E+03  0.39720880154E+03  0.90625149235E+02 0.  0.
    5000000    2    1    2    0    0 -0.18916346826E+03 -0.61996962032E+02  0.10567514663E+04  0.12314241384E+04  0.60004608672E+03 0.  0.
         23    2    4    4    0    0 -0.27375299165E+03  0.14248678593E+03  0.31628216837E+03  0.45348496925E+03  0.10183821826E+03 0.  0.
         23    2    4    4    0    0  0.84589523390E+02 -0.20448374797E+03  0.74046929790E+03  0.77793916917E+03  0.89025721855E+02 0.  0.
          3    1    3    3  502    0  0.39303186342E+02 -0.21107263598E+02 -0.96502821590E+02  0.10631581072E+03  0.00000000000E+00 0. -1.
         -3    1    3    3    0  502  0.14986028192E+03  0.83104225629E+02 -0.23506236554E+03  0.29089299082E+03  0.00000000000E+00 0.  1.
         15    1    5    5    0    0 -0.13876664473E+03  0.92579222742E+02  0.10259524324E+03  0.19584697046E+03  0.17770000000E+01 0. -1.
        -15    1    5    5    0    0 -0.13498634693E+03  0.49907563193E+02  0.21368692513E+03  0.25763799879E+03  0.17770000000E+01 0.  1.
          3    1    6    6  503    0  0.10167253808E+03 -0.18085945590E+03  0.61234571555E+03  0.64654058120E+03  0.00000000000E+00 0. -1.
         -3    1    6    6    0  503 -0.17083014694E+02 -0.23624292070E+02  0.12812358235E+03  0.13139858797E+03  0.00000000000E+00 0.  1.
<mgrwt>
<rscale>  0 0.38167857E+03</rscale>
<asrwt>0</asrwt>
<pdfrwt beam="1">  1        2 0.18106302E+00 0.38167857E+03</pdfrwt>
<pdfrwt beam="2">  1       -2 0.69495897E-01 0.38167857E+03</pdfrwt>
<totfact> 0.39534302E+01</totfact>
</mgrwt>
</event>
<event>
12    1  0.7781383E-008  0.7494696E+03  0.7818608E-02  0.9636183E-01
         -1   -1    0    0    0  501 -0.00000000000E+00  0.00000000000E+00  0.63609597336E+03  0.63609597336E+03  0.00000000000E+00 0.  1.
          1   -1    0    0  501    0  0.00000000000E+00 -0.00000000000E+00 -0.20448174513E+04  0.20448174513E+04  0.00000000000E+00 0. -1.
         23    2    1    2    0    0 -0.78866217272E+02  0.72925209627E+03 -0.15550580566E+04  0.17219024438E+04  0.93348627099E+02 0.  0.
    5000000    2    1    2    0    0  0.78866217272E+02 -0.72925209627E+03  0.14633657874E+03  0.95901098085E+03  0.60021593362E+03 0.  0.
         23    2    4    4    0    0  0.91525847466E+02 -0.26021226940E+03  0.33617889395E+03  0.44415237247E+03  0.90375191986E+02 0.  0.
         23    2    4    4    0    0 -0.12659630194E+02 -0.46903982687E+03 -0.18984231522E+03  0.51485860838E+03  0.94237235511E+02 0.  0.
          3    1    3    3  502    0 -0.79337600681E+01  0.40341945349E+03 -0.78108938275E+03  0.87915347002E+03  0.00000000000E+00 0. -1.
         -3    1    3    3    0  502 -0.70932457204E+02  0.32583264278E+03 -0.77396867388E+03  0.84274897374E+03  0.00000000000E+00 0.  1.
         15    1    5    5    0    0  0.12276703034E+02 -0.15304867468E+03  0.14576661116E+03  0.21172075221E+03  0.17770000000E+01 0.  1.
        -15    1    5    5    0    0  0.79249144432E+02 -0.10716359472E+03  0.19041228280E+03  0.23243162026E+03  0.17770000000E+01 0. -1.
          3    1    6    6  503    0  0.30206467632E+02 -0.13409716147E+03 -0.83516174933E+02  0.16083976771E+03  0.00000000000E+00 0. -1.
         -3    1    6    6    0  503 -0.42866097826E+02 -0.33494266540E+03 -0.10632614028E+03  0.35401884068E+03  0.00000000000E+00 0.  1.
<mgrwt>
<rscale>  0 0.74946955E+03</rscale>
<asrwt>0</asrwt>
<pdfrwt beam="1">  1        1 0.31458730E+00 0.74946955E+03</pdfrwt>
<pdfrwt beam="2">  1       -1 0.97860918E-01 0.74946955E+03</pdfrwt>
<totfact> 0.29307489E+00</totfact>
</mgrwt>
</event>
<event>
12    1  0.7781383E-008  0.5818374E+03  0.7818608E-02  0.9943821E-01
         -2   -1    0    0    0  501 -0.00000000000E+00  0.00000000000E+00  0.17124556071E+04  0.17124556071E+04  0.00000000000E+00 0.  1.
          2   -1    0    0  501    0  0.00000000000E+00 -0.00000000000E+00 -0.23437749877E+03  0.23437749877E+03  0.00000000000E+00 0. -1.
         23    2    1    2    0    0  0.43027588413E+03 -0.38455878889E+02  0.92016663553E+03  0.10206356489E+04  0.91511199541E+02 0.  0.
    5000000    2    1    2    0    0 -0.43027588413E+03  0.38455878889E+02  0.55791147284E+03  0.92619745699E+03  0.59996693802E+03 0.  0.
         23    2    4    4    0    0  0.13208778112E+02 -0.19987305848E+03  0.10823040298E+03  0.24488829811E+03  0.90181744813E+02 0.  0.
         23    2    4    4    0    0 -0.44348466224E+03  0.23832893737E+03  0.44968106986E+03  0.68130915888E+03  0.92139987821E+02 0.  0.
          3    1    3    3  502    0  0.60198095669E+02  0.25471831097E+02  0.15711733630E+03  0.17017191974E+03  0.00000000000E+00 0. -1.
         -3    1    3    3    0  502  0.37007778846E+03 -0.63927709985E+02  0.76304929923E+03  0.85046372919E+03  0.00000000000E+00 0.  1.
         15    1    5    5    0    0 -0.24891985567E+02 -0.28618133089E+02  0.43833269430E+02  0.57992428168E+02  0.17770000000E+01 0. -1.
        -15    1    5    5    0    0  0.38100763679E+02 -0.17125492539E+03  0.64397133551E+02  0.18689586994E+03  0.17770000000E+01 0.  1.
          4    1    6    6  503    0 -0.28437722264E+03  0.10996782630E+03  0.23578559727E+03  0.38543245252E+03  0.00000000000E+00 0. -1.
         -4    1    6    6    0  503 -0.15910743960E+03  0.12836111107E+03  0.21389547259E+03  0.29587670635E+03  0.00000000000E+00 0.  1.
<mgrwt>
<rscale>  0 0.58183742E+03</rscale>
<asrwt>0</asrwt>
<pdfrwt beam="1">  1        2 0.36058078E-01 0.58183742E+03</pdfrwt>
<pdfrwt beam="2">  1       -2 0.26345470E+00 0.58183742E+03</pdfrwt>
<totfact> 0.80848059E+00</totfact>
</mgrwt>
</event>
<event>
12    1  0.8424748E-008  0.1142063E+04  0.7818608E-02  0.9165137E-01
          2   -1    0    0  501    0  0.00000000000E+00  0.00000000000E+00  0.22208090698E+04  0.22208090698E+04  0.00000000000E+00 0. -1.
         -2   -1    0    0    0  501 -0.00000000000E+00 -0.00000000000E+00 -0.68384311922E+03  0.68384311922E+03  0.00000000000E+00 0.  1.
         23    2    1    2    0    0  0.66175304430E+03  0.83797291095E+03  0.12464812065E+04  0.16458709200E+04  0.12271917543E+03 0.  0.
    5000000    2    1    2    0    0 -0.66175304430E+03 -0.83797291095E+03  0.29048474413E+03  0.12587812691E+04  0.60002767074E+03 0.  0.
         23    2    4    4    0    0 -0.29335338574E+03 -0.44092108434E+01  0.10116185078E+03  0.32350043589E+03  0.91340910348E+02 0.  0.
         23    2    4    4    0    0 -0.36839965857E+03 -0.83356370010E+03  0.18932289335E+03  0.93528083318E+03  0.91434831437E+02 0.  0.
          1    1    3    3  502    0  0.37532005541E+03  0.38265179299E+03  0.58890571240E+03  0.79630237773E+03  0.00000000000E+00 0. -1.
         -1    1    3    3    0  502  0.28643298889E+03  0.45532111796E+03  0.65757549408E+03  0.84956854226E+03  0.00000000000E+00 0.  1.
         15    1    5    5    0    0 -0.12024564752E+03  0.20479351822E+02  0.10838839046E+01  0.12199488568E+03  0.17770000000E+01 0.  1.
        -15    1    5    5    0    0 -0.17310773821E+03 -0.24888562665E+02  0.10007796688E+03  0.20150555021E+03  0.17770000000E+01 0. -1.
          4    1    6    6  503    0 -0.25025199536E+03 -0.63113790481E+03  0.17123390299E+03  0.70020151785E+03  0.00000000000E+00 0. -1.
         -4    1    6    6    0  503 -0.11814766321E+03 -0.20242579530E+03  0.18088990359E+02  0.23507931533E+03  0.00000000000E+00 0.  1.
<mgrwt>
<rscale>  0 0.11420627E+04</rscale>
<asrwt>0</asrwt>
<pdfrwt beam="1">  1        2 0.34166293E+00 0.11420627E+04</pdfrwt>
<pdfrwt beam="2">  1       -2 0.10520664E+00 0.11420627E+04</pdfrwt>
<totfact> 0.36263318E+00</totfact>
</mgrwt>
</event>
<event>
12    1  0.7781383E-008  0.7937655E+03  0.7818608E-02  0.9569085E-01
         -1   -1    0    0    0  501 -0.00000000000E+00  0.00000000000E+00  0.68116301232E+03  0.68116301232E+03  0.00000000000E+00 0.  1.
          1   -1    0    0  501    0  0.00000000000E+00 -0.00000000000E+00 -0.93105233456E+03  0.93105233456E+03  0.00000000000E+00 0. -1.
         23    2    1    2    0    0 -0.55726956580E+02 -0.67638234170E+03 -0.11187796006E+03  0.69587335544E+03  0.10547266472E+03 0.  0.
    5000000    2    1    2    0    0  0.55726956580E+02  0.67638234170E+03 -0.13801136218E+03  0.91634199144E+03  0.60003078532E+03 0.  0.
         23    2    4    4    0    0 -0.21156954551E+03  0.54663071968E+03 -0.71853613727E+02  0.59824789579E+03  0.95764224653E+02 0.  0.
         23    2    4    4    0    0  0.26729650209E+03  0.12975162202E+03 -0.66157748456E+02  0.31809409565E+03  0.92326066517E+02 0.  0.
          3    1    3    3  502    0 -0.87367971638E+02 -0.51211015941E+03 -0.82348984364E+02  0.52599556373E+03  0.00000000000E+00 0. -1.
         -3    1    3    3    0  502  0.31641015058E+02 -0.16427218229E+03 -0.29528975693E+02  0.16987779170E+03  0.00000000000E+00 0.  1.
         15    1    5    5    0    0 -0.60658640151E+02  0.24379695164E+03 -0.66334234900E+02  0.25984574790E+03  0.17770000000E+01 0. -1.
        -15    1    5    5    0    0 -0.15091090536E+03  0.30283376804E+03 -0.55193788268E+01  0.33840214788E+03  0.17770000000E+01 0.  1.
          3    1    6    6  503    0  0.11756405640E+03  0.74426169023E+01 -0.25538550642E+02  0.12053595925E+03  0.00000000000E+00 0. -1.
         -3    1    6    6    0  503  0.14973244569E+03  0.12230900512E+03 -0.40619197814E+02  0.19755813640E+03  0.00000000000E+00 0.  1.
<mgrwt>
<rscale>  0 0.79376547E+03</rscale>
<asrwt>0</asrwt>
<pdfrwt beam="1">  1        1 0.14323882E+00 0.79376547E+03</pdfrwt>
<pdfrwt beam="2">  1       -1 0.10479431E+00 0.79376547E+03</pdfrwt>
<totfact> 0.15041053E+01</totfact>
</mgrwt>
</event>
<event>
12    1  0.7781383E-008  0.4695504E+03  0.7818608E-02  0.1022047E+00
          4   -1    0    0  501    0  0.00000000000E+00  0.00000000000E+00  0.59895879776E+03  0.59895879776E+03  0.00000000000E+00 0.  1.
         -4   -1    0    0    0  501 -0.00000000000E+00 -0.00000000000E+00 -0.39586400053E+03  0.39586400053E+03  0.00000000000E+00 0. -1.
         23    2    1    2    0    0 -0.28480003785E+03  0.63355996543E+01  0.13137686745E+03  0.32669637454E+03  0.91210955792E+02 0.  0.
    5000000    2    1    2    0    0  0.28480003785E+03 -0.63355996543E+01  0.71717929785E+02  0.66812642375E+03  0.60008187381E+03 0.  0.
         23    2    4    4    0    0  0.25164857336E+03 -0.26977793638E+03  0.73959766322E+02  0.38711851342E+03  0.91014048158E+02 0.  0.
         23    2    4    4    0    0  0.33151464484E+02  0.26344233673E+03 -0.22418365371E+01  0.28100791033E+03  0.91975732984E+02 0.  0.
          3    1    3    3  502    0 -0.23065434871E+03  0.18322496212E+02  0.65274047307E+02  0.24041182104E+03  0.00000000000E+00 0. -1.
         -3    1    3    3    0  502 -0.54145689140E+02 -0.11986896558E+02  0.66102820144E+02  0.86284553499E+02  0.00000000000E+00 0.  1.
         15    1    5    5    0    0  0.13888694605E+03 -0.20785616539E+03  0.64119132752E+02  0.25808562569E+03  0.17770000000E+01 0. -1.
        -15    1    5    5    0    0  0.11276162732E+03 -0.61921770993E+02  0.98406335692E+01  0.12903288773E+03  0.17770000000E+01 0.  1.
          1    1    6    6  503    0  0.10758435541E+02  0.24316417412E+03  0.18900043349E+02  0.24413473974E+03  0.00000000000E+00 0. -1.
         -1    1    6    6    0  503  0.22393028943E+02  0.20278162612E+02 -0.21141879887E+02  0.36873170589E+02  0.00000000000E+00 0.  1.
<mgrwt>
<rscale>  0 0.46955037E+03</rscale>
<asrwt>0</asrwt>
<pdfrwt beam="1">  1        4 0.92147507E-01 0.46955037E+03</pdfrwt>
<pdfrwt beam="2">  1       -4 0.60902154E-01 0.46955037E+03</pdfrwt>
<totfact> 0.49371089E+00</totfact>
</mgrwt>
</event>
<event>
12    1  0.7781383E-008  0.1201949E+04  0.7818608E-02  0.9111152E-01
         -2   -1    0    0    0  501 -0.00000000000E+00  0.00000000000E+00  0.55504740412E+03  0.55504740412E+03  0.00000000000E+00 0.  1.
          2   -1    0    0  501    0  0.00000000000E+00 -0.00000000000E+00 -0.27859229196E+04  0.27859229196E+04  0.00000000000E+00 0. -1.
         23    2    1    2    0    0  0.10038312502E+04 -0.59130179661E+03 -0.11848721968E+04  0.16642195052E+04  0.91593914159E+02 0.  0.
    5000000    2    1    2    0    0 -0.10038312502E+04  0.59130179661E+03 -0.10460033186E+04  0.16767508185E+04  0.60004614088E+03 0.  0.
         23    2    4    4    0    0 -0.86011468061E+03  0.31351931631E+03 -0.98103050508E+03  0.13447038336E+04  0.87840325404E+02 0.  0.
         23    2    4    4    0    0 -0.14371656960E+03  0.27778248030E+03 -0.64972813512E+02  0.33204698485E+03  0.90643118402E+02 0.  0.
          1    1    3    3  502    0  0.22734059783E+03 -0.16661533981E+03 -0.24829333414E+03  0.37562481103E+03  0.00000000000E+00 0. -1.
         -1    1    3    3    0  502  0.77649065238E+03 -0.42468645680E+03 -0.93657886269E+03  0.12885946942E+04  0.00000000000E+00 0.  1.
         15    1    5    5    0    0 -0.45134059230E+03  0.11789750379E+03 -0.50145410126E+03  0.68488504514E+03  0.17770000000E+01 0. -1.
        -15    1    5    5    0    0 -0.40877408831E+03  0.19562181252E+03 -0.47957640383E+03  0.65981878849E+03  0.17770000000E+01 0.  1.
          4    1    6    6  503    0 -0.11318516139E+03  0.16218873849E+03 -0.39521082070E+01  0.19781730666E+03  0.00000000000E+00 0. -1.
         -4    1    6    6    0  503 -0.30531408204E+02  0.11559374181E+03 -0.61020705305E+02  0.13422967819E+03  0.00000000000E+00 0.  1.
<mgrwt>
<rscale>  0 0.12019489E+04</rscale>
<asrwt>0</asrwt>
<pdfrwt beam="1">  1        2 0.42860352E+00 0.12019489E+04</pdfrwt>
<pdfrwt beam="2">  1       -2 0.85391909E-01 0.12019489E+04</pdfrwt>
<totfact> 0.27809695E+00</totfact>
</mgrwt>
</event>
<event>
12    1  0.7781383E-008  0.6452802E+03  0.7818608E-02  0.9815676E-01
          2   -1    0    0  501    0  0.00000000000E+00  0.00000000000E+00  0.37592012813E+03  0.37592012813E+03  0.00000000000E+00 0. -1.
         -2   -1    0    0    0  501 -0.00000000000E+00 -0.00000000000E+00 -0.13922714863E+04  0.13922714863E+04  0.00000000000E+00 0.  1.
         23    2    1    2    0    0 -0.12357856455E+03 -0.55702458672E+03 -0.62849679064E+03  0.85388084750E+03  0.92499913822E+02 0.  0.
    5000000    2    1    2    0    0  0.12357856455E+03  0.55702458672E+03 -0.38785456749E+03  0.91431076689E+03  0.59998746744E+03 0.  0.
         23    2    4    4    0    0 -0.14759875156E+03  0.29786192805E+03 -0.40122795901E+03  0.52933753511E+03  0.93312546528E+02 0.  0.
         23    2    4    4    0    0  0.27117731611E+03  0.25916265867E+03  0.13373391519E+02  0.38497323178E+03  0.85575236838E+02 0.  0.
          1    1    3    3  502    0 -0.63740529711E+02 -0.41250923883E+03 -0.40927584266E+03  0.58457971453E+03  0.00000000000E+00 0. -1.
         -1    1    3    3    0  502 -0.59838034841E+02 -0.14451534789E+03 -0.21922094798E+03  0.26930113298E+03  0.00000000000E+00 0.  1.
         15    1    5    5    0    0 -0.37234221629E+01  0.75961111180E+02 -0.12925220471E+03  0.14997747976E+03  0.17770000000E+01 0.  1.
        -15    1    5    5    0    0 -0.14387532940E+03  0.22190081687E+03 -0.27197575430E+03  0.37936005535E+03  0.17770000000E+01 0. -1.
          1    1    6    6  503    0  0.23265624721E+03  0.20740776733E+03  0.41794324474E+02  0.31447365052E+03  0.00000000000E+00 0. -1.
         -1    1    6    6    0  503  0.38521068908E+02  0.51754891338E+02 -0.28420932954E+02  0.70499581255E+02  0.00000000000E+00 0.  1.
<mgrwt>
<rscale>  0 0.64528022E+03</rscale>
<asrwt>0</asrwt>
<pdfrwt beam="1">  1        2 0.57833864E-01 0.64528022E+03</pdfrwt>
<pdfrwt beam="2">  1       -2 0.21419562E+00 0.64528022E+03</pdfrwt>
<totfact> 0.94805901E+00</totfact>
</mgrwt>
</event>
<event>
12    1  0.7781383E-008  0.7180449E+03  0.7818608E-02  0.9686861E-01
          2   -1    0    0  501    0  0.00000000000E+00  0.00000000000E+00  0.10907617591E+04  0.10907617591E+04  0.00000000000E+00 0.  1.
         -2   -1    0    0    0  501 -0.00000000000E+00 -0.00000000000E+00 -0.50740679738E+03  0.50740679738E+03  0.00000000000E+00 0. -1.
         23    2    1    2    0    0 -0.20608564022E+03 -0.56659145224E+03  0.93980463647E+02  0.61682226532E+03  0.90223137744E+02 0.  0.
    5000000    2    1    2    0    0  0.20608564022E+03  0.56659145224E+03  0.48937449803E+03  0.98134629112E+03  0.60004664729E+03 0.  0.
         23    2    4    4    0    0 -0.17942706801E+03  0.69357752287E+02  0.93976642623E+02  0.23266018306E+03  0.91074589692E+02 0.  0.
         23    2    4    4    0    0  0.38551270823E+03  0.49723369996E+03  0.39539785540E+03  0.74868610806E+03  0.91268963846E+02 0.  0.
          4    1    3    3  502    0 -0.13369269021E+03 -0.46159273887E+03  0.91882705091E+02  0.48926886626E+03  0.00000000000E+00 0. -1.
         -4    1    3    3    0  502 -0.72392950010E+02 -0.10499871338E+03  0.20977585562E+01  0.12755339906E+03  0.00000000000E+00 0.  1.
         15    1    5    5    0    0 -0.87013512975E+02  0.33012108092E+02  0.95458849701E+02  0.13332929324E+03  0.17770000000E+01 0. -1.
        -15    1    5    5    0    0 -0.92413555036E+02  0.36345644195E+02 -0.14822070772E+01  0.99330889824E+02  0.17770000000E+01 0.  1.
          2    1    6    6  503    0  0.45424978253E+02  0.11670248502E+03  0.84913320945E+02  0.15130489328E+03  0.00000000000E+00 0. -1.
         -2    1    6    6    0  503  0.34008772998E+03  0.38053121494E+03  0.31048453446E+03  0.59738121477E+03  0.00000000000E+00 0.  1.
<mgrwt>
<rscale>  0 0.71804493E+03</rscale>
<asrwt>0</asrwt>
<pdfrwt beam="1">  1        2 0.16780950E+00 0.71804493E+03</pdfrwt>
<pdfrwt beam="2">  1       -2 0.78062584E-01 0.71804493E+03</pdfrwt>
<totfact> 0.32897906E+01</totfact>
</mgrwt>
</event>
<event>
12    1  0.7781383E-008  0.1223676E+04  0.7818608E-02  0.9092382E-01
          2   -1    0    0  501    0  0.00000000000E+00  0.00000000000E+00  0.18446631309E+04  0.18446631309E+04  0.00000000000E+00 0. -1.
         -2   -1    0    0    0  501 -0.00000000000E+00 -0.00000000000E+00 -0.12543352486E+04  0.12543352486E+04  0.00000000000E+00 0.  1.
         23    2    1    2    0    0  0.10474288053E+04  0.52201945038E+03 -0.60609239376E+03  0.13211283863E+04  0.91764996845E+02 0.  0.
    5000000    2    1    2    0    0 -0.10474288053E+04 -0.52201945038E+03  0.11964202760E+04  0.17778699933E+04  0.59982399695E+03 0.  0.
         23    2    4    4    0    0 -0.64577209325E+03 -0.42027374965E+02  0.42184414975E+03  0.77793881353E+03  0.91915255894E+02 0.  0.
         23    2    4    4    0    0 -0.40165671203E+03 -0.47999207541E+03  0.77457612630E+03  0.99993117973E+03  0.90408417657E+02 0.  0.
          4    1    3    3  502    0  0.36077314999E+03  0.13270013609E+03 -0.20833315045E+03  0.43722910865E+03  0.00000000000E+00 0.  1.
         -4    1    3    3    0  502  0.68665565528E+03  0.38931931429E+03 -0.39775924331E+03  0.88389927766E+03  0.00000000000E+00 0. -1.
         15    1    5    5    0    0 -0.39593422154E+03 -0.18325842808E+02  0.30993400676E+03  0.50315205512E+03  0.17770000000E+01 0. -1.
        -15    1    5    5    0    0 -0.24983787171E+03 -0.23701532157E+02  0.11191014299E+03  0.27478675841E+03  0.17770000000E+01 0.  1.
          4    1    6    6  503    0 -0.17954258338E+03 -0.19732686850E+03  0.39956641711E+03  0.48044432972E+03  0.00000000000E+00 0. -1.
         -4    1    6    6    0  503 -0.22211412865E+03 -0.28266520691E+03  0.37500970919E+03  0.51948685001E+03  0.00000000000E+00 0.  1.
<mgrwt>
<rscale>  0 0.12236762E+04</rscale>
<asrwt>0</asrwt>
<pdfrwt beam="1">  1        2 0.28379433E+00 0.12236762E+04</pdfrwt>
<pdfrwt beam="2">  1       -2 0.19297465E+00 0.12236762E+04</pdfrwt>
<totfact> 0.11679443E+00</totfact>
</mgrwt>
</event>
<event>
12    1  0.7781383E-008  0.8740511E+03  0.7818608E-02  0.9458613E-01
          2   -1    0    0  501    0  0.00000000000E+00  0.00000000000E+00  0.15946750472E+04  0.15946750472E+04  0.00000000000E+00 0.  1.
         -2   -1    0    0    0  501 -0.00000000000E+00 -0.00000000000E+00 -0.53125663738E+03  0.53125663738E+03  0.00000000000E+00 0. -1.
         23    2    1    2    0    0  0.51432162430E+03 -0.61527475159E+03  0.67113713583E+03  0.10501662750E+04  0.96614682863E+02 0.  0.
    5000000    2    1    2    0    0 -0.51432162430E+03  0.61527475159E+03  0.39228127403E+03  0.10757654096E+04  0.60024733682E+03 0.  0.
         23    2    4    4    0    0  0.65804401460E+02 -0.17344737486E+02 -0.29257765806E+02  0.11500497940E+03  0.87971979949E+02 0.  0.
         23    2    4    4    0    0 -0.58012602576E+03  0.63261948907E+03  0.42153903983E+03  0.96076043019E+03  0.92799883656E+02 0.  0.
          3    1    3    3  502    0  0.31472923807E+03 -0.44221540476E+03  0.42958831026E+03  0.69221028149E+03  0.00000000000E+00 0. -1.
         -3    1    3    3    0  502  0.19959238623E+03 -0.17305934683E+03  0.24154882558E+03  0.35795599353E+03  0.00000000000E+00 0.  1.
         15    1    5    5    0    0  0.44031098429E+02  0.99881211615E+01 -0.55281477755E+02  0.71398177182E+02  0.17770000000E+01 0.  1.
        -15    1    5    5    0    0  0.21773303032E+02 -0.27332858648E+02  0.26023711950E+02  0.43606802215E+02  0.17770000000E+01 0. -1.
          2    1    6    6  503    0 -0.25473526151E+03  0.32752920182E+03  0.16765502524E+03  0.44751942861E+03  0.00000000000E+00 0.  1.
         -2    1    6    6    0  503 -0.32539076425E+03  0.30509028726E+03  0.25388401460E+03  0.51324100158E+03  0.00000000000E+00 0. -1.
<mgrwt>
<rscale>  0 0.87405112E+03</rscale>
<asrwt>0</asrwt>
<pdfrwt beam="1">  1        2 0.24533462E+00 0.87405112E+03</pdfrwt>
<pdfrwt beam="2">  1       -2 0.81731791E-01 0.87405112E+03</pdfrwt>
<totfact> 0.14948889E+01</totfact>
</mgrwt>
</event>
<event>
12    1  0.7781383E-008  0.1232995E+04  0.7818608E-02  0.9084457E-01
         -1   -1    0    0    0  501 -0.00000000000E+00  0.00000000000E+00  0.13988241149E+04  0.13988241149E+04  0.00000000000E+00 0.  1.
          1   -1    0    0  501    0  0.00000000000E+00 -0.00000000000E+00 -0.24489859065E+04  0.24489859065E+04  0.00000000000E+00 0. -1.
         23    2    1    2    0    0  0.12274438049E+04 -0.29268797741E+02  0.85802327428E+03  0.15007387826E+04  0.92401286203E+02 0.  0.
    5000000    2    1    2    0    0 -0.12274438049E+04  0.29268797741E+02 -0.19081850659E+04  0.23470712387E+04  0.60008182552E+03 0.  0.
         23    2    4    4    0    0 -0.52363989330E+03  0.53684682014E+02 -0.36438551785E+03  0.64778906918E+03  0.98858937892E+02 0.  0.
         23    2    4    4    0    0 -0.70380391161E+03 -0.24415884273E+02 -0.15437995480E+04  0.16992821695E+04  0.91141460689E+02 0.  0.
          1    1    3    3  502    0  0.86763078332E+03  0.68424123424E+01  0.64388857314E+03  0.10804732710E+04  0.00000000000E+00 0. -1.
         -1    1    3    3    0  502  0.35981302159E+03 -0.36111210083E+02  0.21413470114E+03  0.42026551159E+03  0.00000000000E+00 0.  1.
         15    1    5    5    0    0 -0.26343992369E+02 -0.15260287096E+01  0.35932224172E+01  0.26690891216E+02  0.17770000000E+01 0. -1.
        -15    1    5    5    0    0 -0.49729590093E+03  0.55210710724E+02 -0.36797874026E+03  0.62109817797E+03  0.17770000000E+01 0.  1.
          4    1    6    6  503    0 -0.30118994126E+03 -0.54858362763E+02 -0.68539664759E+03  0.75066196467E+03  0.00000000000E+00 0.  1.
         -4    1    6    6    0  503 -0.40261397035E+03  0.30442478490E+02 -0.85840290042E+03  0.94862020486E+03  0.00000000000E+00 0. -1.
<mgrwt>
<rscale>  0 0.12329945E+04</rscale>
<asrwt>0</asrwt>
<pdfrwt beam="1">  1        1 0.37676706E+00 0.12329945E+04</pdfrwt>
<pdfrwt beam="2">  1       -1 0.21520371E+00 0.12329945E+04</pdfrwt>
<totfact> 0.17075366E-01</totfact>
</mgrwt>
</event>
<event>
12    1  0.7781383E-008  0.4864416E+03  0.7818608E-02  0.1017380E+00
          2   -1    0    0  501    0  0.00000000000E+00  0.00000000000E+00  0.17143092430E+04  0.17143092430E+04  0.00000000000E+00 0.  1.
         -2   -1    0    0    0  501 -0.00000000000E+00 -0.00000000000E+00 -0.19710540736E+03  0.19710540736E+03  0.00000000000E+00 0. -1.
         23    2    1    2    0    0 -0.21722607484E+03  0.33746957025E+03  0.35474740889E+03  0.54322147502E+03  0.90393408939E+02 0.  0.
    5000000    2    1    2    0    0  0.21722607484E+03 -0.33746957025E+03  0.11624564267E+04  0.13681931753E+04  0.59964551405E+03 0.  0.
         23    2    4    4    0    0 -0.70037152443E+02  0.42780825554E+02  0.15140787724E+02  0.12240241847E+03  0.89541648623E+02 0.  0.
         23    2    4    4    0    0  0.28726322728E+03 -0.38025039580E+03  0.11473156390E+04  0.12457907568E+04  0.92471125665E+02 0.  0.
          3    1    3    3  502    0 -0.11080919627E+03  0.12366356024E+03  0.99083501063E+02  0.19336208080E+03  0.00000000000E+00 0. -1.
         -3    1    3    3    0  502 -0.10641687857E+03  0.21380601001E+03  0.25566390783E+03  0.34985939422E+03  0.00000000000E+00 0.  1.
         15    1    5    5    0    0 -0.30994423931E+02  0.25893928284E+02 -0.37196299634E+02  0.54935164260E+02  0.17770000000E+01 0. -1.
        -15    1    5    5    0    0 -0.39042728512E+02  0.16886897270E+02  0.52337087359E+02  0.67467254215E+02  0.17770000000E+01 0.  1.
          1    1    6    6  503    0  0.51899232359E+02 -0.22018907155E+02  0.11714129474E+03  0.13000171355E+03  0.00000000000E+00 0. -1.
         -1    1    6    6    0  503  0.23536399492E+03 -0.35823148865E+03  0.10301743443E+04  0.11157890433E+04  0.00000000000E+00 0.  1.
<mgrwt>
<rscale>  0 0.48644161E+03</rscale>
<asrwt>0</asrwt>
<pdfrwt beam="1">  1        2 0.26373987E+00 0.48644161E+03</pdfrwt>
<pdfrwt beam="2">  1       -2 0.30323910E-01 0.48644161E+03</pdfrwt>
<totfact> 0.10197570E+02</totfact>
</mgrwt>
</event>
<event>
12    1  0.7781383E-008  0.2797622E+03  0.7818608E-02  0.1095819E+00
          1   -1    0    0  501    0  0.00000000000E+00  0.00000000000E+00  0.56632482841E+03  0.56632482841E+03  0.00000000000E+00 0. -1.
         -1   -1    0    0    0  501 -0.00000000000E+00 -0.00000000000E+00 -0.25950416629E+03  0.25950416629E+03  0.00000000000E+00 0.  1.
         23    2    1    2    0    0  0.58126026051E+02 -0.91926702474E+02 -0.43275328743E+01  0.14131962477E+03  0.90129658109E+02 0.  0.
    5000000    2    1    2    0    0 -0.58126026051E+02  0.91926702474E+02  0.31114819500E+03  0.68450936994E+03  0.59992559935E+03 0.  0.
         23    2    4    4    0    0 -0.20773485216E+03  0.15328272675E+03  0.39417979880E+03  0.48093250154E+03  0.96275615480E+02 0.  0.
         23    2    4    4    0    0  0.14960882611E+03 -0.61356024278E+02 -0.83031603804E+02  0.20357686839E+03  0.91662050763E+02 0.  0.
          3    1    3    3  502    0  0.47977882245E+02 -0.75788962204E+02  0.36047081961E+02  0.96670761322E+02  0.00000000000E+00 0. -1.
         -3    1    3    3    0  502  0.10148143807E+02 -0.16137740270E+02 -0.40374614835E+02  0.44648863444E+02  0.00000000000E+00 0.  1.
         15    1    5    5    0    0 -0.17149894649E+03  0.89083384838E+02  0.33342606118E+03  0.38538790083E+03  0.17770000000E+01 0.  1.
        -15    1    5    5    0    0 -0.36235905665E+02  0.64199341914E+02  0.60753737618E+02  0.95544600711E+02  0.17770000000E+01 0. -1.
          4    1    6    6  503    0  0.95575299190E+02  0.79175680374E+01 -0.58597247572E+02  0.11238755768E+03  0.00000000000E+00 0. -1.
         -4    1    6    6    0  503  0.54033526919E+02 -0.69273592315E+02 -0.24434356232E+02  0.91189310711E+02  0.00000000000E+00 0.  1.
<mgrwt>
<rscale>  0 0.27976216E+03</rscale>
<asrwt>0</asrwt>
<pdfrwt beam="1">  1        1 0.87126896E-01 0.27976216E+03</pdfrwt>
<pdfrwt beam="2">  1       -1 0.39923718E-01 0.27976216E+03</pdfrwt>
<totfact> 0.23808821E+02</totfact>
</mgrwt>
</event>
<event>
12    1  0.7781383E-008  0.1191868E+04  0.7818608E-02  0.9120005E-01
         -2   -1    0    0    0  501 -0.00000000000E+00  0.00000000000E+00  0.50476342731E+03  0.50476342731E+03  0.00000000000E+00 0.  1.
          2   -1    0    0  501    0  0.00000000000E+00 -0.00000000000E+00 -0.34689695887E+04  0.34689695887E+04  0.00000000000E+00 0. -1.
         23    2    1    2    0    0 -0.57515627019E+03  0.98323398447E+03 -0.21936718019E+04  0.24734105714E+04  0.89499032152E+02 0.  0.
    5000000    2    1    2    0    0  0.57515627019E+03 -0.98323398447E+03 -0.77053435942E+03  0.15003224446E+04  0.59974197393E+03 0.  0.
         23    2    4    4    0    0 -0.61201602398E+02  0.36988678399E+01 -0.66162517854E+02  0.12809855108E+03  0.90952967303E+02 0.  0.
         23    2    4    4    0    0  0.63635787259E+03 -0.98693285231E+03 -0.70437184157E+03  0.13722238935E+04  0.88718237721E+02 0.  0.
          1    1    3    3  502    0 -0.41471597776E+03  0.71822409101E+03 -0.15083971693E+04  0.17213649257E+04  0.00000000000E+00 0. -1.
         -1    1    3    3    0  502 -0.16044029243E+03  0.26500989346E+03 -0.68527463265E+03  0.75204564570E+03  0.00000000000E+00 0.  1.
         15    1    5    5    0    0 -0.58493440399E+02  0.12006966926E+02 -0.86941157615E+02  0.10548730938E+03  0.17770000000E+01 0.  1.
        -15    1    5    5    0    0 -0.27081619987E+01 -0.83080990859E+01  0.20778639761E+02  0.22611241699E+02  0.17770000000E+01 0. -1.
          1    1    6    6  503    0  0.16982329354E+02 -0.49743799151E+02 -0.16985996905E+02  0.55239199443E+02  0.00000000000E+00 0. -1.
         -1    1    6    6    0  503  0.61937554323E+03 -0.93718905315E+03 -0.68738584466E+03  0.13169846940E+04  0.00000000000E+00 0.  1.
<mgrwt>
<rscale>  0 0.11918677E+04</rscale>
<asrwt>0</asrwt>
<pdfrwt beam="1">  1        2 0.53368763E+00 0.11918677E+04</pdfrwt>
<pdfrwt beam="2">  1       -2 0.77655911E-01 0.11918677E+04</pdfrwt>
<totfact> 0.12681556E+00</totfact>
</mgrwt>
</event>
<event>
12    1  0.7781383E-008  0.5667056E+03  0.7818608E-02  0.9976995E-01
         -1   -1    0    0    0  501 -0.00000000000E+00  0.00000000000E+00  0.88352946592E+03  0.88352946592E+03  0.00000000000E+00 0.  1.
          1   -1    0    0  501    0  0.00000000000E+00 -0.00000000000E+00 -0.37864827843E+03  0.37864827843E+03  0.00000000000E+00 0. -1.
         23    2    1    2    0    0 -0.32805419274E+03  0.25214569454E+03  0.13319402630E+03  0.44412116090E+03  0.91136997281E+02 0.  0.
    5000000    2    1    2    0    0  0.32805419274E+03 -0.25214569454E+03  0.37168716119E+03  0.81805658345E+03  0.59989017602E+03 0.  0.
         23    2    4    4    0    0 -0.88569801876E+02  0.11025470077E+03  0.90514973772E+02  0.19161345413E+03  0.92314930975E+02 0.  0.
         23    2    4    4    0    0  0.41662399461E+03 -0.36240039531E+03  0.28117218742E+03  0.62644312932E+03  0.91997803674E+02 0.  0.
          4    1    3    3  502    0 -0.24279876549E+03  0.14448981717E+03  0.61292944088E+02  0.28911135015E+03  0.00000000000E+00 0. -1.
         -4    1    3    3    0  502 -0.85255427246E+02  0.10765587737E+03  0.71901082209E+02  0.15500981075E+03  0.00000000000E+00 0.  1.
         15    1    5    5    0    0 -0.10265596146E+03  0.89974831306E+02  0.95180594950E+02  0.16642181370E+03  0.17770000000E+01 0. -1.
        -15    1    5    5    0    0  0.14086159587E+02  0.20279869469E+02 -0.46656211774E+01  0.25191640430E+02  0.17770000000E+01 0.  1.
          2    1    6    6  503    0  0.34840806311E+03 -0.30781206201E+03  0.27191484632E+03  0.53858530208E+03  0.00000000000E+00 0. -1.
         -2    1    6    6    0  503  0.68215931505E+02 -0.54588333298E+02  0.92573410924E+01  0.87857827241E+02  0.00000000000E+00 0.  1.
<mgrwt>
<rscale>  0 0.56670559E+03</rscale>
<asrwt>0</asrwt>
<pdfrwt beam="1">  1        1 0.58253582E-01 0.56670559E+03</pdfrwt>
<pdfrwt beam="2">  1       -1 0.13592761E+00 0.56670559E+03</pdfrwt>
<totfact> 0.30485086E+01</totfact>
</mgrwt>
</event>
<event>
12    1  0.7781383E-008  0.5928575E+03  0.7818608E-02  0.9920336E-01
         -1   -1    0    0    0  501 -0.00000000000E+00  0.00000000000E+00  0.40610558954E+03  0.40610558954E+03  0.00000000000E+00 0.  1.
          1   -1    0    0  501    0  0.00000000000E+00 -0.00000000000E+00 -0.14462496993E+04  0.14462496993E+04  0.00000000000E+00 0. -1.
         23    2    1    2    0    0 -0.44111201525E+03  0.35176384343E+03 -0.64419050472E+02  0.57554674647E+03  0.93737035198E+02 0.  0.
    5000000    2    1    2    0    0  0.44111201525E+03 -0.35176384343E+03 -0.97572505927E+03  0.12768085423E+04  0.59990253456E+03 0.  0.
         23    2    4    4    0    0  0.18963367372E+03 -0.16819743698E+02  0.26359421224E+01  0.20924932046E+03  0.86801474270E+02 0.  0.
         23    2    4    4    0    0  0.25147834153E+03 -0.33494409973E+03 -0.97836100139E+03  0.10675592219E+04  0.84044851031E+02 0.  0.
          3    1    3    3  502    0 -0.81143760461E+02  0.98054733446E+02 -0.44052860173E+02  0.13468368536E+03  0.00000000000E+00 0. -1.
         -3    1    3    3    0  502 -0.35996825479E+03  0.25370910998E+03 -0.20366190299E+02  0.44086306111E+03  0.00000000000E+00 0.  1.
         15    1    5    5    0    0  0.10383319537E+03  0.20088348631E+02  0.33357194111E+02  0.11090867567E+03  0.17770000000E+01 0.  1.
        -15    1    5    5    0    0  0.85800478350E+02 -0.36908092329E+02 -0.30721251989E+02  0.98340644787E+02  0.17770000000E+01 0. -1.
          1    1    6    6  503    0  0.14509505543E+03 -0.19058822828E+03 -0.45289566082E+03  0.51233868433E+03  0.00000000000E+00 0. -1.
         -1    1    6    6    0  503  0.10638328610E+03 -0.14435587145E+03 -0.52546534057E+03  0.55522053755E+03  0.00000000000E+00 0.  1.
<mgrwt>
<rscale>  0 0.59285751E+03</rscale>
<asrwt>0</asrwt>
<pdfrwt beam="1">  1        1 0.22249995E+00 0.59285751E+03</pdfrwt>
<pdfrwt beam="2">  1       -1 0.62477783E-01 0.59285751E+03</pdfrwt>
<totfact> 0.19613967E+01</totfact>
</mgrwt>
</event>
<event>
12    1  0.9169022E-008  0.9658687E+03  0.7818608E-02  0.9346792E-01
         -2   -1    0    0    0  501 -0.00000000000E+00  0.00000000000E+00  0.46592571733E+03  0.46592571733E+03  0.00000000000E+00 0.  1.
          2   -1    0    0  501    0  0.00000000000E+00 -0.00000000000E+00 -0.26321917411E+04  0.26321917411E+04  0.00000000000E+00 0. -1.
         23    2    1    2    0    0 -0.42419459618E+03 -0.85200380156E+03 -0.15342110747E+04  0.18077235875E+04  0.90605813983E+02 0.  0.
    5000000    2    1    2    0    0  0.42419459618E+03  0.85200380156E+03 -0.63205494902E+03  0.12903938710E+04  0.59980942834E+03 0.  0.
         23    2    4    4    0    0  0.18252840037E+03  0.51904686227E+03 -0.66209387121E+03  0.86569738748E+03  0.91309420193E+02 0.  0.
         23    2    4    4    0    0  0.24166619581E+03  0.33295693929E+03  0.30038922192E+02  0.42469648348E+03  0.10100441880E+03 0.  0.
          3    1    3    3  502    0 -0.68179613221E+02 -0.22392511699E+03 -0.38165802783E+03  0.44772063599E+03  0.00000000000E+00 0. -1.
         -3    1    3    3    0  502 -0.35601498296E+03 -0.62807868457E+03 -0.11525530469E+04  0.13600029515E+04  0.00000000000E+00 0.  1.
         15    1    5    5    0    0  0.24062634789E+02  0.14075205610E+03 -0.12410633743E+03  0.18919749578E+03  0.17770000000E+01 0.  1.
        -15    1    5    5    0    0  0.15846576558E+03  0.37829480617E+03 -0.53798753378E+03  0.67649989170E+03  0.17770000000E+01 0. -1.
          3    1    6    6  503    0  0.16257343533E+03  0.14124467878E+03  0.15813658963E+01  0.21536638985E+03  0.00000000000E+00 0. -1.
         -3    1    6    6    0  503  0.79092760486E+02  0.19171226051E+03  0.28457556296E+02  0.20933009364E+03  0.00000000000E+00 0.  1.
<mgrwt>
<rscale>  0 0.96586874E+03</rscale>
<asrwt>0</asrwt>
<pdfrwt beam="1">  1        2 0.40495257E+00 0.96586874E+03</pdfrwt>
<pdfrwt beam="2">  1       -2 0.71680881E-01 0.96586874E+03</pdfrwt>
<totfact> 0.52352393E+00</totfact>
</mgrwt>
</event>
<event>
12    1  0.7781383E-008  0.1030362E+04  0.7818608E-02  0.9275857E-01
          2   -1    0    0  501    0  0.00000000000E+00  0.00000000000E+00  0.21810963810E+04  0.21810963810E+04  0.00000000000E+00 0. -1.
         -2   -1    0    0    0  501 -0.00000000000E+00 -0.00000000000E+00 -0.69379818146E+03  0.69379818146E+03  0.00000000000E+00 0.  1.
         23    2    1    2    0    0 -0.25932708457E+03  0.97487415842E+03  0.42240301352E+02  0.10133228281E+04  0.86074092705E+02 0.  0.
    5000000    2    1    2    0    0  0.25932708457E+03 -0.97487415842E+03  0.14450578982E+04  0.18615717343E+04  0.59968894551E+03 0.  0.
         23    2    4    4    0    0 -0.35072457966E+02 -0.22714000365E+03  0.55823432268E+02  0.25393380322E+03  0.92430851257E+02 0.  0.
         23    2    4    4    0    0  0.29439954254E+03 -0.74773415478E+03  0.13892344660E+04  0.16076379311E+04  0.93540682837E+02 0.  0.
          3    1    3    3  502    0 -0.98252790296E+02  0.43934780553E+03  0.57705704078E+02  0.45388330363E+03  0.00000000000E+00 0. -1.
         -3    1    3    3    0  502 -0.16107429428E+03  0.53552635289E+03 -0.15465402726E+02  0.55943952452E+03  0.00000000000E+00 0.  1.
         15    1    5    5    0    0 -0.47515155812E+02 -0.67445399721E+02 -0.47927376183E+01  0.82660147824E+02  0.17770000000E+01 0.  1.
        -15    1    5    5    0    0  0.12442697847E+02 -0.15969460392E+03  0.60616169886E+02  0.17127365540E+03  0.17770000000E+01 0. -1.
          2    1    6    6  503    0  0.13178490753E+03 -0.45523299745E+03  0.78802055402E+03  0.91955464078E+03  0.00000000000E+00 0. -1.
         -2    1    6    6    0  503  0.16261463501E+03 -0.29250115732E+03  0.60121391193E+03  0.68808329035E+03  0.00000000000E+00 0.  1.
<mgrwt>
<rscale>  0 0.10303622E+04</rscale>
<asrwt>0</asrwt>
<pdfrwt beam="1">  1        2 0.33555329E+00 0.10303622E+04</pdfrwt>
<pdfrwt beam="2">  1       -2 0.10673818E+00 0.10303622E+04</pdfrwt>
<totfact> 0.37342778E+00</totfact>
</mgrwt>
</event>
<event>
12    1  0.7781383E-008  0.6578132E+03  0.7818608E-02  0.9792228E-01
          1   -1    0    0  501    0  0.00000000000E+00  0.00000000000E+00  0.69334902755E+03  0.69334902755E+03  0.00000000000E+00 0.  1.
         -1   -1    0    0    0  501 -0.00000000000E+00 -0.00000000000E+00 -0.11689327971E+04  0.11689327971E+04  0.00000000000E+00 0. -1.
         23    2    1    2    0    0  0.55138429438E+03 -0.16964520910E+03 -0.78205067756E+03  0.97522516059E+03  0.81588691143E+02 0.  0.
    5000000    2    1    2    0    0 -0.55138429438E+03  0.16964520910E+03  0.30646690799E+03  0.88705666407E+03  0.60011950686E+03 0.  0.
         23    2    4    4    0    0 -0.42301692701E+03 -0.87835196573E+02  0.37118840727E+03  0.57714171270E+03  0.93023548383E+02 0.  0.
         23    2    4    4    0    0 -0.12836736737E+03  0.25748040567E+03 -0.64721499279E+02  0.30991495137E+03  0.95310357790E+02 0.  0.
          2    1    3    3  502    0  0.27303761505E+03 -0.66737615930E+02 -0.44300253798E+03  0.52464721220E+03  0.00000000000E+00 0. -1.
         -2    1    3    3    0  502  0.27834667932E+03 -0.10290759317E+03 -0.33904813958E+03  0.45057794839E+03  0.00000000000E+00 0.  1.
         15    1    5    5    0    0 -0.21718645410E+03 -0.86573410516E+02  0.16802004224E+03  0.28792152330E+03  0.17770000000E+01 0.  1.
        -15    1    5    5    0    0 -0.20583047291E+03 -0.12617860569E+01  0.20316836503E+03  0.28922018941E+03  0.17770000000E+01 0. -1.
          3    1    6    6  503    0 -0.10614170453E+03  0.12580983550E+03 -0.78929013060E+01  0.16479221474E+03  0.00000000000E+00 0. -1.
         -3    1    6    6    0  503 -0.22225662842E+02  0.13167057017E+03 -0.56828597973E+02  0.14512273663E+03  0.00000000000E+00 0.  1.
<mgrwt>
<rscale>  0 0.65781323E+03</rscale>
<asrwt>0</asrwt>
<pdfrwt beam="1">  1        1 0.10666908E+00 0.65781323E+03</pdfrwt>
<pdfrwt beam="2">  1       -1 0.17983581E+00 0.65781323E+03</pdfrwt>
<totfact> 0.60521009E+00</totfact>
</mgrwt>
</event>
<event>
12    1  0.7781383E-008  0.4390524E+03  0.7818608E-02  0.1031038E+00
         -1   -1    0    0    0  501 -0.00000000000E+00  0.00000000000E+00  0.25567799585E+03  0.25567799585E+03  0.00000000000E+00 0.  1.
          1   -1    0    0  501    0  0.00000000000E+00 -0.00000000000E+00 -0.97000351677E+03  0.97000351677E+03  0.00000000000E+00 0. -1.
         23    2    1    2    0    0  0.86155438049E+02 -0.21960313134E+03 -0.47463171056E+03  0.53782644574E+03  0.91289266976E+02 0.  0.
    5000000    2    1    2    0    0 -0.86155438049E+02  0.21960313134E+03 -0.23969381036E+03  0.68785506688E+03  0.60003597851E+03 0.  0.
         23    2    4    4    0    0  0.29018681952E+01  0.40525485756E+03 -0.16391980264E+03  0.44652999867E+03  0.90991305071E+02 0.  0.
         23    2    4    4    0    0 -0.89057306244E+02 -0.18565172622E+03 -0.75774007720E+02  0.24132506821E+03  0.10049040281E+03 0.  0.
          2    1    3    3  502    0 -0.20949866897E+01 -0.75816660783E+02 -0.89184564394E+02  0.11707451280E+03  0.00000000000E+00 0. -1.
         -2    1    3    3    0  502  0.88250424739E+02 -0.14378647056E+03 -0.38544714617E+03  0.42075193294E+03  0.00000000000E+00 0.  1.
         15    1    5    5    0    0  0.16113634081E+02  0.27014228660E+03 -0.64378082457E+02  0.27818015645E+03  0.17770000000E+01 0. -1.
        -15    1    5    5    0    0 -0.13211765886E+02  0.13511257096E+03 -0.99541720180E+02  0.16834984222E+03  0.17770000000E+01 0.  1.
          1    1    6    6  503    0 -0.55585846002E+02 -0.18553387055E+03 -0.52873294276E+02  0.20076899324E+03  0.00000000000E+00 0. -1.
         -1    1    6    6    0  503 -0.33471460242E+02 -0.11785566565E+00 -0.22900713445E+02  0.40556074970E+02  0.00000000000E+00 0.  1.
<mgrwt>
<rscale>  0 0.43905237E+03</rscale>
<asrwt>0</asrwt>
<pdfrwt beam="1">  1        1 0.14923131E+00 0.43905237E+03</pdfrwt>
<pdfrwt beam="2">  1       -1 0.39335076E-01 0.43905237E+03</pdfrwt>
<totfact> 0.10554012E+02</totfact>
</mgrwt>
</event>
<event>
12    1  0.7781383E-008  0.8703342E+03  0.7818608E-02  0.9463444E-01
         -2   -1    0    0    0  501 -0.00000000000E+00  0.00000000000E+00  0.14191763284E+04  0.14191763284E+04  0.00000000000E+00 0.  1.
          2   -1    0    0  501    0  0.00000000000E+00 -0.00000000000E+00 -0.17821603120E+04  0.17821603120E+04  0.00000000000E+00 0. -1.
         23    2    1    2    0    0 -0.55926301705E+03  0.54218184150E+03  0.11529150919E+04  0.13944810949E+04  0.92887261823E+02 0.  0.
    5000000    2    1    2    0    0  0.55926301705E+03 -0.54218184150E+03 -0.15158990755E+04  0.18068555455E+04  0.60003390213E+03 0.  0.
         23    2    4    4    0    0 -0.15486555852E+02 -0.35303262056E+03 -0.46972377485E+03  0.59481503133E+03  0.91063890979E+02 0.  0.
         23    2    4    4    0    0  0.57474957290E+03 -0.18914922095E+03 -0.10461753006E+04  0.12120405141E+04  0.91896403523E+02 0.  0.
          3    1    3    3  502    0 -0.88233350649E+02  0.10778579412E+03  0.15330850141E+03  0.20713859656E+03  0.00000000000E+00 0. -1.
         -3    1    3    3    0  502 -0.47102966640E+03  0.43439604738E+03  0.99960659047E+03  0.11873424983E+04  0.00000000000E+00 0.  1.
         15    1    5    5    0    0  0.77425169649E+01 -0.91980665433E+02 -0.66032869725E+02  0.11350721120E+03  0.17770000000E+01 0. -1.
        -15    1    5    5    0    0 -0.23229072817E+02 -0.26105195513E+03 -0.40369090513E+03  0.48130782012E+03  0.17770000000E+01 0.  1.
          1    1    6    6  503    0  0.31542195882E+03 -0.12315496941E+03 -0.66593687173E+03  0.74708103692E+03  0.00000000000E+00 0. -1.
         -1    1    6    6    0  503  0.25932761409E+03 -0.65994251538E+02 -0.38023842888E+03  0.46495947723E+03  0.00000000000E+00 0.  1.
<mgrwt>
<rscale>  0 0.87033423E+03</rscale>
<asrwt>0</asrwt>
<pdfrwt beam="1">  1        2 0.27417851E+00 0.87033423E+03</pdfrwt>
<pdfrwt beam="2">  1       -2 0.21833482E+00 0.87033423E+03</pdfrwt>
<totfact> 0.91042259E-01</totfact>
</mgrwt>
</event>
<event>
12    1  0.7781383E-008  0.9532668E+03  0.7818608E-02  0.9361340E-01
          1   -1    0    0  501    0  0.00000000000E+00  0.00000000000E+00  0.20801786102E+04  0.20801786102E+04  0.00000000000E+00 0. -1.
         -1   -1    0    0    0  501 -0.00000000000E+00 -0.00000000000E+00 -0.92602067691E+03  0.92602067691E+03  0.00000000000E+00 0.  1.
         23    2    1    2    0    0  0.78559261021E+03 -0.49100949106E+03  0.15711646503E+04  0.18262777697E+04  0.92119836011E+02 0.  0.
    5000000    2    1    2    0    0 -0.78559261021E+03  0.49100949106E+03 -0.41700671703E+03  0.11799215174E+04  0.60006175987E+03 0.  0.
         23    2    4    4    0    0 -0.11082387745E+03  0.62510524734E+01  0.11872528319E+03  0.18715173903E+03  0.92785090864E+02 0.  0.
         23    2    4    4    0    0 -0.67476873276E+03  0.48475843859E+03 -0.53573200022E+03  0.99276977837E+03  0.90991594647E+02 0.  0.
          1    1    3    3  502    0  0.59403859701E+03 -0.34230986409E+03  0.12214543435E+04  0.14007171774E+04  0.00000000000E+00 0. -1.
         -1    1    3    3    0  502  0.19155401319E+03 -0.14869962697E+03  0.34971030679E+03  0.42556059229E+03  0.00000000000E+00 0.  1.
         15    1    5    5    0    0 -0.37985235361E+02  0.46980677938E+02  0.40513478279E+02  0.72763739982E+02  0.17770000000E+01 0. -1.
        -15    1    5    5    0    0 -0.72838642085E+02 -0.40729625464E+02  0.78211804907E+02  0.11438799905E+03  0.17770000000E+01 0.  1.
          1    1    6    6  503    0 -0.62397838389E+03  0.47131586873E+03 -0.48778278021E+03  0.92163968683E+03  0.00000000000E+00 0. -1.
         -1    1    6    6    0  503 -0.50790348868E+02  0.13442569859E+02 -0.47949220007E+02  0.71130091536E+02  0.00000000000E+00 0.  1.
<mgrwt>
<rscale>  0 0.95326681E+03</rscale>
<asrwt>0</asrwt>
<pdfrwt beam="1">  1        1 0.32002748E+00 0.95326681E+03</pdfrwt>
<pdfrwt beam="2">  1       -1 0.14246472E+00 0.95326681E+03</pdfrwt>
<totfact> 0.10732138E+00</totfact>
</mgrwt>
</event>
<event>
12    1  0.7781383E-008  0.1085239E+04  0.7818608E-02  0.9219699E-01
          1   -1    0    0  501    0  0.00000000000E+00  0.00000000000E+00  0.12455206342E+04  0.12455206342E+04  0.00000000000E+00 0. -1.
         -1   -1    0    0    0  501 -0.00000000000E+00 -0.00000000000E+00 -0.10609738414E+04  0.10609738414E+04  0.00000000000E+00 0.  1.
         23    2    1    2    0    0  0.36682970598E+03  0.99609452538E+03  0.21430120821E+03  0.10867521357E+04  0.91306406640E+02 0.  0.
    5000000    2    1    2    0    0 -0.36682970598E+03 -0.99609452538E+03 -0.29754415454E+02  0.12197423399E+04  0.60009808692E+03 0.  0.
         23    2    4    4    0    0 -0.15689114239E+02 -0.47139291601E+03  0.22830396021E+03  0.53149374097E+03  0.88912703710E+02 0.  0.
         23    2    4    4    0    0 -0.35114059174E+03 -0.52470160938E+03 -0.25805837566E+03  0.68824859897E+03  0.92089709987E+02 0.  0.
          1    1    3    3  502    0  0.66230456983E+02  0.17666809047E+03  0.29170801824E+01  0.18869710379E+03  0.00000000000E+00 0. -1.
         -1    1    3    3    0  502  0.30059924900E+03  0.81942643492E+03  0.21138412803E+03  0.89805503190E+03  0.00000000000E+00 0.  1.
         15    1    5    5    0    0 -0.17833290944E+02 -0.37438353434E+03  0.21874645841E+03  0.43397491615E+03  0.17770000000E+01 0. -1.
        -15    1    5    5    0    0  0.21441767049E+01 -0.97009381671E+02  0.95575017927E+01  0.97518824826E+02  0.17770000000E+01 0.  1.
          1    1    6    6  503    0 -0.26780728979E+03 -0.32765821945E+03 -0.18871409674E+03  0.46335047592E+03  0.00000000000E+00 0. -1.
         -1    1    6    6    0  503 -0.83333301960E+02 -0.19704338993E+03 -0.69344278923E+02  0.22489812305E+03  0.00000000000E+00 0.  1.
<mgrwt>
<rscale>  0 0.10852393E+04</rscale>
<asrwt>0</asrwt>
<pdfrwt beam="1">  1        1 0.19161856E+00 0.10852393E+04</pdfrwt>
<pdfrwt beam="2">  1       -1 0.16322674E+00 0.10852393E+04</pdfrwt>
<totfact> 0.27174436E+00</totfact>
</mgrwt>
</event>
<event>
12    1  0.7781383E-008  0.8966638E+03  0.7818608E-02  0.9429761E-01
          1   -1    0    0  501    0  0.00000000000E+00  0.00000000000E+00  0.89020647477E+03  0.89020647477E+03  0.00000000000E+00 0. -1.
         -1   -1    0    0    0  501 -0.00000000000E+00 -0.00000000000E+00 -0.11647131909E+04  0.11647131909E+04  0.00000000000E+00 0.  1.
         23    2    1    2    0    0 -0.83871418567E+03 -0.78141681729E+02  0.26618121874E+03  0.88795248260E+03  0.89775065947E+02 0.  0.
    5000000    2    1    2    0    0  0.83871418567E+03  0.78141681729E+02 -0.54068793490E+03  0.11669671831E+04  0.59993445959E+03 0.  0.
         23    2    4    4    0    0  0.38202818936E+03 -0.16963970197E+03 -0.46772760486E+03  0.63326106121E+03  0.86759975509E+02 0.  0.
         23    2    4    4    0    0  0.45668599632E+03  0.24778138370E+03 -0.72960330046E+02  0.53370612189E+03  0.97781907541E+02 0.  0.
          2    1    3    3  502    0 -0.60086801734E+03 -0.96465787919E+02  0.19240828281E+03  0.63825462771E+03  0.00000000000E+00 0. -1.
         -2    1    3    3    0  502 -0.23784616833E+03  0.18324106189E+02  0.73772935931E+02  0.24969785489E+03  0.00000000000E+00 0.  1.
         15    1    5    5    0    0  0.14768731526E+03 -0.23277858267E+02 -0.14301048350E+03  0.20690229069E+03  0.17770000000E+01 0.  1.
        -15    1    5    5    0    0  0.23434087410E+03 -0.14636184370E+03 -0.32471712136E+03  0.42635877052E+03  0.17770000000E+01 0. -1.
          4    1    6    6  503    0  0.15168498550E+03  0.98119231298E+02  0.19241770039E+02  0.18167543612E+03  0.00000000000E+00 0. -1.
         -4    1    6    6    0  503  0.30500101082E+03  0.14966215240E+03 -0.92202100085E+02  0.35203068577E+03  0.00000000000E+00 0.  1.
<mgrwt>
<rscale>  0 0.89666379E+03</rscale>
<asrwt>0</asrwt>
<pdfrwt beam="1">  1        1 0.13695484E+00 0.89666379E+03</pdfrwt>
<pdfrwt beam="2">  1       -1 0.17918665E+00 0.89666379E+03</pdfrwt>
<totfact> 0.39728237E+00</totfact>
</mgrwt>
</event>
<event>
12    1  0.7781383E-008  0.8690551E+03  0.7818608E-02  0.9465113E-01
         -2   -1    0    0    0  501 -0.00000000000E+00  0.00000000000E+00  0.35376274426E+03  0.35376274426E+03  0.00000000000E+00 0.  1.
          2   -1    0    0  501    0  0.00000000000E+00 -0.00000000000E+00 -0.27430591355E+04  0.27430591355E+04  0.00000000000E+00 0. -1.
         23    2    1    2    0    0  0.80698683936E+03 -0.18807357059E+03 -0.57082569334E+03  0.10103281160E+04  0.91222272689E+02 0.  0.
    5000000    2    1    2    0    0 -0.80698683936E+03  0.18807357059E+03 -0.18184706979E+04  0.20864937637E+04  0.60001759979E+03 0.  0.
         23    2    4    4    0    0  0.12718839539E+02  0.50560932010E+01 -0.12993656401E+02  0.93078166515E+02  0.91144813442E+02 0.  0.
         23    2    4    4    0    0 -0.81970567890E+03  0.18301747739E+03 -0.18054770415E+04  0.19934155972E+04  0.92442407753E+02 0.  0.
          4    1    3    3  502    0  0.31450757909E+03 -0.49627741627E+02 -0.26550679085E+03  0.41457422258E+03  0.00000000000E+00 0. -1.
         -4    1    3    3    0  502  0.49247926027E+03 -0.13844582896E+03 -0.30531890249E+03  0.59575389346E+03  0.00000000000E+00 0.  1.
         15    1    5    5    0    0  0.33147635900E+02 -0.17450627712E+02 -0.38213887561E+02  0.53542031198E+02  0.17770000000E+01 0.  1.
        -15    1    5    5    0    0 -0.20428796361E+02  0.22506720913E+02  0.25220231160E+02  0.39536135317E+02  0.17770000000E+01 0. -1.
          3    1    6    6  503    0 -0.10917184960E+03  0.16563393434E+02 -0.17284250389E+03  0.20510331518E+03  0.00000000000E+00 0. -1.
         -3    1    6    6    0  503 -0.71053382930E+03  0.16645408395E+03 -0.16326345376E+04  0.17883122820E+04  0.00000000000E+00 0.  1.
<mgrwt>
<rscale>  0 0.86905510E+03</rscale>
<asrwt>0</asrwt>
<pdfrwt beam="1">  1        2 0.42200911E+00 0.86905510E+03</pdfrwt>
<pdfrwt beam="2">  1       -2 0.54425036E-01 0.86905510E+03</pdfrwt>
<totfact> 0.82369584E+00</totfact>
</mgrwt>
</event>
<event>
12    1  0.7781383E-008  0.9644737E+03  0.7818608E-02  0.9348391E-01
         -1   -1    0    0    0  501 -0.00000000000E+00  0.00000000000E+00  0.51212576628E+03  0.51212576628E+03  0.00000000000E+00 0.  1.
          1   -1    0    0  501    0  0.00000000000E+00 -0.00000000000E+00 -0.24419547993E+04  0.24419547993E+04  0.00000000000E+00 0. -1.
         23    2    1    2    0    0 -0.85059193995E+02  0.92544767159E+03 -0.14999769785E+04  0.17672353394E+04  0.97474865638E+02 0.  0.
    5000000    2    1    2    0    0  0.85059193995E+02 -0.92544767159E+03 -0.42985205448E+03  0.11868452261E+04  0.60011694088E+03 0.  0.
         23    2    4    4    0    0  0.19744480935E+03 -0.38151077882E+03  0.56982515802E+02  0.44263608330E+03  0.90248368596E+02 0.  0.
         23    2    4    4    0    0 -0.11238561536E+03 -0.54393689278E+03 -0.48683457028E+03  0.74420914284E+03  0.91331701032E+02 0.  0.
          2    1    3    3  502    0 -0.34095503677E+02  0.27729456877E+03 -0.37093527380E+03  0.46437889550E+03  0.00000000000E+00 0. -1.
         -2    1    3    3    0  502 -0.50963690318E+02  0.64815310282E+03 -0.11290417047E+04  0.13028564439E+04  0.00000000000E+00 0.  1.
         15    1    5    5    0    0  0.17680082701E+03 -0.25621347203E+03  0.29466709347E+02  0.31269045455E+03  0.17770000000E+01 0.  1.
        -15    1    5    5    0    0  0.20643982344E+02 -0.12529730679E+03  0.27515806454E+02  0.12994562874E+03  0.17770000000E+01 0. -1.
          4    1    6    6  503    0 -0.13333252420E+02 -0.26096702279E+03 -0.19738812679E+03  0.32748074020E+03  0.00000000000E+00 0. -1.
         -4    1    6    6    0  503 -0.99052362937E+02 -0.28296986999E+03 -0.28944644349E+03  0.41672840264E+03  0.00000000000E+00 0.  1.
<mgrwt>
<rscale>  0 0.96447366E+03</rscale>
<asrwt>0</asrwt>
<pdfrwt beam="1">  1        1 0.37568536E+00 0.96447366E+03</pdfrwt>
<pdfrwt beam="2">  1       -1 0.78788578E-01 0.96447366E+03</pdfrwt>
<totfact> 0.24505414E+00</totfact>
</mgrwt>
</event>
<event>
12    1  0.7781383E-008  0.1324933E+04  0.7818608E-02  0.9010024E-01
          2   -1    0    0  501    0  0.00000000000E+00  0.00000000000E+00  0.10186096602E+04  0.10186096602E+04  0.00000000000E+00 0. -1.
         -2   -1    0    0    0  501 -0.00000000000E+00 -0.00000000000E+00 -0.19301790314E+04  0.19301790314E+04  0.00000000000E+00 0.  1.
         23    2    1    2    0    0  0.10048889622E+04 -0.77481555406E+03  0.61569587929E+01  0.12717633614E+04  0.84871492430E+02 0.  0.
    5000000    2    1    2    0    0 -0.10048889622E+04  0.77481555406E+03 -0.91772633000E+03  0.16770253301E+04  0.60004280844E+03 0.  0.
         23    2    4    4    0    0 -0.85249596063E+03  0.83335768176E+03 -0.88317311620E+03  0.14865028874E+04  0.91987457838E+02 0.  0.
         23    2    4    4    0    0 -0.15239300152E+03 -0.58542127699E+02 -0.34553213795E+02  0.19052244271E+03  0.91946011139E+02 0.  0.
          2    1    3    3  502    0  0.64062867323E+03 -0.45554292057E+03 -0.24011003148E+02  0.78644833124E+03  0.00000000000E+00 0. -1.
         -2    1    3    3    0  502  0.36426028893E+03 -0.31927263349E+03  0.30167961941E+02  0.48531503017E+03  0.00000000000E+00 0.  1.
         15    1    5    5    0    0 -0.30431811642E+03  0.28021874911E+03 -0.25493490950E+03  0.48592903715E+03  0.17770000000E+01 0.  1.
        -15    1    5    5    0    0 -0.54817784421E+03  0.55313893265E+03 -0.62823820671E+03  0.10005738502E+04  0.17770000000E+01 0. -1.
          2    1    6    6  503    0 -0.82564321353E+02 -0.78926544738E+02 -0.27156475770E+02  0.11740417710E+03  0.00000000000E+00 0.  1.
         -2    1    6    6    0  503 -0.69828680170E+02  0.20384417039E+02 -0.73967380250E+01  0.73118265610E+02  0.00000000000E+00 0. -1.
<mgrwt>
<rscale>  0 0.13249325E+04</rscale>
<asrwt>0</asrwt>
<pdfrwt beam="1">  1        2 0.15670918E+00 0.13249325E+04</pdfrwt>
<pdfrwt beam="2">  1       -2 0.29695062E+00 0.13249325E+04</pdfrwt>
<totfact> 0.78396109E-01</totfact>
</mgrwt>
</event>
<event>
12    1  0.7781383E-008  0.1046340E+04  0.7818608E-02  0.9259131E-01
          1   -1    0    0  501    0  0.00000000000E+00  0.00000000000E+00  0.59462241329E+03  0.59462241329E+03  0.00000000000E+00 0. -1.
         -1   -1    0    0    0  501 -0.00000000000E+00 -0.00000000000E+00 -0.20082632730E+04  0.20082632730E+04  0.00000000000E+00 0.  1.
         23    2    1    2    0    0 -0.38060379673E+03 -0.93007819589E+03 -0.55645144744E+03  0.11521537178E+04  0.88967834806E+02 0.  0.
    5000000    2    1    2    0    0  0.38060379673E+03  0.93007819589E+03 -0.85718941226E+03  0.14507319684E+04  0.59995404421E+03 0.  0.
         23    2    4    4    0    0  0.44571298026E+03  0.80445561081E+03 -0.88965874338E+03  0.12823267627E+04  0.84025925012E+02 0.  0.
         23    2    4    4    0    0 -0.65109183524E+02  0.12562258508E+03  0.32469331127E+02  0.16840520575E+03  0.85356992661E+02 0.  0.
          3    1    3    3  502    0 -0.15027127801E+03 -0.26030186027E+03 -0.16998967577E+03  0.34530422141E+03  0.00000000000E+00 0.  1.
         -3    1    3    3    0  502 -0.23033251873E+03 -0.66977633562E+03 -0.38646177167E+03  0.80684949644E+03  0.00000000000E+00 0. -1.
         15    1    5    5    0    0  0.20365669520E+03  0.29149747274E+03 -0.36739997565E+03  0.51130492463E+03  0.17770000000E+01 0.  1.
        -15    1    5    5    0    0  0.24205628506E+03  0.51295813807E+03 -0.52225876773E+03  0.77102183805E+03  0.17770000000E+01 0. -1.
          2    1    6    6  503    0 -0.10156295843E+02  0.99810933647E+02  0.17006851942E+01  0.10034074522E+03  0.00000000000E+00 0. -1.
         -2    1    6    6    0  503 -0.54952887681E+02  0.25811651435E+02  0.30768645933E+02  0.68064460527E+02  0.00000000000E+00 0.  1.
<mgrwt>
<rscale>  0 0.10463400E+04</rscale>
<asrwt>0</asrwt>
<pdfrwt beam="1">  1        1 0.91480370E-01 0.10463400E+04</pdfrwt>
<pdfrwt beam="2">  1       -1 0.30896359E+00 0.10463400E+04</pdfrwt>
<totfact> 0.10110081E+00</totfact>
</mgrwt>
</event>
<event>
12    1  0.7781383E-008  0.7172146E+03  0.7818608E-02  0.9688237E-01
         -2   -1    0    0    0  501 -0.00000000000E+00  0.00000000000E+00  0.39261513028E+03  0.39261513028E+03  0.00000000000E+00 0.  1.
          2   -1    0    0  501    0  0.00000000000E+00 -0.00000000000E+00 -0.29036235281E+04  0.29036235281E+04  0.00000000000E+00 0. -1.
         23    2    1    2    0    0 -0.11222764879E+01  0.65404505086E+03 -0.30747941153E+02  0.66195799989E+03  0.97297326181E+02 0.  0.
    5000000    2    1    2    0    0  0.11222764879E+01 -0.65404505086E+03 -0.24802604567E+04  0.26342806585E+04  0.59997205496E+03 0.  0.
         23    2    4    4    0    0 -0.13369372203E+03 -0.41648100710E+02 -0.16748768669E+03  0.23627422612E+03  0.90359333419E+02 0.  0.
         23    2    4    4    0    0  0.13481599851E+03 -0.61239695015E+03 -0.23127727700E+04  0.23980064324E+04  0.91167900696E+02 0.  0.
          1    1    3    3  502    0 -0.33500260938E+02  0.36067062482E+03 -0.52471907523E+02  0.36600391825E+03  0.00000000000E+00 0. -1.
         -1    1    3    3    0  502  0.32377984450E+02  0.29337442603E+03  0.21723966371E+02  0.29595408165E+03  0.00000000000E+00 0.  1.
         15    1    5    5    0    0 -0.44990948734E+02 -0.30709108806E+02 -0.10329838403E+02  0.55471597436E+02  0.17770000000E+01 0.  1.
        -15    1    5    5    0    0 -0.88702773292E+02 -0.10938991904E+02 -0.15715784828E+03  0.18080262869E+03  0.17770000000E+01 0. -1.
          2    1    6    6  503    0  0.14779100906E+03 -0.56653583272E+03 -0.21622388790E+04  0.22401075871E+04  0.00000000000E+00 0.  1.
         -2    1    6    6    0  503 -0.12975010545E+02 -0.45861117431E+02 -0.15053389101E+03  0.15789884525E+03  0.00000000000E+00 0. -1.
<mgrwt>
<rscale>  0 0.71721464E+03</rscale>
<asrwt>0</asrwt>
<pdfrwt beam="1">  1        2 0.44671131E+00 0.71721464E+03</pdfrwt>
<pdfrwt beam="2">  1       -2 0.60402328E-01 0.71721464E+03</pdfrwt>
<totfact> 0.54573384E+00</totfact>
</mgrwt>
</event>
<event>
12    1  0.7781383E-008  0.1263834E+04  0.7818608E-02  0.9058747E-01
          2   -1    0    0  501    0  0.00000000000E+00  0.00000000000E+00  0.88495583532E+03  0.88495583532E+03  0.00000000000E+00 0. -1.
         -2   -1    0    0    0  501 -0.00000000000E+00 -0.00000000000E+00 -0.22197202373E+04  0.22197202373E+04  0.00000000000E+00 0.  1.
         23    2    1    2    0    0  0.10836368683E+04 -0.53896180776E+03 -0.12633560110E+04  0.17520746357E+04  0.94596120893E+02 0.  0.
    5000000    2    1    2    0    0 -0.10836368683E+04  0.53896180776E+03 -0.71408391041E+02  0.13526014369E+04  0.59973560526E+03 0.  0.
         23    2    4    4    0    0 -0.33762714786E+03 -0.63304137199E+02 -0.15158811001E+03  0.38607724310E+03  0.89873120502E+02 0.  0.
         23    2    4    4    0    0 -0.74600972048E+03  0.60226594496E+03  0.80179718972E+02  0.96652419382E+03  0.92116547885E+02 0.  0.
          4    1    3    3  502    0  0.42330814831E+03 -0.22848356768E+03 -0.43998114124E+03  0.65190331627E+03  0.00000000000E+00 0. -1.
         -4    1    3    3    0  502  0.66032872003E+03 -0.31047824008E+03 -0.82337486974E+03  0.11001713195E+04  0.00000000000E+00 0.  1.
         15    1    5    5    0    0 -0.30659783553E+03 -0.82170573321E+02 -0.12552001781E+03  0.34133952081E+03  0.17770000000E+01 0. -1.
        -15    1    5    5    0    0 -0.31029312331E+02  0.18866436122E+02 -0.26068092201E+02  0.44737722290E+02  0.17770000000E+01 0.  1.
          3    1    6    6  503    0 -0.54987402468E+03  0.38982996206E+03  0.58957247786E+02  0.67661273962E+03  0.00000000000E+00 0. -1.
         -3    1    6    6    0  503 -0.19613569580E+03  0.21243598290E+03  0.21222471186E+02  0.28991145420E+03  0.00000000000E+00 0.  1.
<mgrwt>
<rscale>  0 0.12638337E+04</rscale>
<asrwt>0</asrwt>
<pdfrwt beam="1">  1        2 0.13614705E+00 0.12638337E+04</pdfrwt>
<pdfrwt beam="2">  1       -2 0.34149542E+00 0.12638337E+04</pdfrwt>
<totfact> 0.51545125E-01</totfact>
</mgrwt>
</event>
<event>
12    1  0.9501139E-008  0.1575404E+04  0.7818608E-02  0.8835803E-01
         -1   -1    0    0    0  501 -0.00000000000E+00  0.00000000000E+00  0.14575185972E+04  0.14575185972E+04  0.00000000000E+00 0.  1.
          1   -1    0    0  501    0  0.00000000000E+00 -0.00000000000E+00 -0.20842973086E+04  0.20842973086E+04  0.00000000000E+00 0. -1.
         23    2    1    2    0    0  0.61995652116E+03 -0.13958129186E+04  0.43088983865E+03  0.15895317955E+04  0.91134427337E+02 0.  0.
    5000000    2    1    2    0    0 -0.61995652116E+03  0.13958129186E+04 -0.10576685500E+04  0.19522841103E+04  0.60009223779E+03 0.  0.
         23    2    4    4    0    0 -0.63142054018E+03  0.78853005942E+03 -0.53722978749E+03  0.11477803773E+04  0.91172346265E+02 0.  0.
         23    2    4    4    0    0  0.11464019023E+02  0.60728285920E+03 -0.52043876253E+03  0.80450373306E+03  0.86289374498E+02 0.  0.
          1    1    3    3  502    0  0.32335888695E+03 -0.69082118642E+03  0.17048826632E+03  0.78157605537E+03  0.00000000000E+00 0. -1.
         -1    1    3    3    0  502  0.29659763421E+03 -0.70499173220E+03  0.26040157233E+03  0.80795574010E+03  0.00000000000E+00 0.  1.
         15    1    5    5    0    0 -0.16880445094E+03  0.27703126324E+03 -0.16117464315E+03  0.36224534061E+03  0.17770000000E+01 0. -1.
        -15    1    5    5    0    0 -0.46261608924E+03  0.51149879617E+03 -0.37605514433E+03  0.78553503666E+03  0.17770000000E+01 0.  1.
          3    1    6    6  503    0 -0.13504254216E+02  0.41592424379E+03 -0.30958158128E+03  0.51866761699E+03  0.00000000000E+00 0. -1.
         -3    1    6    6    0  503  0.24968273239E+02  0.19135861541E+03 -0.21085718125E+03  0.28583611606E+03  0.00000000000E+00 0.  1.
<mgrwt>
<rscale>  0 0.15754036E+04</rscale>
<asrwt>0</asrwt>
<pdfrwt beam="1">  1        1 0.32066112E+00 0.15754036E+04</pdfrwt>
<pdfrwt beam="2">  1       -1 0.22423363E+00 0.15754036E+04</pdfrwt>
<totfact> 0.25204614E-01</totfact>
</mgrwt>
</event>
<event>
12    1  0.7781383E-008  0.1169828E+04  0.7818608E-02  0.9139684E-01
          2   -1    0    0  501    0  0.00000000000E+00  0.00000000000E+00  0.18045707179E+04  0.18045707179E+04  0.00000000000E+00 0. -1.
         -2   -1    0    0    0  501 -0.00000000000E+00 -0.00000000000E+00 -0.10917592912E+04  0.10917592912E+04  0.00000000000E+00 0.  1.
         23    2    1    2    0    0  0.97296711571E+03  0.55273949264E+03  0.10970987030E+04  0.15697403056E+04  0.90956627007E+02 0.  0.
    5000000    2    1    2    0    0 -0.97296711571E+03 -0.55273949264E+03 -0.38428727636E+03  0.13265897034E+04  0.59998131260E+03 0.  0.
         23    2    4    4    0    0 -0.65774411925E+03 -0.10940560702E+03 -0.35581560288E+02  0.67396474407E+03  0.91463192437E+02 0.  0.
         23    2    4    4    0    0 -0.31522299646E+03 -0.44333388562E+03 -0.34870571607E+03  0.65262495934E+03  0.91723440293E+02 0.  0.
          2    1    3    3  502    0  0.59953850431E+03  0.29863881063E+03  0.69089790470E+03  0.96227411484E+03  0.00000000000E+00 0. -1.
         -2    1    3    3    0  502  0.37342861139E+03  0.25410068202E+03  0.40620079833E+03  0.60746619081E+03  0.00000000000E+00 0.  1.
         15    1    5    5    0    0 -0.50500023522E+03 -0.93004841195E+02  0.10392313286E+02  0.51360130058E+03  0.17770000000E+01 0.  1.
        -15    1    5    5    0    0 -0.15274388403E+03 -0.16400765826E+02 -0.45973873575E+02  0.16036344349E+03  0.17770000000E+01 0. -1.
          4    1    6    6  503    0 -0.23104828997E+03 -0.25128812892E+03 -0.20104071804E+03  0.39616462026E+03  0.00000000000E+00 0. -1.
         -4    1    6    6    0  503 -0.84174706487E+02 -0.19204575670E+03 -0.14766499803E+03  0.25646033908E+03  0.00000000000E+00 0.  1.
<mgrwt>
<rscale>  0 0.11698279E+04</rscale>
<asrwt>0</asrwt>
<pdfrwt beam="1">  1        2 0.27762626E+00 0.11698279E+04</pdfrwt>
<pdfrwt beam="2">  1       -2 0.16796297E+00 0.11698279E+04</pdfrwt>
<totfact> 0.18426857E+00</totfact>
</mgrwt>
</event>
<event>
12    1  0.7781383E-008  0.5179986E+03  0.7818608E-02  0.1009185E+00
         -1   -1    0    0    0  501 -0.00000000000E+00  0.00000000000E+00  0.65926352202E+03  0.65926352202E+03  0.00000000000E+00 0.  1.
          1   -1    0    0  501    0  0.00000000000E+00 -0.00000000000E+00 -0.45655822421E+03  0.45655822421E+03  0.00000000000E+00 0. -1.
         23    2    1    2    0    0  0.34660939626E+03  0.56868249539E+02  0.21278432531E+03  0.42047455646E+03  0.90275202294E+02 0.  0.
    5000000    2    1    2    0    0 -0.34660939626E+03 -0.56868249539E+02 -0.10079027500E+02  0.69534718977E+03  0.60002837945E+03 0.  0.
         23    2    4    4    0    0 -0.36085920203E+03  0.19948358455E+03  0.72620410946E+01  0.42245008753E+03  0.91642102885E+02 0.  0.
         23    2    4    4    0    0  0.14249805768E+02 -0.25635183408E+03 -0.17341068594E+02  0.27289710224E+03  0.90844900504E+02 0.  0.
          3    1    3    3  502    0  0.27092205172E+03  0.53716837444E+02  0.12119341767E+03  0.30161581726E+03  0.00000000000E+00 0. -1.
         -3    1    3    3    0  502  0.75687344539E+02  0.31514120951E+01  0.91590907641E+02  0.11885873920E+03  0.00000000000E+00 0.  1.
         15    1    5    5    0    0 -0.12878479843E+02  0.13186754218E+02  0.20354728121E+02  0.27517601925E+02  0.17770000000E+01 0.  1.
        -15    1    5    5    0    0 -0.34798072218E+03  0.18629683033E+03 -0.13092687026E+02  0.39493248560E+03  0.17770000000E+01 0. -1.
          4    1    6    6  503    0  0.39518156250E+02 -0.54128498881E+02  0.81507855354E+01  0.67513068138E+02  0.00000000000E+00 0.  1.
         -4    1    6    6    0  503 -0.25268350482E+02 -0.20222333520E+03 -0.25491854130E+02  0.20538403410E+03  0.00000000000E+00 0. -1.
<mgrwt>
<rscale>  0 0.51799858E+03</rscale>
<asrwt>0</asrwt>
<pdfrwt beam="1">  1        1 0.70239727E-01 0.51799858E+03</pdfrwt>
<pdfrwt beam="2">  1       -1 0.10142516E+00 0.51799858E+03</pdfrwt>
<totfact> 0.48428895E+01</totfact>
</mgrwt>
</event>
<event>
12    1  0.7781383E-008  0.7996892E+03  0.7818608E-02  0.9560467E-01
          2   -1    0    0  501    0  0.00000000000E+00  0.00000000000E+00  0.13488932110E+04  0.13488932110E+04  0.00000000000E+00 0. -1.
         -2   -1    0    0    0  501 -0.00000000000E+00 -0.00000000000E+00 -0.59591185288E+03  0.59591185288E+03  0.00000000000E+00 0.  1.
         23    2    1    2    0    0 -0.49689027323E+02 -0.70906930729E+03  0.71548576026E+03  0.10138471937E+04  0.10352766305E+03 0.  0.
    5000000    2    1    2    0    0  0.49689027323E+02  0.70906930729E+03  0.37495597855E+02  0.93095787020E+03  0.60002362807E+03 0.  0.
         23    2    4    4    0    0  0.24288293882E+03  0.14171504750E+03  0.12042777822E+03  0.31907640561E+03  0.90728309760E+02 0.  0.
         23    2    4    4    0    0 -0.19319391149E+03  0.56735425979E+03 -0.82932180362E+02  0.61188146459E+03  0.91139654571E+02 0.  0.
          3    1    3    3  502    0 -0.19295573115E+02 -0.25920793363E+03  0.19321533013E+03  0.32387225228E+03  0.00000000000E+00 0. -1.
         -3    1    3    3    0  502 -0.30393454208E+02 -0.44986137366E+03  0.52227043013E+03  0.68997494140E+03  0.00000000000E+00 0.  1.
         15    1    5    5    0    0  0.67334266307E+02  0.76510521791E+02  0.11903253155E+02  0.10262849764E+03  0.17770000000E+01 0. -1.
        -15    1    5    5    0    0  0.17554867251E+03  0.65204525713E+02  0.10852452506E+03  0.21644790796E+03  0.17770000000E+01 0.  1.
          1    1    6    6  503    0 -0.12416632195E+03  0.36970248847E+03 -0.98073253867E+01  0.39011971126E+03  0.00000000000E+00 0. -1.
         -1    1    6    6    0  503 -0.69027589542E+02  0.19765177132E+03 -0.73124854975E+02  0.22176175333E+03  0.00000000000E+00 0.  1.
<mgrwt>
<rscale>  0 0.79968924E+03</rscale>
<asrwt>0</asrwt>
<pdfrwt beam="1">  1        2 0.20752203E+00 0.79968924E+03</pdfrwt>
<pdfrwt beam="2">  1       -2 0.91678747E-01 0.79968924E+03</pdfrwt>
<totfact> 0.15924880E+01</totfact>
</mgrwt>
</event>
<event>
12    1  0.7781383E-008  0.1156048E+04  0.7818608E-02  0.9152222E-01
          2   -1    0    0  501    0  0.00000000000E+00  0.00000000000E+00  0.13912361113E+04  0.13912361113E+04  0.00000000000E+00 0. -1.
         -2   -1    0    0    0  501 -0.00000000000E+00 -0.00000000000E+00 -0.10828189753E+04  0.10828189753E+04  0.00000000000E+00 0.  1.
         23    2    1    2    0    0 -0.11387953956E+04  0.10651925367E+03  0.28465947252E+03  0.11822603638E+04  0.92234744923E+02 0.  0.
    5000000    2    1    2    0    0  0.11387953956E+04 -0.10651925367E+03  0.23757663404E+02  0.12917947228E+04  0.59997322851E+03 0.  0.
         23    2    4    4    0    0  0.16102997170E+03 -0.94244744027E+01 -0.21080167339E+03  0.27750561147E+03  0.80947800399E+02 0.  0.
         23    2    4    4    0    0  0.97776542387E+03 -0.97094779262E+02  0.23455933679E+03  0.10142891113E+04  0.91168517731E+02 0.  0.
          2    1    3    3  502    0 -0.43315390035E+03  0.30218623322E+01  0.82267416699E+02  0.44090742894E+03  0.00000000000E+00 0. -1.
         -2    1    3    3    0  502 -0.70564149522E+03  0.10349739133E+03  0.20239205582E+03  0.74135293488E+03  0.00000000000E+00 0.  1.
         15    1    5    5    0    0 -0.41942572409E+01  0.11550567456E+02 -0.25416713930E+02  0.28287355450E+02  0.17770000000E+01 0.  1.
        -15    1    5    5    0    0  0.16522422894E+03 -0.20975041859E+02 -0.18538495946E+03  0.24921825602E+03  0.17770000000E+01 0. -1.
          3    1    6    6  503    0  0.20950839659E+03  0.16488994510E+02  0.46688440888E+02  0.21527997049E+03  0.00000000000E+00 0. -1.
         -3    1    6    6    0  503  0.76825702728E+03 -0.11358377377E+03  0.18787089591E+03  0.79900914085E+03  0.00000000000E+00 0.  1.
<mgrwt>
<rscale>  0 0.11560480E+04</rscale>
<asrwt>0</asrwt>
<pdfrwt beam="1">  1        2 0.21403632E+00 0.11560480E+04</pdfrwt>
<pdfrwt beam="2">  1       -2 0.16658754E+00 0.11560480E+04</pdfrwt>
<totfact> 0.32194899E+00</totfact>
</mgrwt>
</event>
<event>
12    1  0.7781383E-008  0.4006501E+03  0.7818608E-02  0.1043555E+00
          2   -1    0    0  501    0  0.00000000000E+00  0.00000000000E+00  0.53653017744E+03  0.53653017744E+03  0.00000000000E+00 0. -1.
         -2   -1    0    0    0  501 -0.00000000000E+00 -0.00000000000E+00 -0.39247940684E+03  0.39247940684E+03  0.00000000000E+00 0.  1.
         23    2    1    2    0    0  0.14862618760E+03  0.20236289038E+03  0.37379549146E+02  0.26989503699E+03  0.91682153407E+02 0.  0.
    5000000    2    1    2    0    0 -0.14862618760E+03 -0.20236289038E+03  0.10667122145E+03  0.65911454728E+03  0.60001062816E+03 0.  0.
         23    2    4    4    0    0 -0.31391709631E+03 -0.72019493720E+02  0.22162388144E+03  0.40165795458E+03  0.92093522172E+02 0.  0.
         23    2    4    4    0    0  0.16529090870E+03 -0.13034339666E+03 -0.11495265998E+03  0.25745659270E+03  0.93591118885E+02 0.  0.
          4    1    3    3  502    0  0.10381388436E+03  0.13866516338E+03  0.68164565574E+02  0.18614982708E+03  0.00000000000E+00 0. -1.
         -4    1    3    3    0  502  0.44812303244E+02  0.63697727000E+02 -0.30785016428E+02  0.83745209914E+02  0.00000000000E+00 0.  1.
         15    1    5    5    0    0 -0.11946711246E+03 -0.30722967688E+02  0.33203568276E+02  0.12775729481E+03  0.17770000000E+01 0. -1.
        -15    1    5    5    0    0 -0.19444998385E+03 -0.41296526033E+02  0.18842031316E+03  0.27390065977E+03  0.17770000000E+01 0.  1.
          1    1    6    6  503    0  0.46221958427E+02  0.64620566062E+01 -0.39034818626E+02  0.60843608387E+02  0.00000000000E+00 0. -1.
         -1    1    6    6    0  503  0.11906895028E+03 -0.13680545327E+03 -0.75917841358E+02  0.19661298431E+03  0.00000000000E+00 0.  1.
<mgrwt>
<rscale>  0 0.40065009E+03</rscale>
<asrwt>0</asrwt>
<pdfrwt beam="1">  1        2 0.82543105E-01 0.40065009E+03</pdfrwt>
<pdfrwt beam="2">  1       -2 0.60381447E-01 0.40065009E+03</pdfrwt>
<totfact> 0.14957615E+02</totfact>
</mgrwt>
</event>
<event>
12    1  0.7781383E-008  0.8073126E+03  0.7818608E-02  0.9549492E-01
         -2   -1    0    0    0  501 -0.00000000000E+00  0.00000000000E+00  0.28680194868E+03  0.28680194868E+03  0.00000000000E+00 0.  1.
          2   -1    0    0  501    0  0.00000000000E+00 -0.00000000000E+00 -0.26250424340E+04  0.26250424340E+04  0.00000000000E+00 0. -1.
         23    2    1    2    0    0  0.36018171066E+03  0.67007503886E+03 -0.10115764835E+04  0.12690297199E+04  0.91749798070E+02 0.  0.
    5000000    2    1    2    0    0 -0.36018171066E+03 -0.67007503886E+03 -0.13266640018E+04  0.16428146628E+04  0.60005934736E+03 0.  0.
         23    2    4    4    0    0 -0.46185320503E+01 -0.38673191536E+03 -0.25158305831E+03  0.47208918650E+03  0.99956288361E+02 0.  0.
         23    2    4    4    0    0 -0.35556317861E+03 -0.28334312349E+03 -0.10750809435E+04  0.11707254763E+04  0.89947797433E+02 0.  0.
          2    1    3    3  502    0  0.14552917290E+03  0.29325355355E+03 -0.50924380714E+03  0.60539709443E+03  0.00000000000E+00 0.  1.
         -2    1    3    3    0  502  0.21465253776E+03  0.37682148531E+03 -0.50233267639E+03  0.66363262542E+03  0.00000000000E+00 0. -1.
         15    1    5    5    0    0 -0.36228799464E+02 -0.25857889301E+03 -0.20547307578E+03  0.33226181306E+03  0.17770000000E+01 0.  1.
        -15    1    5    5    0    0  0.31610267414E+02 -0.12815302236E+03 -0.46109982532E+02  0.13982737344E+03  0.17770000000E+01 0. -1.
          2    1    6    6  503    0 -0.13572597613E+03 -0.15449544384E+03 -0.54704859556E+03  0.58442497266E+03  0.00000000000E+00 0. -1.
         -2    1    6    6    0  503 -0.21983720248E+03 -0.12884767966E+03 -0.52803234792E+03  0.58630050366E+03  0.00000000000E+00 0.  1.
<mgrwt>
<rscale>  0 0.80731262E+03</rscale>
<asrwt>0</asrwt>
<pdfrwt beam="1">  1        2 0.40385268E+00 0.80731262E+03</pdfrwt>
<pdfrwt beam="2">  1       -2 0.44123377E-01 0.80731262E+03</pdfrwt>
<totfact> 0.14918017E+01</totfact>
</mgrwt>
</event>
<event>
12    1  0.7781383E-008  0.5354822E+03  0.7818608E-02  0.1004911E+00
          2   -1    0    0  501    0  0.00000000000E+00  0.00000000000E+00  0.10968305461E+04  0.10968305461E+04  0.00000000000E+00 0. -1.
         -2   -1    0    0    0  501 -0.00000000000E+00 -0.00000000000E+00 -0.42725345090E+03  0.42725345090E+03  0.00000000000E+00 0.  1.
         23    2    1    2    0    0  0.29679873605E+01 -0.42717885204E+03  0.65473172057E+03  0.78725632582E+03  0.92781011211E+02 0.  0.
    5000000    2    1    2    0    0 -0.29679873605E+01  0.42717885204E+03  0.14845374658E+02  0.73682767121E+03  0.60017001869E+03 0.  0.
         23    2    4    4    0    0  0.13221866584E+03 -0.36094371542E+02 -0.14610750570E+03  0.22003777513E+03  0.91019997842E+02 0.  0.
         23    2    4    4    0    0 -0.13518665320E+03  0.46327322358E+03  0.16095288036E+03  0.51678989608E+03  0.90931051361E+02 0.  0.
          3    1    3    3  502    0 -0.27396921889E+02 -0.37994783908E+03  0.57507654779E+03  0.68979996199E+03  0.00000000000E+00 0. -1.
         -3    1    3    3    0  502  0.30364909250E+02 -0.47231012956E+02  0.79655172780E+02  0.97456363821E+02  0.00000000000E+00 0.  1.
         15    1    5    5    0    0  0.52593796399E+02 -0.34912335536E+02 -0.12332791126E+02  0.64344650580E+02  0.17770000000E+01 0. -1.
        -15    1    5    5    0    0  0.79624869443E+02 -0.11820360059E+01 -0.13377471458E+03  0.15569312455E+03  0.17770000000E+01 0.  1.
          3    1    6    6  503    0 -0.14847713977E+03  0.40651043131E+03  0.14071053150E+03  0.45507762576E+03  0.00000000000E+00 0. -1.
         -3    1    6    6    0  503  0.13290486570E+02  0.56762792271E+02  0.20242348861E+02  0.61712270312E+02  0.00000000000E+00 0.  1.
<mgrwt>
<rscale>  0 0.53548225E+03</rscale>
<asrwt>0</asrwt>
<pdfrwt beam="1">  1        2 0.16874316E+00 0.53548225E+03</pdfrwt>
<pdfrwt beam="2">  1       -2 0.65731300E-01 0.53548225E+03</pdfrwt>
<totfact> 0.48524413E+01</totfact>
</mgrwt>
</event>
<event>
12    1  0.7781383E-008  0.1272598E+04  0.7818608E-02  0.9051582E-01
          2   -1    0    0  501    0  0.00000000000E+00  0.00000000000E+00  0.18201697014E+04  0.18201697014E+04  0.00000000000E+00 0. -1.
         -2   -1    0    0    0  501 -0.00000000000E+00 -0.00000000000E+00 -0.12429385452E+04  0.12429385452E+04  0.00000000000E+00 0.  1.
         23    2    1    2    0    0  0.14339252222E+03 -0.12033463163E+04 -0.51928014349E+03  0.13221398994E+04  0.98986230171E+02 0.  0.
    5000000    2    1    2    0    0 -0.14339252222E+03  0.12033463163E+04  0.10965112996E+04  0.17409683472E+04  0.60002498552E+03 0.  0.
         23    2    4    4    0    0 -0.19345032643E+03  0.12226964021E+04  0.10469253315E+04  0.16238599611E+04  0.91972837970E+02 0.  0.
         23    2    4    4    0    0  0.50057804214E+02 -0.19350085741E+02  0.49585968069E+02  0.11710838610E+03  0.91517191202E+02 0.  0.
          4    1    3    3  502    0  0.12934517770E+03 -0.96678863927E+03 -0.37694086044E+03  0.10457030459E+04  0.00000000000E+00 0. -1.
         -4    1    3    3    0  502  0.14047344516E+02 -0.23655767707E+03 -0.14233928305E+03  0.27643685349E+03  0.00000000000E+00 0.  1.
         15    1    5    5    0    0 -0.14920162513E+03  0.87273080361E+03  0.69515288371E+03  0.11256824019E+04  0.17770000000E+01 0. -1.
        -15    1    5    5    0    0 -0.44248701299E+02  0.34996559847E+03  0.35177244783E+03  0.49817755917E+03  0.17770000000E+01 0.  1.
          2    1    6    6  503    0  0.43066439532E+02  0.24982102006E+02 -0.58747620811E+00  0.49791251871E+02  0.00000000000E+00 0. -1.
         -2    1    6    6    0  503  0.69913646820E+01 -0.44332187747E+02  0.50173444277E+02  0.67317134232E+02  0.00000000000E+00 0.  1.
<mgrwt>
<rscale>  0 0.12725979E+04</rscale>
<asrwt>0</asrwt>
<pdfrwt beam="1">  1        2 0.28002611E+00 0.12725979E+04</pdfrwt>
<pdfrwt beam="2">  1       -2 0.19122131E+00 0.12725979E+04</pdfrwt>
<totfact> 0.12311854E+00</totfact>
</mgrwt>
</event>
<event>
12    1  0.7781383E-008  0.1251882E+04  0.7818608E-02  0.9068618E-01
          2   -1    0    0  501    0  0.00000000000E+00  0.00000000000E+00  0.18025882656E+04  0.18025882656E+04  0.00000000000E+00 0. -1.
         -2   -1    0    0    0  501 -0.00000000000E+00 -0.00000000000E+00 -0.10738125482E+04  0.10738125482E+04  0.00000000000E+00 0.  1.
         23    2    1    2    0    0 -0.12270181338E+04  0.17454873940E+03 -0.13642382481E+03  0.12501854421E+04  0.91166970857E+02 0.  0.
    5000000    2    1    2    0    0  0.12270181338E+04 -0.17454873940E+03  0.86519954227E+03  0.16262153716E+04  0.59997118583E+03 0.  0.
         23    2    4    4    0    0  0.10696113146E+04 -0.14198834912E+03  0.93218081339E+03  0.14285070450E+04  0.86268495161E+02 0.  0.
         23    2    4    4    0    0  0.15740681923E+03 -0.32560390282E+02 -0.66981271115E+02  0.19770832661E+03  0.93621610607E+02 0.  0.
          4    1    3    3  502    0 -0.94251487774E+03  0.16858641237E+03 -0.12251428220E+03  0.96527997106E+03  0.00000000000E+00 0. -1.
         -4    1    3    3    0  502 -0.28450325610E+03  0.59623270327E+01 -0.13909542607E+02  0.28490547108E+03  0.00000000000E+00 0.  1.
         15    1    5    5    0    0  0.47155257987E+03 -0.19488904400E+02  0.40544584195E+03  0.62219863505E+03  0.17770000000E+01 0. -1.
        -15    1    5    5    0    0  0.59805873473E+03 -0.12249944472E+03  0.52673497144E+03  0.80630840998E+03  0.17770000000E+01 0.  1.
          1    1    6    6  503    0  0.10910796825E+03  0.16609985976E+02 -0.14999106087E+02  0.11137959217E+03  0.00000000000E+00 0. -1.
         -1    1    6    6    0  503  0.48298850987E+02 -0.49170376258E+02 -0.51982165028E+02  0.86328734434E+02  0.00000000000E+00 0.  1.
<mgrwt>
<rscale>  0 0.12518824E+04</rscale>
<asrwt>0</asrwt>
<pdfrwt beam="1">  1        2 0.27732127E+00 0.12518824E+04</pdfrwt>
<pdfrwt beam="2">  1       -2 0.16520193E+00 0.12518824E+04</pdfrwt>
<totfact> 0.19169224E+00</totfact>
</mgrwt>
</event>
<event>
12    1  0.7781383E-008  0.3885215E+03  0.7818608E-02  0.1047828E+00
         -1   -1    0    0    0  501 -0.00000000000E+00  0.00000000000E+00  0.25343298372E+03  0.25343298372E+03  0.00000000000E+00 0.  1.
          1   -1    0    0  501    0  0.00000000000E+00 -0.00000000000E+00 -0.10171433824E+04  0.10171433824E+04  0.00000000000E+00 0. -1.
         23    2    1    2    0    0  0.24404639689E+03  0.82876829841E+02 -0.49258586097E+03  0.56351798890E+03  0.92111240512E+02 0.  0.
    5000000    2    1    2    0    0 -0.24404639689E+03 -0.82876829841E+02 -0.27112453770E+03  0.70705837721E+03  0.59999651755E+03 0.  0.
         23    2    4    4    0    0 -0.29849277979E+03 -0.21868169136E+03 -0.35053897705E+03  0.51747041377E+03  0.89322074407E+02 0.  0.
         23    2    4    4    0    0  0.54446382894E+02  0.13580486152E+03  0.79414439348E+02  0.18958796343E+03  0.90716997738E+02 0.  0.
          2    1    3    3  502    0  0.12684804366E+03  0.32056978375E+02 -0.34127438082E+03  0.36549456774E+03  0.00000000000E+00 0.  1.
         -2    1    3    3    0  502  0.11719835324E+03  0.50819851466E+02 -0.15131148015E+03  0.19802342116E+03  0.00000000000E+00 0. -1.
         15    1    5    5    0    0 -0.21484564647E+03 -0.15758754403E+03 -0.19334199696E+03  0.32920627478E+03  0.17770000000E+01 0.  1.
        -15    1    5    5    0    0 -0.83647133318E+02 -0.61094147336E+02 -0.15719698009E+03  0.18826413899E+03  0.17770000000E+01 0. -1.
          2    1    6    6  503    0  0.11952025053E+02  0.98539482153E+01 -0.18766602277E+02  0.24333856236E+02  0.00000000000E+00 0. -1.
         -2    1    6    6    0  503  0.42494357840E+02  0.12595091331E+03  0.98181041624E+02  0.16525410720E+03  0.00000000000E+00 0.  1.
<mgrwt>
<rscale>  0 0.38852146E+03</rscale>
<asrwt>0</asrwt>
<pdfrwt beam="1">  1        1 0.15648360E+00 0.38852146E+03</pdfrwt>
<pdfrwt beam="2">  1       -1 0.38989689E-01 0.38852146E+03</pdfrwt>
<totfact> 0.99422305E+01</totfact>
</mgrwt>
</event>
<event>
12    1  0.7781383E-008  0.7455513E+03  0.7818608E-02  0.9642356E-01
          3   -1    0    0  501    0  0.00000000000E+00  0.00000000000E+00  0.47119599214E+03  0.47119599214E+03  0.00000000000E+00 0. -1.
         -3   -1    0    0    0  501 -0.00000000000E+00 -0.00000000000E+00 -0.15418641091E+04  0.15418641091E+04  0.00000000000E+00 0.  1.
         23    2    1    2    0    0  0.54497533902E+03  0.33714764653E+03 -0.24538128343E+02  0.64752481284E+03  0.89552262960E+02 0.  0.
    5000000    2    1    2    0    0 -0.54497533902E+03 -0.33714764653E+03 -0.10461299887E+04  0.13655352884E+04  0.59969326750E+03 0.  0.
         23    2    4    4    0    0 -0.64751497739E+03 -0.20706897327E+03 -0.77008425162E+03  0.10309813172E+04  0.87974520600E+02 0.  0.
         23    2    4    4    0    0  0.10253963837E+03 -0.13007867326E+03 -0.27604573703E+03  0.33455397118E+03  0.91050930956E+02 0.  0.
          3    1    3    3  502    0  0.16286310793E+03  0.85374649045E+02  0.31300852424E+02  0.18652872697E+03  0.00000000000E+00 0.  1.
         -3    1    3    3    0  502  0.38211223109E+03  0.25177299749E+03 -0.55838980767E+02  0.46099608587E+03  0.00000000000E+00 0. -1.
         15    1    5    5    0    0 -0.35458910880E+03 -0.13252402820E+03 -0.48729952205E+03  0.61705756299E+03  0.17770000000E+01 0. -1.
        -15    1    5    5    0    0 -0.29292586859E+03 -0.74544945076E+02 -0.28278472958E+03  0.41392375426E+03  0.17770000000E+01 0.  1.
          3    1    6    6  503    0  0.57345355087E+02 -0.46676156623E+02 -0.19917685201E+03  0.21245839998E+03  0.00000000000E+00 0. -1.
         -3    1    6    6    0  503  0.45194283282E+02 -0.83402516634E+02 -0.76868885024E+02  0.12209557120E+03  0.00000000000E+00 0.  1.
<mgrwt>
<rscale>  0 0.74555126E+03</rscale>
<asrwt>0</asrwt>
<pdfrwt beam="1">  1        3 0.72491692E-01 0.74555126E+03</pdfrwt>
<pdfrwt beam="2">  1       -3 0.23720986E+00 0.74555126E+03</pdfrwt>
<totfact> 0.41166435E-01</totfact>
</mgrwt>
</event>
<event>
12    1  0.7781383E-008  0.7123475E+03  0.7818608E-02  0.9696346E-01
          2   -1    0    0  501    0  0.00000000000E+00  0.00000000000E+00  0.49450216753E+04  0.49450216753E+04  0.00000000000E+00 0. -1.
         -2   -1    0    0    0  501 -0.00000000000E+00 -0.00000000000E+00 -0.18466562374E+03  0.18466562374E+03  0.00000000000E+00 0.  1.
         23    2    1    2    0    0 -0.65817453444E+03  0.24772659012E+03  0.34738582580E+04  0.35454966016E+04  0.91064669066E+02 0.  0.
    5000000    2    1    2    0    0  0.65817453444E+03 -0.24772659012E+03  0.12864977936E+04  0.15841906974E+04  0.60001784289E+03 0.  0.
         23    2    4    4    0    0  0.32898790251E+03 -0.10274793379E+03  0.11241564694E+04  0.11792993573E+04  0.90713993082E+02 0.  0.
         23    2    4    4    0    0  0.32918663193E+03 -0.14497865633E+03  0.16234132414E+03  0.40489134013E+03  0.90551876561E+02 0.  0.
          2    1    3    3  502    0 -0.48418048382E+03  0.20091484699E+03  0.27527242749E+04  0.28021935069E+04  0.00000000000E+00 0. -1.
         -2    1    3    3    0  502 -0.17399405062E+03  0.46811743129E+02  0.72113398310E+03  0.74330309466E+03  0.00000000000E+00 0.  1.
         15    1    5    5    0    0  0.22601213233E+03 -0.32569938749E+02  0.80201389484E+03  0.83388951914E+03  0.17770000000E+01 0.  1.
        -15    1    5    5    0    0  0.10297577017E+03 -0.70177995040E+02  0.32214257458E+03  0.34540983818E+03  0.17770000000E+01 0. -1.
          4    1    6    6  503    0  0.11745030212E+03 -0.13839176658E+02  0.26495700472E+02  0.12119454782E+03  0.00000000000E+00 0. -1.
         -4    1    6    6    0  503  0.21173632982E+03 -0.13113947968E+03  0.13584562367E+03  0.28369679231E+03  0.00000000000E+00 0.  1.
<mgrwt>
<rscale>  0 0.71234747E+03</rscale>
<asrwt>0</asrwt>
<pdfrwt beam="1">  1        2 0.76077247E+00 0.71234747E+03</pdfrwt>
<pdfrwt beam="2">  1       -2 0.28410100E-01 0.71234747E+03</pdfrwt>
<totfact> 0.53968762E-01</totfact>
</mgrwt>
</event>
<event>
12    1  0.7781383E-008  0.5501095E+03  0.7818608E-02  0.1001469E+00
          2   -1    0    0  501    0  0.00000000000E+00  0.00000000000E+00  0.20068056565E+04  0.20068056565E+04  0.00000000000E+00 0.  1.
         -2   -1    0    0    0  501 -0.00000000000E+00 -0.00000000000E+00 -0.16233943557E+03  0.16233943557E+03  0.00000000000E+00 0. -1.
         23    2    1    2    0    0  0.37029682174E+03 -0.11188230113E+03  0.90687926757E+03  0.99079846114E+03  0.98052022630E+02 0.  0.
    5000000    2    1    2    0    0 -0.37029682174E+03  0.11188230113E+03  0.93758695337E+03  0.11783466309E+04  0.59982839382E+03 0.  0.
         23    2    4    4    0    0 -0.11351945892E+03  0.33291664073E+03  0.46999763197E+03  0.59454147996E+03  0.94136284779E+02 0.  0.
         23    2    4    4    0    0 -0.25677736282E+03 -0.22103433959E+03  0.46758932140E+03  0.58380515098E+03  0.86010973077E+02 0.  0.
          3    1    3    3  502    0  0.16750568731E+03 -0.88817829152E+02  0.35625021411E+03  0.40356037604E+03  0.00000000000E+00 0. -1.
         -3    1    3    3    0  502  0.20279113443E+03 -0.23064471980E+02  0.55062905347E+03  0.58723808510E+03  0.00000000000E+00 0.  1.
         15    1    5    5    0    0 -0.73410198345E+02  0.88080960954E+02  0.12552205135E+03  0.17001839903E+03  0.17770000000E+01 0. -1.
        -15    1    5    5    0    0 -0.40109260571E+02  0.24483567977E+03  0.34447558062E+03  0.42452308094E+03  0.17770000000E+01 0.  1.
          2    1    6    6  503    0 -0.21239101958E+03 -0.15013974576E+03  0.30409407534E+03  0.40015633834E+03  0.00000000000E+00 0. -1.
         -2    1    6    6    0  503 -0.44386343238E+02 -0.70894593830E+02  0.16349524606E+03  0.18364881265E+03  0.00000000000E+00 0.  1.
<mgrwt>
<rscale>  0 0.55010951E+03</rscale>
<asrwt>0</asrwt>
<pdfrwt beam="1">  1        2 0.30873931E+00 0.55010951E+03</pdfrwt>
<pdfrwt beam="2">  1       -2 0.24975299E-01 0.55010951E+03</pdfrwt>
<totfact> 0.10005992E+02</totfact>
</mgrwt>
</event>
<event>
12    1  0.7781383E-008  0.6371042E+03  0.7818608E-02  0.9831283E-01
          1   -1    0    0  501    0  0.00000000000E+00  0.00000000000E+00  0.50490735280E+03  0.50490735280E+03  0.00000000000E+00 0. -1.
         -1   -1    0    0    0  501 -0.00000000000E+00 -0.00000000000E+00 -0.10513215626E+04  0.10513215626E+04  0.00000000000E+00 0.  1.
         23    2    1    2    0    0  0.57418960187E+03  0.17575876588E+03 -0.21636919359E+03  0.64541927155E+03  0.95736959781E+02 0.  0.
    5000000    2    1    2    0    0 -0.57418960187E+03 -0.17575876588E+03 -0.33004501621E+03  0.91080964385E+03  0.60004970789E+03 0.  0.
         23    2    4    4    0    0 -0.37848606251E+03  0.22967727737E+02 -0.44759738349E+03  0.59492882917E+03  0.99084196731E+02 0.  0.
         23    2    4    4    0    0 -0.19570353936E+03 -0.19872649362E+03  0.11755236728E+03  0.31588081469E+03  0.90388248384E+02 0.  0.
          3    1    3    3  502    0  0.16097888944E+03  0.95383792973E+02 -0.66308655769E+02  0.19851727541E+03  0.00000000000E+00 0. -1.
         -3    1    3    3    0  502  0.41321071243E+03  0.80374972910E+02 -0.15006053782E+03  0.44690199613E+03  0.00000000000E+00 0.  1.
         15    1    5    5    0    0 -0.30225426665E+03  0.47636720416E+02 -0.30926422493E+03  0.43505679789E+03  0.17770000000E+01 0. -1.
        -15    1    5    5    0    0 -0.76231795853E+02 -0.24668992679E+02 -0.13833315856E+03  0.15987203127E+03  0.17770000000E+01 0.  1.
          3    1    6    6  503    0 -0.95199575701E+02 -0.79189356432E+02  0.99136533823E+02  0.15862523672E+03  0.00000000000E+00 0. -1.
         -3    1    6    6    0  503 -0.10050396366E+03 -0.11953713719E+03  0.18415833458E+02  0.15725557797E+03  0.00000000000E+00 0.  1.
<mgrwt>
<rscale>  0 0.63710423E+03</rscale>
<asrwt>0</asrwt>
<pdfrwt beam="1">  1        1 0.77678054E-01 0.63710423E+03</pdfrwt>
<pdfrwt beam="2">  1       -1 0.16174178E+00 0.63710423E+03</pdfrwt>
<totfact> 0.12941936E+01</totfact>
</mgrwt>
</event>
<event>
12    1  0.7781383E-008  0.1626133E+04  0.7818608E-02  0.8804653E-01
          2   -1    0    0  501    0  0.00000000000E+00  0.00000000000E+00  0.13576987761E+04  0.13576987761E+04  0.00000000000E+00 0. -1.
         -2   -1    0    0    0  501 -0.00000000000E+00 -0.00000000000E+00 -0.20904228968E+04  0.20904228968E+04  0.00000000000E+00 0.  1.
         23    2    1    2    0    0 -0.45258988600E+03  0.15510378929E+04 -0.57363359143E+03  0.17168861166E+04  0.89923801802E+02 0.  0.
    5000000    2    1    2    0    0  0.45258988600E+03 -0.15510378929E+04 -0.15909052930E+03  0.17312355562E+04  0.60109117810E+03 0.  0.
         23    2    4    4    0    0  0.38184920776E+03 -0.95010442230E+03  0.16165588626E+03  0.10405263561E+04  0.89750996602E+02 0.  0.
         23    2    4    4    0    0  0.70740678237E+02 -0.60093347062E+03 -0.32074641556E+03  0.69070920013E+03  0.89864655893E+02 0.  0.
          3    1    3    3  502    0 -0.25813247182E+03  0.10202108901E+04 -0.39421339761E+03  0.11237734808E+04  0.00000000000E+00 0. -1.
         -3    1    3    3    0  502 -0.19445741419E+03  0.53082700281E+03 -0.17942019382E+03  0.59311263584E+03  0.00000000000E+00 0.  1.
         15    1    5    5    0    0  0.85343563110E+02 -0.14582488919E+03  0.44252827997E+01  0.16903006516E+03  0.17770000000E+01 0.  1.
        -15    1    5    5    0    0  0.29650564465E+03 -0.80427953312E+03  0.15723060346E+03  0.87149629093E+03  0.17770000000E+01 0. -1.
          3    1    6    6  503    0  0.51934562151E+02 -0.18771485465E+03 -0.13678591414E+03  0.23800094897E+03  0.00000000000E+00 0.  1.
         -3    1    6    6    0  503  0.18806116086E+02 -0.41321861597E+03 -0.18396050142E+03  0.45270825116E+03  0.00000000000E+00 0. -1.
<mgrwt>
<rscale>  0 0.16261325E+04</rscale>
<asrwt>0</asrwt>
<pdfrwt beam="1">  1        2 0.20887674E+00 0.16261325E+04</pdfrwt>
<pdfrwt beam="2">  1       -2 0.32160352E+00 0.16261325E+04</pdfrwt>
<totfact> 0.33340665E-01</totfact>
</mgrwt>
</event>
<event>
12    1  0.7781383E-008  0.9578320E+03  0.7818608E-02  0.9356043E-01
          2   -1    0    0  501    0  0.00000000000E+00  0.00000000000E+00  0.90647723384E+03  0.90647723384E+03  0.00000000000E+00 0. -1.
         -2   -1    0    0    0  501 -0.00000000000E+00 -0.00000000000E+00 -0.13487047373E+04  0.13487047373E+04  0.00000000000E+00 0.  1.
         23    2    1    2    0    0 -0.47529321537E+03 -0.75542516107E+03  0.30292582826E+03  0.94681293204E+03  0.90110245270E+02 0.  0.
    5000000    2    1    2    0    0  0.47529321537E+03  0.75542516107E+03 -0.74515333174E+03  0.13083690391E+04  0.60000436678E+03 0.  0.
         23    2    4    4    0    0  0.57190023278E+03  0.65535651160E+03 -0.73172267829E+03  0.11402077285E+04  0.89964173870E+02 0.  0.
         23    2    4    4    0    0 -0.96607017407E+02  0.10006864947E+03 -0.13430653450E+02  0.16816131065E+03  0.93547814126E+02 0.  0.
          2    1    3    3  502    0 -0.31190393561E+03 -0.48762554132E+03  0.24120690769E+03  0.62709130588E+03  0.00000000000E+00 0. -1.
         -2    1    3    3    0  502 -0.16338927976E+03 -0.26779961975E+03  0.61718920576E+02  0.31972162616E+03  0.00000000000E+00 0.  1.
         15    1    5    5    0    0  0.31920859045E+03  0.40471807678E+03 -0.38540814278E+03  0.64360969550E+03  0.17770000000E+01 0. -1.
        -15    1    5    5    0    0  0.25269164233E+03  0.25063843482E+03 -0.34631453551E+03  0.49659803297E+03  0.17770000000E+01 0.  1.
          1    1    6    6  503    0 -0.24152047971E+02 -0.44541684614E+01  0.25255293992E+02  0.35227700925E+02  0.00000000000E+00 0. -1.
         -1    1    6    6    0  503 -0.72454969436E+02  0.10452281793E+03 -0.38685947441E+02  0.13293360972E+03  0.00000000000E+00 0.  1.
<mgrwt>
<rscale>  0 0.95783198E+03</rscale>
<asrwt>0</asrwt>
<pdfrwt beam="1">  1        2 0.13945804E+00 0.95783198E+03</pdfrwt>
<pdfrwt beam="2">  1       -2 0.20749304E+00 0.95783198E+03</pdfrwt>
<totfact> 0.34413991E+00</totfact>
</mgrwt>
</event>
<event>
12    1  0.7781383E-008  0.6176386E+03  0.7818608E-02  0.9869473E-01
         -1   -1    0    0    0  501 -0.00000000000E+00  0.00000000000E+00  0.25389119610E+03  0.25389119610E+03  0.00000000000E+00 0.  1.
          1   -1    0    0  501    0  0.00000000000E+00 -0.00000000000E+00 -0.17090204662E+04  0.17090204662E+04  0.00000000000E+00 0. -1.
         23    2    1    2    0    0  0.14912573766E+03 -0.47317913711E+03 -0.36248487382E+03  0.62128185433E+03  0.91972155261E+02 0.  0.
    5000000    2    1    2    0    0 -0.14912573766E+03  0.47317913711E+03 -0.10926443963E+04  0.13416298080E+04  0.59996815207E+03 0.  0.
         23    2    4    4    0    0  0.53768032011E+02  0.50602893095E+03 -0.55271521003E+03  0.75671955516E+03  0.90410737976E+02 0.  0.
         23    2    4    4    0    0 -0.20289376967E+03 -0.32849793842E+02 -0.53992918625E+03  0.58491025281E+03  0.91386470295E+02 0.  0.
          4    1    3    3  502    0  0.13825542771E+03 -0.34251467883E+03 -0.30093700594E+03  0.47643882089E+03  0.00000000000E+00 0. -1.
         -4    1    3    3    0  502  0.10870309951E+02 -0.13066445828E+03 -0.61547867877E+02  0.14484303344E+03  0.00000000000E+00 0.  1.
         15    1    5    5    0    0  0.12262939774E+02  0.34334099562E+03 -0.42048364261E+03  0.54299453993E+03  0.17770000000E+01 0. -1.
        -15    1    5    5    0    0  0.41505092237E+02  0.16268793533E+03 -0.13223156742E+03  0.21372501523E+03  0.17770000000E+01 0.  1.
          4    1    6    6  503    0 -0.17427263863E+03  0.68200447391E+01 -0.39047338010E+03  0.42765281029E+03  0.00000000000E+00 0. -1.
         -4    1    6    6    0  503 -0.28621131038E+02 -0.39669838581E+02 -0.14945580615E+03  0.15725744252E+03  0.00000000000E+00 0.  1.
<mgrwt>
<rscale>  0 0.61763855E+03</rscale>
<asrwt>0</asrwt>
<pdfrwt beam="1">  1        1 0.26292623E+00 0.61763855E+03</pdfrwt>
<pdfrwt beam="2">  1       -1 0.39060183E-01 0.61763855E+03</pdfrwt>
<totfact> 0.31475349E+01</totfact>
</mgrwt>
</event>
<event>
12    1  0.7781383E-008  0.5743899E+03  0.7818608E-02  0.9960011E-01
          2   -1    0    0  501    0  0.00000000000E+00  0.00000000000E+00  0.22971604622E+04  0.22971604622E+04  0.00000000000E+00 0. -1.
         -2   -1    0    0    0  501 -0.00000000000E+00 -0.00000000000E+00 -0.18564095631E+03  0.18564095631E+03  0.00000000000E+00 0.  1.
         23    2    1    2    0    0 -0.43100183737E+03 -0.51845598873E+02  0.13477623103E+04  0.14189592436E+04  0.92366335993E+02 0.  0.
    5000000    2    1    2    0    0  0.43100183737E+03  0.51845598873E+02  0.76375719567E+03  0.10638421750E+04  0.59998714100E+03 0.  0.
         23    2    4    4    0    0 -0.11442947067E+03  0.86242477541E+02  0.83641279064E+02  0.18646121237E+03  0.85088491979E+02 0.  0.
         23    2    4    4    0    0  0.54543130804E+03 -0.34396878668E+02  0.68011591661E+03  0.87738096259E+03  0.92526949843E+02 0.  0.
          3    1    3    3  502    0 -0.29849583211E+03  0.25007596547E+01  0.97316098831E+03  0.10179137118E+04  0.00000000000E+00 0. -1.
         -3    1    3    3    0  502 -0.13250600527E+03 -0.54346358528E+02  0.37460132196E+03  0.40104553174E+03  0.00000000000E+00 0.  1.
         15    1    5    5    0    0 -0.31177758258E+02  0.68235774452E+02  0.64934695451E+02  0.99236313552E+02  0.17770000000E+01 0.  1.
        -15    1    5    5    0    0 -0.83251712409E+02  0.18006703089E+02  0.18706583613E+02  0.87224898823E+02  0.17770000000E+01 0. -1.
          2    1    6    6  503    0  0.32483099620E+03 -0.11526129472E+02  0.33200846013E+03  0.46462635025E+03  0.00000000000E+00 0. -1.
         -2    1    6    6    0  503  0.22060031185E+03 -0.22870749197E+02  0.34810745648E+03  0.41275461235E+03  0.00000000000E+00 0.  1.
<mgrwt>
<rscale>  0 0.57438994E+03</rscale>
<asrwt>0</asrwt>
<pdfrwt beam="1">  1        2 0.35340928E+00 0.57438994E+03</pdfrwt>
<pdfrwt beam="2">  1       -2 0.28560149E-01 0.57438994E+03</pdfrwt>
<totfact> 0.54299849E+01</totfact>
</mgrwt>
</event>
<event>
12    1  0.7781383E-008  0.3598191E+03  0.7818608E-02  0.1058656E+00
          2   -1    0    0  501    0  0.00000000000E+00  0.00000000000E+00  0.51448923681E+03  0.51448923681E+03  0.00000000000E+00 0.  1.
         -2   -1    0    0    0  501 -0.00000000000E+00 -0.00000000000E+00 -0.42117950280E+03  0.42117950280E+03  0.00000000000E+00 0. -1.
         23    2    1    2    0    0  0.11758127180E+03 -0.17572768329E+03 -0.12576027121E+03  0.26287559985E+03  0.92641033172E+02 0.  0.
    5000000    2    1    2    0    0 -0.11758127180E+03  0.17572768329E+03  0.21907000522E+03  0.67279313977E+03  0.59996113840E+03 0.  0.
         23    2    4    4    0    0 -0.19309209739E+03 -0.80987595518E+02 -0.98563799631E+02  0.24893899616E+03  0.91718332454E+02 0.  0.
         23    2    4    4    0    0  0.75510825592E+02  0.25671527881E+03  0.31763380485E+03  0.42385414361E+03  0.84595992333E+02 0.  0.
          1    1    3    3  502    0  0.10301010240E+03 -0.74044694765E+02 -0.55785269618E+02  0.13858461071E+03  0.00000000000E+00 0. -1.
         -1    1    3    3    0  502  0.14571169403E+02 -0.10168298852E+03 -0.69975001592E+02  0.12429098914E+03  0.00000000000E+00 0.  1.
         15    1    5    5    0    0 -0.10889236153E+03 -0.42729417376E+02 -0.10364691744E+03  0.15629840285E+03  0.17770000000E+01 0.  1.
        -15    1    5    5    0    0 -0.84199735859E+02 -0.38258178143E+02  0.50831178065E+01  0.92640593312E+02  0.17770000000E+01 0. -1.
          4    1    6    6  503    0 -0.15278848505E+02  0.84635214567E+02  0.10203629648E+03  0.13344650073E+03  0.00000000000E+00 0. -1.
         -4    1    6    6    0  503  0.90789674097E+02  0.17208006424E+03  0.21559750837E+03  0.29040764289E+03  0.00000000000E+00 0.  1.
<mgrwt>
<rscale>  0 0.35981908E+03</rscale>
<asrwt>0</asrwt>
<pdfrwt beam="1">  1        2 0.79152190E-01 0.35981908E+03</pdfrwt>
<pdfrwt beam="2">  1       -2 0.64796847E-01 0.35981908E+03</pdfrwt>
<totfact> 0.13573583E+02</totfact>
</mgrwt>
</event>
<event>
12    1  0.7781383E-008  0.1165580E+04  0.7818608E-02  0.9143530E-01
          2   -1    0    0  501    0  0.00000000000E+00  0.00000000000E+00  0.35900785726E+04  0.35900785726E+04  0.00000000000E+00 0. -1.
         -2   -1    0    0    0  501 -0.00000000000E+00 -0.00000000000E+00 -0.47218005130E+03  0.47218005130E+03  0.00000000000E+00 0.  1.
         23    2    1    2    0    0 -0.38966442208E+03 -0.10295826600E+04  0.61794259645E+03  0.12655285951E+04  0.88491564227E+02 0.  0.
    5000000    2    1    2    0    0  0.38966442208E+03  0.10295826600E+04  0.24999559248E+04  0.27967300287E+04  0.60003367574E+03 0.  0.
         23    2    4    4    0    0  0.10743061688E+03  0.91357299022E+03  0.20096627558E+04  0.22120375228E+04  0.90601679426E+02 0.  0.
         23    2    4    4    0    0  0.28223380521E+03  0.11600966979E+03  0.49029316899E+03  0.58469250592E+03  0.91453652945E+02 0.  0.
          3    1    3    3  502    0 -0.14295193258E+03 -0.26997845096E+03  0.18309051824E+03  0.35615411956E+03  0.00000000000E+00 0. -1.
         -3    1    3    3    0  502 -0.24671248951E+03 -0.75960420905E+03  0.43485207821E+03  0.90937447556E+03  0.00000000000E+00 0.  1.
         15    1    5    5    0    0 -0.95940730309E+00  0.20637540107E+03  0.38537592172E+03  0.43716070889E+03  0.17770000000E+01 0. -1.
        -15    1    5    5    0    0  0.10839002418E+03  0.70719758915E+03  0.16242868341E+04  0.17748768139E+04  0.17770000000E+01 0.  1.
          2    1    6    6  503    0  0.16406790323E+03  0.69094951468E+02  0.36546268920E+03  0.40651613299E+03  0.00000000000E+00 0. -1.
         -2    1    6    6    0  503  0.11816590197E+03  0.46914718323E+02  0.12483047979E+03  0.17817637293E+03  0.00000000000E+00 0.  1.
<mgrwt>
<rscale>  0 0.11655796E+04</rscale>
<asrwt>0</asrwt>
<pdfrwt beam="1">  1        2 0.55231976E+00 0.11655796E+04</pdfrwt>
<pdfrwt beam="2">  1       -2 0.72643087E-01 0.11655796E+04</pdfrwt>
<totfact> 0.12168359E+00</totfact>
</mgrwt>
</event>
<event>
12    1  0.7781383E-008  0.8157053E+03  0.7818608E-02  0.9537558E-01
          2   -1    0    0  501    0  0.00000000000E+00  0.00000000000E+00  0.25967634495E+04  0.25967634495E+04  0.00000000000E+00 0. -1.
         -2   -1    0    0    0  501 -0.00000000000E+00 -0.00000000000E+00 -0.26384035063E+03  0.26384035063E+03  0.00000000000E+00 0.  1.
         23    2    1    2    0    0 -0.13629717231E+03  0.69825811326E+03  0.88323467426E+03  0.11379073078E+04  0.92672753997E+02 0.  0.
    5000000    2    1    2    0    0  0.13629717231E+03 -0.69825811326E+03  0.14496884246E+04  0.17226964924E+04  0.59995446863E+03 0.  0.
         23    2    4    4    0    0 -0.21663086015E+03 -0.36547655230E+03  0.72814666994E+03  0.84818416180E+03  0.93363587913E+02 0.  0.
         23    2    4    4    0    0  0.35292803246E+03 -0.33278156096E+03  0.72154175470E+03  0.87451233058E+03  0.94061411590E+02 0.  0.
          3    1    3    3  502    0 -0.14531936043E+03  0.54974228885E+03  0.70438970551E+03  0.90526192778E+03  0.00000000000E+00 0. -1.
         -3    1    3    3    0  502  0.90221881231E+01  0.14851582441E+03  0.17884496874E+03  0.23264537997E+03  0.00000000000E+00 0.  1.
         15    1    5    5    0    0 -0.43664646224E+02 -0.12629461628E+03  0.16467744935E+03  0.21208194521E+03  0.17770000000E+01 0.  1.
        -15    1    5    5    0    0 -0.17296621393E+03 -0.23918193602E+03  0.56346922059E+03  0.63610221660E+03  0.17770000000E+01 0. -1.
          4    1    6    6  503    0  0.13222925069E+03 -0.11816265323E+03  0.18736158293E+03  0.25797548355E+03  0.00000000000E+00 0. -1.
         -4    1    6    6    0  503  0.22069878177E+03 -0.21461890773E+03  0.53418017177E+03  0.61653684703E+03  0.00000000000E+00 0.  1.
<mgrwt>
<rscale>  0 0.81570530E+03</rscale>
<asrwt>0</asrwt>
<pdfrwt beam="1">  1        2 0.39950205E+00 0.81570530E+03</pdfrwt>
<pdfrwt beam="2">  1       -2 0.40590825E-01 0.81570530E+03</pdfrwt>
<totfact> 0.18238329E+01</totfact>
</mgrwt>
</event>
<event>
12    1  0.7781383E-008  0.1295589E+04  0.7818608E-02  0.9033070E-01
         -1   -1    0    0    0  501 -0.00000000000E+00  0.00000000000E+00  0.91664143304E+03  0.91664143304E+03  0.00000000000E+00 0.  1.
          1   -1    0    0  501    0  0.00000000000E+00 -0.00000000000E+00 -0.20183266271E+04  0.20183266271E+04  0.00000000000E+00 0. -1.
         23    2    1    2    0    0  0.12393074501E+04 -0.22332249989E+03 -0.21135934307E+03  0.12801496267E+04  0.91402406673E+02 0.  0.
    5000000    2    1    2    0    0 -0.12393074501E+04  0.22332249989E+03 -0.89032585102E+03  0.16548184335E+04  0.59999002660E+03 0.  0.
         23    2    4    4    0    0 -0.30027251972E+03 -0.12139563218E+03 -0.41788516419E+02  0.34001636093E+03  0.94680304091E+02 0.  0.
         23    2    4    4    0    0 -0.93903493038E+03  0.34471813207E+03 -0.84853733461E+03  0.13148020726E+04  0.89842588860E+02 0.  0.
          1    1    3    3  502    0  0.89789653500E+03 -0.15372999665E+03 -0.19333899201E+03  0.93125241759E+03  0.00000000000E+00 0. -1.
         -1    1    3    3    0  502  0.34141091510E+03 -0.69592503244E+02 -0.18020351066E+02  0.34889720909E+03  0.00000000000E+00 0.  1.
         15    1    5    5    0    0 -0.21428436620E+03 -0.11348395380E+03 -0.64092174881E+02  0.25081340071E+03  0.17770000000E+01 0. -1.
        -15    1    5    5    0    0 -0.85988153524E+02 -0.79116783721E+01  0.22303658463E+02  0.89202960214E+02  0.17770000000E+01 0.  1.
          3    1    6    6  503    0 -0.28931032639E+03  0.70950475902E+02 -0.28428603268E+03  0.41176811844E+03  0.00000000000E+00 0. -1.
         -3    1    6    6    0  503 -0.64972460398E+03  0.27376765617E+03 -0.56425130192E+03  0.90303395413E+03  0.00000000000E+00 0.  1.
<mgrwt>
<rscale>  0 0.12955895E+04</rscale>
<asrwt>0</asrwt>
<pdfrwt beam="1">  1        1 0.31051179E+00 0.12955895E+04</pdfrwt>
<pdfrwt beam="2">  1       -1 0.14102176E+00 0.12955895E+04</pdfrwt>
<totfact> 0.11575878E+00</totfact>
</mgrwt>
</event>
<event>
12    1  0.7781383E-008  0.7541379E+03  0.7818608E-02  0.9628881E-01
         -2   -1    0    0    0  501 -0.00000000000E+00  0.00000000000E+00  0.10142212073E+04  0.10142212073E+04  0.00000000000E+00 0.  1.
          2   -1    0    0  501    0  0.00000000000E+00 -0.00000000000E+00 -0.70687412671E+03  0.70687412671E+03  0.00000000000E+00 0. -1.
         23    2    1    2    0    0 -0.71852309203E+03  0.16581778393E+03  0.12340754627E+03  0.75278897705E+03  0.87697492759E+02 0.  0.
    5000000    2    1    2    0    0  0.71852309203E+03 -0.16581778393E+03  0.18393953437E+03  0.96830635700E+03  0.60001039778E+03 0.  0.
         23    2    4    4    0    0  0.54110358310E+03 -0.63673962309E+02  0.38003249124E+03  0.67044405619E+03  0.90681183111E+02 0.  0.
         23    2    4    4    0    0  0.17741950893E+03 -0.10214382163E+03 -0.19609295687E+03  0.29786230081E+03  0.91424614082E+02 0.  0.
          4    1    3    3  502    0 -0.27681778919E+03  0.35694519044E+02  0.13801249246E+02  0.27945064248E+03  0.00000000000E+00 0.  1.
         -4    1    3    3    0  502 -0.44170530284E+03  0.13012326489E+03  0.10960629702E+03  0.47333833457E+03  0.00000000000E+00 0. -1.
         15    1    5    5    0    0  0.20294180888E+03  0.11300720793E+02  0.10910613466E+03  0.23069544952E+03  0.17770000000E+01 0.  1.
        -15    1    5    5    0    0  0.33816177422E+03 -0.74974683101E+02  0.27092635658E+03  0.43974860667E+03  0.17770000000E+01 0. -1.
          1    1    6    6  503    0  0.88649515284E+02 -0.95086672718E+02 -0.14676884463E+03  0.19606454459E+03  0.00000000000E+00 0. -1.
         -1    1    6    6    0  503  0.88769993649E+02 -0.70571489076E+01 -0.49324112237E+02  0.10179775622E+03  0.00000000000E+00 0.  1.
<mgrwt>
<rscale>  0 0.75413790E+03</rscale>
<asrwt>0</asrwt>
<pdfrwt beam="1">  1        2 0.10874987E+00 0.75413790E+03</pdfrwt>
<pdfrwt beam="2">  1       -2 0.15603403E+00 0.75413790E+03</pdfrwt>
<totfact> 0.11079002E+01</totfact>
</mgrwt>
</event>
<event>
12    1  0.7781383E-008  0.1618937E+04  0.7818608E-02  0.8808998E-01
          1   -1    0    0  501    0  0.00000000000E+00  0.00000000000E+00  0.19033718446E+04  0.19033718446E+04  0.00000000000E+00 0. -1.
         -1   -1    0    0    0  501 -0.00000000000E+00 -0.00000000000E+00 -0.15698827274E+04  0.15698827274E+04  0.00000000000E+00 0.  1.
         23    2    1    2    0    0  0.14878609360E+04  0.55635061174E+03 -0.37261171871E+03  0.16342240062E+04  0.92695423915E+02 0.  0.
    5000000    2    1    2    0    0 -0.14878609360E+04 -0.55635061174E+03  0.70610083595E+03  0.18390305658E+04  0.60016569680E+03 0.  0.
         23    2    4    4    0    0 -0.13479773101E+04 -0.60984524360E+03  0.49378712561E+03  0.15631648707E+04  0.10346321930E+03 0.  0.
         23    2    4    4    0    0 -0.13988362581E+03  0.53494631858E+02  0.21231371034E+03  0.27586569514E+03  0.92712813289E+02 0.  0.
          1    1    3    3  502    0  0.37776793239E+03  0.17657332484E+03 -0.12227686865E+03  0.43455538473E+03  0.00000000000E+00 0. -1.
         -1    1    3    3    0  502  0.11100930036E+04  0.37977728690E+03 -0.25033485006E+03  0.11996686215E+04  0.00000000000E+00 0.  1.
         15    1    5    5    0    0 -0.58251918826E+03 -0.26016585074E+03  0.26696533474E+03  0.69158406739E+03  0.17770000000E+01 0. -1.
        -15    1    5    5    0    0 -0.76545812189E+03 -0.34967939285E+03  0.22682179087E+03  0.87158080331E+03  0.17770000000E+01 0.  1.
          3    1    6    6  503    0 -0.16151740604E+00 -0.13244366977E+02  0.49235555098E+02  0.50986068983E+02  0.00000000000E+00 0. -1.
         -3    1    6    6    0  503 -0.13972210840E+03  0.66738998835E+02  0.16307815524E+03  0.22487962616E+03  0.00000000000E+00 0.  1.
<mgrwt>
<rscale>  0 0.16189369E+04</rscale>
<asrwt>0</asrwt>
<pdfrwt beam="1">  1        1 0.29282644E+00 0.16189369E+04</pdfrwt>
<pdfrwt beam="2">  1       -1 0.24152042E+00 0.16189369E+04</pdfrwt>
<totfact> 0.25575753E-01</totfact>
</mgrwt>
</event>
<event>
12    1  0.7781383E-008  0.8491636E+03  0.7818608E-02  0.9491460E-01
          1   -1    0    0  501    0  0.00000000000E+00  0.00000000000E+00  0.14725607160E+04  0.14725607160E+04  0.00000000000E+00 0. -1.
         -1   -1    0    0    0  501 -0.00000000000E+00 -0.00000000000E+00 -0.56781298514E+03  0.56781298514E+03  0.00000000000E+00 0.  1.
         23    2    1    2    0    0 -0.65049265375E+03  0.36929277678E+03  0.50208455841E+02  0.75594433719E+03  0.97021154015E+02 0.  0.
    5000000    2    1    2    0    0  0.65049265375E+03 -0.36929277678E+03  0.85453927497E+03  0.12844293639E+04  0.60000297569E+03 0.  0.
         23    2    4    4    0    0 -0.18846497095E+02 -0.25754103389E+03  0.23761595204E+03  0.36278559552E+03  0.92029740101E+02 0.  0.
         23    2    4    4    0    0  0.66933915085E+03 -0.11175174289E+03  0.61692332293E+03  0.92164376839E+03  0.91266086507E+02 0.  0.
          4    1    3    3  502    0 -0.53172819990E+03  0.29736711251E+03  0.78431743946E+02  0.61425859101E+03  0.00000000000E+00 0. -1.
         -4    1    3    3    0  502 -0.11876445386E+03  0.71925664270E+02 -0.28223288105E+02  0.14168574618E+03  0.00000000000E+00 0.  1.
         15    1    5    5    0    0 -0.39959064729E+02 -0.91215478305E+02  0.12913505058E+03  0.16308282973E+03  0.17770000000E+01 0.  1.
        -15    1    5    5    0    0  0.21112567634E+02 -0.16632555558E+03  0.10848090146E+03  0.19970276579E+03  0.17770000000E+01 0. -1.
          4    1    6    6  503    0  0.21953022802E+03 -0.73673939941E+02  0.24069947547E+03  0.33400240708E+03  0.00000000000E+00 0. -1.
         -4    1    6    6    0  503  0.44980892283E+03 -0.38077802952E+02  0.37622384745E+03  0.58764136131E+03  0.00000000000E+00 0.  1.
<mgrwt>
<rscale>  0 0.84916360E+03</rscale>
<asrwt>0</asrwt>
<pdfrwt beam="1">  1        1 0.22654780E+00 0.84916360E+03</pdfrwt>
<pdfrwt beam="2">  1       -1 0.87355844E-01 0.84916360E+03</pdfrwt>
<totfact> 0.90287516E+00</totfact>
</mgrwt>
</event>
<event>
12    1  0.7781383E-008  0.6642463E+03  0.7818608E-02  0.9780408E-01
          1   -1    0    0  501    0  0.00000000000E+00  0.00000000000E+00  0.99780904904E+03  0.99780904904E+03  0.00000000000E+00 0. -1.
         -1   -1    0    0    0  501 -0.00000000000E+00 -0.00000000000E+00 -0.47140341265E+03  0.47140341265E+03  0.00000000000E+00 0.  1.
         23    2    1    2    0    0  0.54560111904E+03 -0.23997535473E+01  0.29045987446E+03  0.62460116688E+03  0.89851761693E+02 0.  0.
    5000000    2    1    2    0    0 -0.54560111904E+03  0.23997535473E+01  0.23594576193E+03  0.84461129481E+03  0.60000958062E+03 0.  0.
         23    2    4    4    0    0 -0.23660875225E+03  0.26986876519E+03  0.10743995293E+02  0.36910960367E+03  0.85519670383E+02 0.  0.
         23    2    4    4    0    0 -0.30899236679E+03 -0.26746901164E+03  0.22520176664E+03  0.47550169114E+03  0.91488073850E+02 0.  0.
          2    1    3    3  502    0  0.46178768674E+03  0.13783307274E+02  0.27560917528E+03  0.53795749338E+03  0.00000000000E+00 0. -1.
         -2    1    3    3    0  502  0.83813432297E+02 -0.16183060821E+02  0.14850699182E+02  0.86643673497E+02  0.00000000000E+00 0.  1.
         15    1    5    5    0    0 -0.12099902090E+03  0.17700971403E+03 -0.26924329448E+02  0.21610478746E+03  0.17770000000E+01 0.  1.
        -15    1    5    5    0    0 -0.11560973136E+03  0.92859051162E+02  0.37668324741E+02  0.15300481621E+03  0.17770000000E+01 0. -1.
          4    1    6    6  503    0 -0.15445541556E+03 -0.75328877741E+02  0.82694708826E+02  0.19070744633E+03  0.00000000000E+00 0. -1.
         -4    1    6    6    0  503 -0.15453695123E+03 -0.19214013390E+03  0.14250705781E+03  0.28479424481E+03  0.00000000000E+00 0.  1.
<mgrwt>
<rscale>  0 0.66424626E+03</rscale>
<asrwt>0</asrwt>
<pdfrwt beam="1">  1        1 0.15350908E+00 0.66424626E+03</pdfrwt>
<pdfrwt beam="2">  1       -1 0.72523602E-01 0.66424626E+03</pdfrwt>
<totfact> 0.30221783E+01</totfact>
</mgrwt>
</event>
<event>
12    1  0.7781383E-008  0.5274493E+03  0.7818608E-02  0.1006853E+00
         -1   -1    0    0    0  501 -0.00000000000E+00  0.00000000000E+00  0.12327697395E+03  0.12327697395E+03  0.00000000000E+00 0.  1.
          1   -1    0    0  501    0  0.00000000000E+00 -0.00000000000E+00 -0.30425559819E+04  0.30425559819E+04  0.00000000000E+00 0. -1.
         23    2    1    2    0    0  0.28468069567E+03 -0.26675314862E+03 -0.48523711339E+03  0.62919179571E+03  0.90702363792E+02 0.  0.
    5000000    2    1    2    0    0 -0.28468069567E+03  0.26675314862E+03 -0.24340418946E+04  0.25366411602E+04  0.59815390161E+03 0.  0.
         23    2    4    4    0    0 -0.38934079648E+03  0.45660285753E+02 -0.18990195396E+04  0.19414115137E+04  0.95563258164E+02 0.  0.
         23    2    4    4    0    0  0.10466010082E+03  0.22109286287E+03 -0.53502235500E+03  0.59522964645E+03  0.90629029285E+02 0.  0.
          3    1    3    3  502    0  0.21005732359E+03 -0.20979788331E+03 -0.30303534694E+03  0.42422830237E+03  0.00000000000E+00 0. -1.
         -3    1    3    3    0  502  0.74623372080E+02 -0.56955265309E+02 -0.18220176645E+03  0.20496349334E+03  0.00000000000E+00 0.  1.
         15    1    5    5    0    0 -0.32755854842E+01  0.15615839924E+02 -0.88382203470E+02  0.89828478424E+02  0.17770000000E+01 0.  1.
        -15    1    5    5    0    0 -0.38606521100E+03  0.30044445829E+02 -0.18106373361E+04  0.18515830353E+04  0.17770000000E+01 0. -1.
          4    1    6    6  503    0  0.12122765664E+03  0.18563841624E+03 -0.45685090187E+03  0.50780952419E+03  0.00000000000E+00 0. -1.
         -4    1    6    6    0  503 -0.16567555821E+02  0.35454446632E+02 -0.78171453133E+02  0.87420122265E+02  0.00000000000E+00 0.  1.
<mgrwt>
<rscale>  0 0.52744927E+03</rscale>
<asrwt>0</asrwt>
<pdfrwt beam="1">  1        1 0.46808550E+00 0.52744927E+03</pdfrwt>
<pdfrwt beam="2">  1       -1 0.18965690E-01 0.52744927E+03</pdfrwt>
<totfact> 0.13772113E+01</totfact>
</mgrwt>
</event>
<event>
12    1  0.7781383E-008  0.4028714E+03  0.7818608E-02  0.1042790E+00
          1   -1    0    0  501    0  0.00000000000E+00  0.00000000000E+00  0.10618451983E+04  0.10618451983E+04  0.00000000000E+00 0.  1.
         -1   -1    0    0    0  501 -0.00000000000E+00 -0.00000000000E+00 -0.19259014237E+03  0.19259014237E+03  0.00000000000E+00 0. -1.
         23    2    1    2    0    0 -0.10486519396E+03 -0.20376284774E+03  0.14307877430E+03  0.28499918950E+03  0.90757894076E+02 0.  0.
    5000000    2    1    2    0    0  0.10486519396E+03  0.20376284774E+03  0.72617628162E+03  0.96943615116E+03  0.59996537581E+03 0.  0.
         23    2    4    4    0    0  0.30046827457E+03  0.25468332053E+02  0.20010515012E+03  0.37327086653E+03  0.91428927235E+02 0.  0.
         23    2    4    4    0    0 -0.19560308061E+03  0.17829451569E+03  0.52607113149E+03  0.59616528463E+03  0.92804696735E+02 0.  0.
          1    1    3    3  502    0 -0.73904815011E+02 -0.13728474300E+03  0.14315408091E+03  0.21166509684E+03  0.00000000000E+00 0. -1.
         -1    1    3    3    0  502 -0.30960378947E+02 -0.66478104748E+02 -0.75306602344E-01  0.73334092661E+02  0.00000000000E+00 0.  1.
         15    1    5    5    0    0  0.31292985274E+02 -0.62922068839E+00 -0.76154742402E+01  0.32261432438E+02  0.17770000000E+01 0.  1.
        -15    1    5    5    0    0  0.26917528930E+03  0.26097552741E+02  0.20772062436E+03  0.34100943409E+03  0.17770000000E+01 0. -1.
          1    1    6    6  503    0 -0.72083197926E+02  0.21746642472E+02  0.95103727262E+02  0.12129972309E+03  0.00000000000E+00 0. -1.
         -1    1    6    6    0  503 -0.12351988269E+03  0.15654787322E+03  0.43096740423E+03  0.47486556154E+03  0.00000000000E+00 0.  1.
<mgrwt>
<rscale>  0 0.40287141E+03</rscale>
<asrwt>0</asrwt>
<pdfrwt beam="1">  1        1 0.16336080E+00 0.40287141E+03</pdfrwt>
<pdfrwt beam="2">  1       -1 0.29629253E-01 0.40287141E+03</pdfrwt>
<totfact> 0.14860098E+02</totfact>
</mgrwt>
</event>
<event>
12    1  0.7781383E-008  0.8893452E+03  0.7818608E-02  0.9438999E-01
         -2   -1    0    0    0  501 -0.00000000000E+00  0.00000000000E+00  0.96011001734E+03  0.96011001734E+03  0.00000000000E+00 0.  1.
          2   -1    0    0  501    0  0.00000000000E+00 -0.00000000000E+00 -0.27472024395E+04  0.27472024395E+04  0.00000000000E+00 0. -1.
         23    2    1    2    0    0 -0.39924114615E+03  0.68463466359E+03  0.67928446852E+03  0.10481356305E+04  0.95093613896E+02 0.  0.
    5000000    2    1    2    0    0  0.39924114615E+03 -0.68463466359E+03 -0.24663768906E+04  0.26591768263E+04  0.60007358840E+03 0.  0.
         23    2    4    4    0    0  0.14649417925E+03  0.70307728436E+02 -0.35603783157E+03  0.40179786911E+03  0.90966306291E+02 0.  0.
         23    2    4    4    0    0  0.25274696690E+03 -0.75494239202E+03 -0.21103390591E+04  0.22573789572E+04  0.91704784992E+02 0.  0.
          4    1    3    3  502    0 -0.16483856343E+03  0.20349775159E+03  0.19719033191E+03  0.32782177154E+03  0.00000000000E+00 0. -1.
         -4    1    3    3    0  502 -0.23440258273E+03  0.48113691200E+03  0.48209413660E+03  0.72031385897E+03  0.00000000000E+00 0.  1.
         15    1    5    5    0    0  0.11053644589E+03  0.94097668356E+01 -0.25851251526E+03  0.28131606398E+03  0.17770000000E+01 0. -1.
        -15    1    5    5    0    0  0.35957733359E+02  0.60897961600E+02 -0.97525316314E+02  0.12048180513E+03  0.17770000000E+01 0.  1.
          2    1    6    6  503    0  0.19430414420E+03 -0.46196216204E+03 -0.13874730514E+04  0.14752100216E+04  0.00000000000E+00 0. -1.
         -2    1    6    6    0  503  0.58442822699E+02 -0.29298022999E+03 -0.72286600767E+03  0.78216893554E+03  0.00000000000E+00 0.  1.
<mgrwt>
<rscale>  0 0.88934524E+03</rscale>
<asrwt>0</asrwt>
<pdfrwt beam="1">  1        2 0.42264652E+00 0.88934524E+03</pdfrwt>
<pdfrwt beam="2">  1       -2 0.14770924E+00 0.88934524E+03</pdfrwt>
<totfact> 0.80037635E-01</totfact>
</mgrwt>
</event>
<event>
12    1  0.7781383E-008  0.5871730E+03  0.7818608E-02  0.9932381E-01
          2   -1    0    0  501    0  0.00000000000E+00  0.00000000000E+00  0.23222024714E+04  0.23222024714E+04  0.00000000000E+00 0.  1.
         -2   -1    0    0    0  501 -0.00000000000E+00 -0.00000000000E+00 -0.19266842873E+03  0.19266842873E+03  0.00000000000E+00 0. -1.
         23    2    1    2    0    0  0.26888382905E+01 -0.45543641701E+03  0.13648445660E+04  0.14415302855E+04  0.88200425703E+02 0.  0.
    5000000    2    1    2    0    0 -0.26888382905E+01  0.45543641701E+03  0.76468947665E+03  0.10733406145E+04  0.59990042452E+03 0.  0.
         23    2    4    4    0    0  0.91451815306E+02 -0.97374469129E+02  0.73798386409E+02  0.17934085286E+03  0.94189797262E+02 0.  0.
         23    2    4    4    0    0 -0.94140653596E+02  0.55281088613E+03  0.69089109024E+03  0.89399976167E+03  0.86271297741E+02 0.  0.
          1    1    3    3  502    0  0.52653423492E+01 -0.44963334864E+02  0.23759356953E+03  0.24186800035E+03  0.00000000000E+00 0. -1.
         -1    1    3    3    0  502 -0.25765040587E+01 -0.41047308214E+03  0.11272509964E+04  0.11996622852E+04  0.00000000000E+00 0.  1.
         15    1    5    5    0    0  0.86541356437E+02 -0.40537240556E+02  0.13872422411E+02  0.96583000981E+02  0.17770000000E+01 0. -1.
        -15    1    5    5    0    0  0.49104588689E+01 -0.56837228572E+02  0.59925963998E+02  0.82757851883E+02  0.17770000000E+01 0.  1.
          1    1    6    6  503    0 -0.31788423252E+02  0.39465123299E+03  0.51175389791E+03  0.64703334657E+03  0.00000000000E+00 0. -1.
         -1    1    6    6    0  503 -0.62352230344E+02  0.15815965315E+03  0.17913719233E+03  0.24696641510E+03  0.00000000000E+00 0.  1.
<mgrwt>
<rscale>  0 0.58717301E+03</rscale>
<asrwt>0</asrwt>
<pdfrwt beam="1">  1        2 0.35726190E+00 0.58717301E+03</pdfrwt>
<pdfrwt beam="2">  1       -2 0.29641298E-01 0.58717301E+03</pdfrwt>
<totfact> 0.49019802E+01</totfact>
</mgrwt>
</event>
<event>
12    1  0.7781383E-008  0.1221329E+04  0.7818608E-02  0.9094389E-01
          1   -1    0    0  501    0  0.00000000000E+00  0.00000000000E+00  0.13219276797E+04  0.13219276797E+04  0.00000000000E+00 0. -1.
         -1   -1    0    0    0  501 -0.00000000000E+00 -0.00000000000E+00 -0.12233490377E+04  0.12233490377E+04  0.00000000000E+00 0.  1.
         23    2    1    2    0    0 -0.22007835921E+03 -0.11761706627E+04 -0.30265750302E+02  0.12004972552E+04  0.92009413508E+02 0.  0.
    5000000    2    1    2    0    0  0.22007835921E+03  0.11761706627E+04  0.12884439234E+03  0.13447794622E+04  0.60001584352E+03 0.  0.
         23    2    4    4    0    0  0.32863991389E+01  0.39084516740E+02 -0.12114785200E+03  0.15695641265E+03  0.91761176742E+02 0.  0.
         23    2    4    4    0    0  0.21679196007E+03  0.11370861459E+04  0.24999224434E+03  0.11878230495E+04  0.91999008122E+02 0.  0.
          1    1    3    3  502    0 -0.93553404839E+02 -0.73185753760E+03 -0.49960848946E+01  0.73782969292E+03  0.00000000000E+00 0. -1.
         -1    1    3    3    0  502 -0.12652495437E+03 -0.44431312509E+03 -0.25269665407E+02  0.46266756229E+03  0.00000000000E+00 0.  1.
         15    1    5    5    0    0  0.25595357201E+01 -0.22865482205E+02 -0.78243321685E+02  0.81575465778E+02  0.17770000000E+01 0.  1.
        -15    1    5    5    0    0  0.72686341881E+00  0.61949998945E+02 -0.42904530320E+02  0.75380946868E+02  0.17770000000E+01 0. -1.
          1    1    6    6  503    0  0.14333696213E+03  0.68981095801E+03  0.10758899057E+03  0.71271314945E+03  0.00000000000E+00 0. -1.
         -1    1    6    6    0  503  0.73454997934E+02  0.44727518794E+03  0.14240325377E+03  0.47510990008E+03  0.00000000000E+00 0.  1.
<mgrwt>
<rscale>  0 0.12213294E+04</rscale>
<asrwt>0</asrwt>
<pdfrwt beam="1">  1        1 0.20337349E+00 0.12213294E+04</pdfrwt>
<pdfrwt beam="2">  1       -1 0.18820755E+00 0.12213294E+04</pdfrwt>
<totfact> 0.15515715E+00</totfact>
</mgrwt>
</event>
<event>
12    1  0.7781383E-008  0.6864210E+03  0.7818608E-02  0.9740740E-01
         -1   -1    0    0    0  501 -0.00000000000E+00  0.00000000000E+00  0.66225600280E+03  0.66225600280E+03  0.00000000000E+00 0.  1.
          1   -1    0    0  501    0  0.00000000000E+00 -0.00000000000E+00 -0.11838026792E+04  0.11838026792E+04  0.00000000000E+00 0. -1.
         23    2    1    2    0    0 -0.42736081312E+03 -0.40738413978E+03  0.30093254751E+03  0.66917004056E+03  0.92892642894E+02 0.  0.
    5000000    2    1    2    0    0  0.42736081312E+03  0.40738413978E+03 -0.82247922391E+03  0.11768886414E+04  0.59999641554E+03 0.  0.
         23    2    4    4    0    0  0.24381872218E+03  0.50245198405E+03 -0.38819604505E+03  0.68702900146E+03  0.96990277342E+02 0.  0.
         23    2    4    4    0    0  0.18354209094E+03 -0.95067844272E+02 -0.43428317885E+03  0.48985963997E+03  0.92924664530E+02 0.  0.
          3    1    3    3  502    0 -0.24485683925E+02 -0.31400632585E+02 -0.28482686551E+01  0.39920684843E+02  0.00000000000E+00 0. -1.
         -3    1    3    3    0  502 -0.40287512919E+03 -0.37598350719E+03  0.30378081616E+03  0.62924935572E+03  0.00000000000E+00 0.  1.
         15    1    5    5    0    0  0.44502725440E+02  0.58950133045E+02 -0.18372761774E+02  0.76133611905E+02  0.17770000000E+01 0. -1.
        -15    1    5    5    0    0  0.19931599674E+03  0.44350185100E+03 -0.36982328328E+03  0.61089538956E+03  0.17770000000E+01 0.  1.
          4    1    6    6  503    0  0.55808830920E+02 -0.73519740810E+02 -0.23161903266E+03  0.24933341972E+03  0.00000000000E+00 0. -1.
         -4    1    6    6    0  503  0.12773326002E+03 -0.21548103463E+02 -0.20266414619E+03  0.24052622025E+03  0.00000000000E+00 0.  1.
<mgrwt>
<rscale>  0 0.68642097E+03</rscale>
<asrwt>0</asrwt>
<pdfrwt beam="1">  1        1 0.18212349E+00 0.68642097E+03</pdfrwt>
<pdfrwt beam="2">  1       -1 0.10188554E+00 0.68642097E+03</pdfrwt>
<totfact> 0.10468626E+01</totfact>
</mgrwt>
</event>
<event>
12    1  0.7781383E-008  0.8347193E+03  0.7818608E-02  0.9511079E-01
          2   -1    0    0  501    0  0.00000000000E+00  0.00000000000E+00  0.17456249156E+04  0.17456249156E+04  0.00000000000E+00 0. -1.
         -2   -1    0    0    0  501 -0.00000000000E+00 -0.00000000000E+00 -0.43385843253E+03  0.43385843253E+03  0.00000000000E+00 0.  1.
         23    2    1    2    0    0  0.30505028264E+02  0.72999651314E+03  0.30097976355E+03  0.79550593166E+03  0.91735507314E+02 0.  0.
    5000000    2    1    2    0    0 -0.30505028264E+02 -0.72999651314E+03  0.10107867195E+04  0.13839774164E+04  0.59989851725E+03 0.  0.
         23    2    4    4    0    0 -0.24083462395E+03 -0.10286029588E+03  0.31408647185E+03  0.41902896893E+03  0.91396982691E+02 0.  0.
         23    2    4    4    0    0  0.21032959568E+03 -0.62713621725E+03  0.69670024762E+03  0.96494844750E+03  0.90531196213E+02 0.  0.
          4    1    3    3  502    0 -0.10501675534E+02  0.20254721325E+03  0.44824036522E+02  0.20771339156E+03  0.00000000000E+00 0. -1.
         -4    1    3    3    0  502  0.41006703798E+02  0.52744929989E+03  0.25615572703E+03  0.58779254010E+03  0.00000000000E+00 0.  1.
         15    1    5    5    0    0 -0.15763412281E+03 -0.21404628257E+02  0.20477662888E+03  0.25931313166E+03  0.17770000000E+01 0.  1.
        -15    1    5    5    0    0 -0.83200501140E+02 -0.81455667626E+02  0.10930984297E+03  0.15971583728E+03  0.17770000000E+01 0. -1.
          3    1    6    6  503    0  0.31357167352E+01 -0.26178419396E+02  0.58577115150E+02  0.64237222704E+02  0.00000000000E+00 0. -1.
         -3    1    6    6    0  503  0.20719387895E+03 -0.60095779786E+03  0.63812313248E+03  0.90071122480E+03  0.00000000000E+00 0.  1.
<mgrwt>
<rscale>  0 0.83471927E+03</rscale>
<asrwt>0</asrwt>
<pdfrwt beam="1">  1        2 0.26855767E+00 0.83471927E+03</pdfrwt>
<pdfrwt beam="2">  1       -2 0.66747452E-01 0.83471927E+03</pdfrwt>
<totfact> 0.19413527E+01</totfact>
</mgrwt>
</event>
<event>
12    1  0.7781383E-008  0.5930197E+03  0.7818608E-02  0.9919995E-01
          1   -1    0    0  501    0  0.00000000000E+00  0.00000000000E+00  0.40024123291E+04  0.40024123291E+04  0.00000000000E+00 0. -1.
         -1   -1    0    0    0  501 -0.00000000000E+00 -0.00000000000E+00 -0.11105424455E+03  0.11105424455E+03  0.00000000000E+00 0.  1.
         23    2    1    2    0    0  0.82340001161E+02 -0.47654520538E+03  0.91420280575E+03  0.10381937240E+04  0.90577204646E+02 0.  0.
    5000000    2    1    2    0    0 -0.82340001161E+02  0.47654520538E+03  0.29771552788E+04  0.30752728497E+04  0.59997861380E+03 0.  0.
         23    2    4    4    0    0 -0.12200984875E+03 -0.61876173563E+02  0.13174784398E+04  0.13276007769E+04  0.89773712444E+02 0.  0.
         23    2    4    4    0    0  0.39669847591E+02  0.53842137895E+03  0.16596768390E+04  0.17476720727E+04  0.91428582853E+02 0.  0.
          4    1    3    3  502    0  0.28655876131E+02 -0.86160624686E+02  0.10999676619E+03  0.14263274889E+03  0.00000000000E+00 0.  1.
         -4    1    3    3    0  502  0.53684125030E+02 -0.39038458070E+03  0.80420603956E+03  0.89556097513E+03  0.00000000000E+00 0. -1.
         15    1    5    5    0    0 -0.16445416328E+02  0.17671697666E+02  0.38983132608E+03  0.39058207990E+03  0.17770000000E+01 0.  1.
        -15    1    5    5    0    0 -0.10556443242E+03 -0.79547871228E+02  0.92764711376E+03  0.93701869704E+03  0.17770000000E+01 0. -1.
          4    1    6    6  503    0 -0.92493607319E+01  0.83582980992E+01  0.18361708633E+02  0.22193786630E+02  0.00000000000E+00 0. -1.
         -4    1    6    6    0  503  0.48919208323E+02  0.53006308085E+03  0.16413151304E+04  0.17254782861E+04  0.00000000000E+00 0.  1.
<mgrwt>
<rscale>  0 0.59301972E+03</rscale>
<asrwt>0</asrwt>
<pdfrwt beam="1">  1        1 0.61575563E+00 0.59301972E+03</pdfrwt>
<pdfrwt beam="2">  1       -1 0.17085272E-01 0.59301972E+03</pdfrwt>
<totfact> 0.28886166E+00</totfact>
</mgrwt>
</event>
<event>
12    1  0.7781383E-008  0.1865141E+04  0.7818608E-02  0.8672405E-01
         -2   -1    0    0    0  501 -0.00000000000E+00  0.00000000000E+00  0.20993720531E+04  0.20993720531E+04  0.00000000000E+00 0.  1.
          2   -1    0    0  501    0  0.00000000000E+00 -0.00000000000E+00 -0.21210536760E+04  0.21210536760E+04  0.00000000000E+00 0. -1.
         23    2    1    2    0    0  0.24924033967E+03 -0.18235144169E+04 -0.95084128707E+03  0.20731341593E+04  0.80377320039E+02 0.  0.
    5000000    2    1    2    0    0 -0.24924033967E+03  0.18235144169E+04  0.92915966420E+03  0.21472915698E+04  0.60016483461E+03 0.  0.
         23    2    4    4    0    0  0.68475410129E+02  0.49291126209E+02  0.10397821540E+03  0.16284942018E+03  0.92682077344E+02 0.  0.
         23    2    4    4    0    0 -0.31771574980E+03  0.17742232907E+04  0.82518144880E+03  0.19844421497E+04  0.90965042325E+02 0.  0.
          4    1    3    3  502    0  0.62763932147E+02 -0.74849520184E+03 -0.38204435699E+03  0.84269939425E+03  0.00000000000E+00 0. -1.
         -4    1    3    3    0  502  0.18647640752E+03 -0.10750192151E+04 -0.56879693008E+03  0.12304347650E+04  0.00000000000E+00 0.  1.
         15    1    5    5    0    0  0.63458942536E+01  0.91434084880E+01 -0.17378791705E+02  0.20713580636E+02  0.17770000000E+01 0. -1.
        -15    1    5    5    0    0  0.62129515875E+02  0.40147717721E+02  0.12135700710E+03  0.14213583955E+03  0.17770000000E+01 0.  1.
          2    1    6    6  503    0 -0.26935030034E+03  0.14209612662E+04  0.62499373404E+03  0.15755309175E+04  0.00000000000E+00 0. -1.
         -2    1    6    6    0  503 -0.48365449459E+02  0.35326202449E+03  0.20018771476E+03  0.40891123217E+03  0.00000000000E+00 0.  1.
<mgrwt>
<rscale>  0 0.18651406E+04</rscale>
<asrwt>0</asrwt>
<pdfrwt beam="1">  1        2 0.32631595E+00 0.18651406E+04</pdfrwt>
<pdfrwt beam="2">  1       -2 0.32298032E+00 0.18651406E+04</pdfrwt>
<totfact> 0.11813798E-01</totfact>
</mgrwt>
</event>
<event>
12    1  0.7781383E-008  0.6378738E+03  0.7818608E-02  0.9829803E-01
         -1   -1    0    0    0  501 -0.00000000000E+00  0.00000000000E+00  0.82826803066E+03  0.82826803066E+03  0.00000000000E+00 0.  1.
          1   -1    0    0  501    0  0.00000000000E+00 -0.00000000000E+00 -0.51479034747E+03  0.51479034747E+03  0.00000000000E+00 0. -1.
         23    2    1    2    0    0  0.20814679011E+03  0.45901745389E+03  0.58294941234E+02  0.51895994141E+03  0.10908258984E+03 0.  0.
    5000000    2    1    2    0    0 -0.20814679011E+03 -0.45901745389E+03  0.25518274196E+03  0.82409843672E+03  0.59999824366E+03 0.  0.
         23    2    4    4    0    0  0.18678065854E+03 -0.25070158297E+03  0.12241596686E+03  0.34925754208E+03  0.96212596129E+02 0.  0.
         23    2    4    4    0    0 -0.39492744864E+03 -0.20831587093E+03  0.13276677510E+03  0.47484089463E+03  0.92106823160E+02 0.  0.
          2    1    3    3  502    0  0.81410887819E+02  0.21288540647E+03  0.79293372301E+02  0.24132005270E+03  0.00000000000E+00 0.  1.
         -2    1    3    3    0  502  0.12673590229E+03  0.24613204743E+03 -0.20998431067E+02  0.27763988872E+03  0.00000000000E+00 0. -1.
         15    1    5    5    0    0  0.71572764507E+02 -0.65908609775E+02  0.83098133594E+02  0.12796508507E+03  0.17770000000E+01 0. -1.
        -15    1    5    5    0    0  0.11520789403E+03 -0.18479297319E+03  0.39317833262E+02  0.22129245701E+03  0.17770000000E+01 0.  1.
          1    1    6    6  503    0 -0.10788113352E+03 -0.12905393152E+02  0.32532948181E+02  0.11341640472E+03  0.00000000000E+00 0. -1.
         -1    1    6    6    0  503 -0.28704631512E+03 -0.19541047778E+03  0.10023382692E+03  0.36142448991E+03  0.00000000000E+00 0.  1.
<mgrwt>
<rscale>  0 0.63787383E+03</rscale>
<asrwt>0</asrwt>
<pdfrwt beam="1">  1        1 0.79198515E-01 0.63787383E+03</pdfrwt>
<pdfrwt beam="2">  1       -1 0.12742585E+00 0.63787383E+03</pdfrwt>
<totfact> 0.23570600E+01</totfact>
</mgrwt>
</event>
<event>
12    1  0.7781383E-008  0.1309375E+04  0.7818608E-02  0.9022164E-01
         -1   -1    0    0    0  501 -0.00000000000E+00  0.00000000000E+00  0.30973124428E+04  0.30973124428E+04  0.00000000000E+00 0.  1.
          1   -1    0    0  501    0  0.00000000000E+00 -0.00000000000E+00 -0.56657998481E+03  0.56657998481E+03  0.00000000000E+00 0. -1.
         23    2    1    2    0    0 -0.62046063434E+03 -0.10812872592E+04  0.10012408617E+04  0.16014940464E+04  0.90257308948E+02 0.  0.
    5000000    2    1    2    0    0  0.62046063434E+03  0.10812872592E+04  0.15294915963E+04  0.20623983812E+04  0.59999083658E+03 0.  0.
         23    2    4    4    0    0  0.33508526723E+03  0.10202232712E+04  0.11976091536E+04  0.16111826974E+04  0.92218980157E+02 0.  0.
         23    2    4    4    0    0  0.28537536712E+03  0.61063988062E+02  0.33188244273E+03  0.45121568384E+03  0.91003993068E+02 0.  0.
          1    1    3    3  502    0 -0.22166107475E+03 -0.32975144001E+03  0.35928852892E+03  0.53568450721E+03  0.00000000000E+00 0. -1.
         -1    1    3    3    0  502 -0.39879955959E+03 -0.75153581920E+03  0.64195233276E+03  0.10658095392E+04  0.00000000000E+00 0.  1.
         15    1    5    5    0    0  0.23998902493E+03  0.66690415604E+03  0.73063375038E+03  0.10179315892E+04  0.17770000000E+01 0.  1.
        -15    1    5    5    0    0  0.95096242300E+02  0.35331911512E+03  0.46697540323E+03  0.59325110818E+03  0.17770000000E+01 0. -1.
          3    1    6    6  503    0  0.10287777026E+03 -0.19282036967E+01  0.17252680743E+03  0.20088069311E+03  0.00000000000E+00 0. -1.
         -3    1    6    6    0  503  0.18249759685E+03  0.62992191759E+02  0.15935563530E+03  0.25033499073E+03  0.00000000000E+00 0.  1.
<mgrwt>
<rscale>  0 0.13093747E+04</rscale>
<asrwt>0</asrwt>
<pdfrwt beam="1">  1        1 0.87166153E-01 0.13093747E+04</pdfrwt>
<pdfrwt beam="2">  1       -1 0.47650960E+00 0.13093747E+04</pdfrwt>
<totfact> 0.77629362E-02</totfact>
</mgrwt>
</event>
<event>
12    1  0.7781383E-008  0.5404973E+03  0.7818608E-02  0.1003718E+00
         -2   -1    0    0    0  501 -0.00000000000E+00  0.00000000000E+00  0.38034361113E+03  0.38034361113E+03  0.00000000000E+00 0.  1.
          2   -1    0    0  501    0  0.00000000000E+00 -0.00000000000E+00 -0.15003473531E+04  0.15003473531E+04  0.00000000000E+00 0. -1.
         23    2    1    2    0    0 -0.18358484252E+03  0.34138989232E+03  0.14840163479E+03  0.42496951530E+03  0.91244675151E+02 0.  0.
    5000000    2    1    2    0    0  0.18358484252E+03 -0.34138989232E+03 -0.12684053768E+04  0.14557214489E+04  0.60001856979E+03 0.  0.
         23    2    4    4    0    0  0.26274804536E+03  0.64592062570E+02 -0.43934817103E+03  0.52463749179E+03  0.94915818036E+02 0.  0.
         23    2    4    4    0    0 -0.79163202846E+02 -0.40598195489E+03 -0.82905720575E+03  0.93108395716E+03  0.92159234430E+02 0.  0.
          1    1    3    3  502    0 -0.81116746887E+02  0.21529106458E+03  0.12181865679E+03  0.26032662994E+03  0.00000000000E+00 0. -1.
         -1    1    3    3    0  502 -0.10246809563E+03  0.12609882774E+03  0.26582977998E+02  0.16464288535E+03  0.00000000000E+00 0.  1.
         15    1    5    5    0    0  0.10545009254E+03  0.38207633054E+02 -0.26805567850E+03  0.29057967882E+03  0.17770000000E+01 0. -1.
        -15    1    5    5    0    0  0.15729795283E+03  0.26384429515E+02 -0.17129249253E+03  0.23405781297E+03  0.17770000000E+01 0.  1.
          4    1    6    6  503    0 -0.53669928681E+02 -0.14622475167E+03 -0.23164278795E+03  0.27914247340E+03  0.00000000000E+00 0.  1.
         -4    1    6    6    0  503 -0.25493274165E+02 -0.25975720322E+03 -0.59741441780E+03  0.65194148376E+03  0.00000000000E+00 0. -1.
<mgrwt>
<rscale>  0 0.54049725E+03</rscale>
<asrwt>0</asrwt>
<pdfrwt beam="1">  1        2 0.23082267E+00 0.54049725E+03</pdfrwt>
<pdfrwt beam="2">  1       -2 0.58514401E-01 0.54049725E+03</pdfrwt>
<totfact> 0.36426865E+01</totfact>
</mgrwt>
</event>
<event>
12    1  0.7781383E-008  0.5143059E+03  0.7818608E-02  0.1010111E+00
          2   -1    0    0  501    0  0.00000000000E+00  0.00000000000E+00  0.12008206636E+04  0.12008206636E+04  0.00000000000E+00 0. -1.
         -2   -1    0    0    0  501 -0.00000000000E+00 -0.00000000000E+00 -0.27603855434E+03  0.27603855434E+03  0.00000000000E+00 0.  1.
         23    2    1    2    0    0  0.17382445096E+03 -0.30923763737E+03  0.61145114708E+03  0.71261768398E+03  0.90047776962E+02 0.  0.
    5000000    2    1    2    0    0 -0.17382445096E+03  0.30923763737E+03  0.31333096216E+03  0.76424153394E+03  0.60003831063E+03 0.  0.
         23    2    4    4    0    0  0.17557810758E+03 -0.12561154219E+02  0.17318041152E+03  0.26257591929E+03  0.89270398235E+02 0.  0.
         23    2    4    4    0    0 -0.34940255854E+03  0.32179879159E+03  0.14015055064E+03  0.50166561464E+03  0.79934985330E+02 0.  0.
          1    1    3    3  502    0  0.45549807262E+02 -0.64317289378E+02  0.21742542774E+03  0.23126892416E+03  0.00000000000E+00 0. -1.
         -1    1    3    3    0  502  0.12827464370E+03 -0.24492034800E+03  0.39402571934E+03  0.48134875982E+03  0.00000000000E+00 0.  1.
         15    1    5    5    0    0  0.97493625189E+02 -0.44660665356E+02  0.12735526804E+03  0.16649956159E+03  0.17770000000E+01 0. -1.
        -15    1    5    5    0    0  0.78084482393E+02  0.32099511137E+02  0.45825143479E+02  0.96076357704E+02  0.17770000000E+01 0.  1.
          3    1    6    6  503    0 -0.95879885691E+02  0.13988444367E+03  0.53300064481E+02  0.17776812688E+03  0.00000000000E+00 0. -1.
         -3    1    6    6    0  503 -0.25352267285E+03  0.18191434792E+03  0.86850486163E+02  0.32389748776E+03  0.00000000000E+00 0.  1.
<mgrwt>
<rscale>  0 0.51430585E+03</rscale>
<asrwt>0</asrwt>
<pdfrwt beam="1">  1        2 0.18474164E+00 0.51430585E+03</pdfrwt>
<pdfrwt beam="2">  1       -2 0.42467470E-01 0.51430585E+03</pdfrwt>
<totfact> 0.10325508E+02</totfact>
</mgrwt>
</event>
<event>
12    1  0.7781383E-008  0.3108755E+03  0.7818608E-02  0.1079927E+00
          2   -1    0    0  501    0  0.00000000000E+00  0.00000000000E+00  0.12114460362E+04  0.12114460362E+04  0.00000000000E+00 0. -1.
         -2   -1    0    0    0  501 -0.00000000000E+00 -0.00000000000E+00 -0.14902332927E+03  0.14902332927E+03  0.00000000000E+00 0.  1.
         23    2    1    2    0    0 -0.14888308516E+03 -0.35168467859E+02  0.47291340450E+03  0.50551921378E+03  0.92193238180E+02 0.  0.
    5000000    2    1    2    0    0  0.14888308516E+03  0.35168467859E+02  0.58950930239E+03  0.85495015166E+03  0.60001295822E+03 0.  0.
         23    2    4    4    0    0 -0.15127887969E+03 -0.28451107786E+02 -0.66405117311E+01  0.17846599507E+03  0.90062478451E+02 0.  0.
         23    2    4    4    0    0  0.30016196486E+03  0.63619575645E+02  0.59614981412E+03  0.67648415658E+03  0.89953085980E+02 0.  0.
          2    1    3    3  502    0 -0.11929113490E+02 -0.10673277711E+02  0.18564144189E+03  0.18633026472E+03  0.00000000000E+00 0. -1.
         -2    1    3    3    0  502 -0.13695397167E+03 -0.24495190148E+02  0.28727196262E+03  0.31918894906E+03  0.00000000000E+00 0.  1.
         15    1    5    5    0    0 -0.98924177545E+02 -0.21533449607E+02  0.39134959229E+02  0.10855590780E+03  0.17770000000E+01 0.  1.
        -15    1    5    5    0    0 -0.52354702150E+02 -0.69176581790E+01 -0.45775470961E+02  0.69910087273E+02  0.17770000000E+01 0. -1.
          2    1    6    6  503    0  0.11197282133E+03  0.53400369430E+02  0.16936164553E+03  0.20993541661E+03  0.00000000000E+00 0. -1.
         -2    1    6    6    0  503  0.18818914353E+03  0.10219206215E+02  0.42678816859E+03  0.46654873997E+03  0.00000000000E+00 0.  1.
<mgrwt>
<rscale>  0 0.31087553E+03</rscale>
<asrwt>0</asrwt>
<pdfrwt beam="1">  1        2 0.18637631E+00 0.31087553E+03</pdfrwt>
<pdfrwt beam="2">  1       -2 0.22926667E-01 0.31087553E+03</pdfrwt>
<totfact> 0.32673899E+02</totfact>
</mgrwt>
</event>
<event>
12    1  0.7781383E-008  0.6937922E+03  0.7818608E-02  0.9727908E-01
          1   -1    0    0  501    0  0.00000000000E+00  0.00000000000E+00  0.94112550992E+03  0.94112550992E+03  0.00000000000E+00 0. -1.
         -1   -1    0    0    0  501 -0.00000000000E+00 -0.00000000000E+00 -0.52883531195E+03  0.52883531195E+03  0.00000000000E+00 0.  1.
         23    2    1    2    0    0 -0.48923705989E+03  0.29357357745E+03  0.10683421877E+03  0.58754168266E+03  0.90847853102E+02 0.  0.
    5000000    2    1    2    0    0  0.48923705989E+03 -0.29357357745E+03  0.30545597919E+03  0.88241913921E+03  0.59985151152E+03 0.  0.
         23    2    4    4    0    0 -0.81577719249E+02  0.59342810221E+02 -0.75931497213E+01  0.13689700737E+03  0.92231455054E+02 0.  0.
         23    2    4    4    0    0  0.57081477914E+03 -0.35291638767E+03  0.31304912892E+03  0.74552213184E+03  0.86162655370E+02 0.  0.
          4    1    3    3  502    0 -0.36221142827E+03  0.16895522257E+03  0.79468844715E+02  0.40750249482E+03  0.00000000000E+00 0. -1.
         -4    1    3    3    0  502 -0.12702563163E+03  0.12461835487E+03  0.27365374052E+02  0.18003918784E+03  0.00000000000E+00 0.  1.
         15    1    5    5    0    0 -0.37068992025E+02 -0.21160730952E+02 -0.13221060315E+02  0.44719580376E+02  0.17770000000E+01 0. -1.
        -15    1    5    5    0    0 -0.44508727224E+02  0.80503541173E+02  0.56279105940E+01  0.92177426994E+02  0.17770000000E+01 0.  1.
          3    1    6    6  503    0  0.28963179162E+03 -0.13530191699E+03  0.17199715035E+03  0.36300992161E+03  0.00000000000E+00 0. -1.
         -3    1    6    6    0  503  0.28118298752E+03 -0.21761447068E+03  0.14105197857E+03  0.38251221023E+03  0.00000000000E+00 0.  1.
<mgrwt>
<rscale>  0 0.69379220E+03</rscale>
<asrwt>0</asrwt>
<pdfrwt beam="1">  1        1 0.14478854E+00 0.69379220E+03</pdfrwt>
<pdfrwt beam="2">  1       -1 0.81359279E-01 0.69379220E+03</pdfrwt>
<totfact> 0.26216731E+01</totfact>
</mgrwt>
</event>
<event>
12    1  0.7781383E-008  0.5020992E+03  0.7818608E-02  0.1013232E+00
         -2   -1    0    0    0  501 -0.00000000000E+00  0.00000000000E+00  0.82098093453E+03  0.82098093453E+03  0.00000000000E+00 0.  1.
          2   -1    0    0  501    0  0.00000000000E+00 -0.00000000000E+00 -0.11372544466E+04  0.11372544466E+04  0.00000000000E+00 0. -1.
         23    2    1    2    0    0 -0.38957650192E+03 -0.26984135940E+03  0.59670155105E+03  0.76739603179E+03  0.90882993398E+02 0.  0.
    5000000    2    1    2    0    0  0.38957650192E+03  0.26984135940E+03 -0.91297506313E+03  0.11908393493E+04  0.59999223326E+03 0.  0.
         23    2    4    4    0    0  0.35297388069E+03  0.23977540556E+03 -0.21560518604E+03  0.48659692354E+03  0.90598919393E+02 0.  0.
         23    2    4    4    0    0  0.36602621235E+02  0.30065953842E+02 -0.69736987709E+03  0.70424242581E+03  0.85958916745E+02 0.  0.
          2    1    3    3  502    0 -0.18942109030E+03 -0.13855857918E+03  0.22388722439E+03  0.32435215208E+03  0.00000000000E+00 0. -1.
         -2    1    3    3    0  502 -0.20015541162E+03 -0.13128278022E+03  0.37281432666E+03  0.44304387971E+03  0.00000000000E+00 0.  1.
         15    1    5    5    0    0  0.13348386589E+03  0.40211358867E+02 -0.63066832611E+02  0.15302117154E+03  0.17770000000E+01 0.  1.
        -15    1    5    5    0    0  0.21949001480E+03  0.19956404669E+03 -0.15253835343E+03  0.33357575200E+03  0.17770000000E+01 0. -1.
          4    1    6    6  503    0  0.30976755191E+02  0.57901056349E+02 -0.38262003009E+03  0.38821408928E+03  0.00000000000E+00 0. -1.
         -4    1    6    6    0  503  0.56258660445E+01 -0.27835102507E+02 -0.31474984701E+03  0.31602833653E+03  0.00000000000E+00 0.  1.
<mgrwt>
<rscale>  0 0.50209921E+03</rscale>
<asrwt>0</asrwt>
<pdfrwt beam="1">  1        2 0.17496222E+00 0.50209921E+03</pdfrwt>
<pdfrwt beam="2">  1       -2 0.12630476E+00 0.50209921E+03</pdfrwt>
<totfact> 0.10215907E+01</totfact>
</mgrwt>
</event>
<event>
12    1  0.7781383E-008  0.6120319E+03  0.7818608E-02  0.9880753E-01
          1   -1    0    0  501    0  0.00000000000E+00  0.00000000000E+00  0.32348736060E+04  0.32348736060E+04  0.00000000000E+00 0. -1.
         -1   -1    0    0    0  501 -0.00000000000E+00 -0.00000000000E+00 -0.17131639850E+03  0.17131639850E+03  0.00000000000E+00 0.  1.
         23    2    1    2    0    0 -0.20025429878E+03  0.55832429723E+03  0.88308763939E+03  0.10681935207E+04  0.96777134653E+02 0.  0.
    5000000    2    1    2    0    0  0.20025429878E+03 -0.55832429723E+03  0.21804695681E+04  0.23379964837E+04  0.59996017845E+03 0.  0.
         23    2    4    4    0    0  0.10933896597E+03 -0.40298455089E+03  0.20567720151E+04  0.21007186858E+04  0.91412894681E+02 0.  0.
         23    2    4    4    0    0  0.90915332809E+02 -0.15533974634E+03  0.12369755299E+03  0.23727779791E+03  0.92755777350E+02 0.  0.
          1    1    3    3  502    0 -0.14747604205E+03  0.28001115187E+03  0.43154731008E+03  0.53515279032E+03  0.00000000000E+00 0. -1.
         -1    1    3    3    0  502 -0.52778256728E+02  0.27831314536E+03  0.45154032931E+03  0.53304073039E+03  0.00000000000E+00 0.  1.
         15    1    5    5    0    0 -0.81755085558E-01  0.28340436207E+01  0.64752323576E+02  0.64838720103E+02  0.17770000000E+01 0. -1.
        -15    1    5    5    0    0  0.10942072105E+03 -0.40581859451E+03  0.19920196915E+04  0.20358799657E+04  0.17770000000E+01 0.  1.
          2    1    6    6  503    0  0.48298147900E+02 -0.10166552292E+02  0.17249037916E+02  0.52283832923E+02  0.00000000000E+00 0. -1.
         -2    1    6    6    0  503  0.42617184909E+02 -0.14517319405E+03  0.10644851507E+03  0.18499396499E+03  0.00000000000E+00 0.  1.
<mgrwt>
<rscale>  0 0.61203187E+03</rscale>
<asrwt>0</asrwt>
<pdfrwt beam="1">  1        1 0.49767282E+00 0.61203187E+03</pdfrwt>
<pdfrwt beam="2">  1       -1 0.26356371E-01 0.61203187E+03</pdfrwt>
<totfact> 0.56393903E+00</totfact>
</mgrwt>
</event>
<event>
12    1  0.7781383E-008  0.7583624E+03  0.7818608E-02  0.9622322E-01
         -1   -1    0    0    0  501 -0.00000000000E+00  0.00000000000E+00  0.14154463642E+04  0.14154463642E+04  0.00000000000E+00 0.  1.
          1   -1    0    0  501    0  0.00000000000E+00 -0.00000000000E+00 -0.55886779837E+03  0.55886779837E+03  0.00000000000E+00 0. -1.
         23    2    1    2    0    0 -0.21902822081E+02 -0.66567449082E+03  0.84100655663E+03  0.10778411789E+04  0.10415045492E+03 0.  0.
    5000000    2    1    2    0    0  0.21902822081E+02  0.66567449082E+03  0.15572009173E+02  0.89647298365E+03  0.59984919905E+03 0.  0.
         23    2    4    4    0    0 -0.16432125538E+03  0.61439716788E+03  0.12802768809E+03  0.65524619963E+03  0.92038787126E+02 0.  0.
         23    2    4    4    0    0  0.18622407746E+03  0.51277322938E+02 -0.11245567892E+03  0.24122678402E+03  0.90748612868E+02 0.  0.
          1    1    3    3  502    0  0.41930861166E+02 -0.24339548959E+03  0.31573545467E+03  0.40085962481E+03  0.00000000000E+00 0. -1.
         -1    1    3    3    0  502 -0.63833683247E+02 -0.42227900123E+03  0.52527110196E+03  0.67698155407E+03  0.00000000000E+00 0.  1.
         15    1    5    5    0    0 -0.16206556136E+03  0.54559422966E+03  0.88947442803E+02  0.57606693615E+03  0.17770000000E+01 0. -1.
        -15    1    5    5    0    0 -0.22556940149E+01  0.68802938226E+02  0.39080245287E+02  0.79179263477E+02  0.17770000000E+01 0.  1.
          2    1    6    6  503    0  0.15694716984E+03  0.14466843724E+02 -0.11342595484E+03  0.19418329207E+03  0.00000000000E+00 0. -1.
         -2    1    6    6    0  503  0.29276907613E+02  0.36810479214E+02  0.97027592476E+00  0.47043491949E+02  0.00000000000E+00 0.  1.
<mgrwt>
<rscale>  0 0.75836237E+03</rscale>
<asrwt>0</asrwt>
<pdfrwt beam="1">  1        1 0.85979662E-01 0.75836237E+03</pdfrwt>
<pdfrwt beam="2">  1       -1 0.21776098E+00 0.75836237E+03</pdfrwt>
<totfact> 0.44782498E+00</totfact>
</mgrwt>
</event>
<event>
12    1  0.7781383E-008  0.1728954E+04  0.7818608E-02  0.8745021E-01
         -1   -1    0    0    0  501 -0.00000000000E+00  0.00000000000E+00  0.21055162124E+04  0.21055162124E+04  0.00000000000E+00 0.  1.
          1   -1    0    0  501    0  0.00000000000E+00 -0.00000000000E+00 -0.14433171114E+04  0.14433171114E+04  0.00000000000E+00 0. -1.
         23    2    1    2    0    0 -0.48175009987E+02  0.16887363007E+04  0.37634056396E+03  0.17333521708E+04  0.93415219418E+02 0.  0.
    5000000    2    1    2    0    0  0.48175009987E+02 -0.16887363007E+04  0.28585853704E+03  0.18154811529E+04  0.60008798405E+03 0.  0.
         23    2    4    4    0    0 -0.22349533331E+03 -0.10076086672E+04  0.29252006929E+03  0.10766604535E+04  0.91675247098E+02 0.  0.
         23    2    4    4    0    0  0.27167034329E+03 -0.68112763343E+03 -0.66615322510E+01  0.73882069939E+03  0.89844428830E+02 0.  0.
          4    1    3    3  502    0 -0.55015492373E+02  0.64961742519E+03  0.17294681579E+03  0.67449247928E+03  0.00000000000E+00 0.  1.
         -4    1    3    3    0  502  0.68404823859E+01  0.10391188755E+04  0.20339374818E+03  0.10588596915E+04  0.00000000000E+00 0. -1.
         15    1    5    5    0    0 -0.11049421968E+03 -0.49011704246E+03  0.94883562051E+02  0.51130200074E+03  0.17770000000E+01 0. -1.
        -15    1    5    5    0    0 -0.11300111363E+03 -0.51749162477E+03  0.19763650724E+03  0.56535845277E+03  0.17770000000E+01 0.  1.
          4    1    6    6  503    0  0.10612570309E+03 -0.20892562757E+03 -0.38292092357E+02  0.23744234469E+03  0.00000000000E+00 0. -1.
         -4    1    6    6    0  503  0.16554464021E+03 -0.47220200586E+03  0.31630560106E+02  0.50137835471E+03  0.00000000000E+00 0.  1.
<mgrwt>
<rscale>  0 0.17289539E+04</rscale>
<asrwt>0</asrwt>
<pdfrwt beam="1">  1        1 0.22204879E+00 0.17289539E+04</pdfrwt>
<pdfrwt beam="2">  1       -1 0.32392557E+00 0.17289539E+04</pdfrwt>
<totfact> 0.15250475E-01</totfact>
</mgrwt>
</event>
<event>
12    1  0.7781383E-008  0.1621437E+04  0.7818608E-02  0.8807486E-01
          2   -1    0    0  501    0  0.00000000000E+00  0.00000000000E+00  0.38430647920E+04  0.38430647920E+04  0.00000000000E+00 0. -1.
         -2   -1    0    0    0  501 -0.00000000000E+00 -0.00000000000E+00 -0.18262302040E+04  0.18262302040E+04  0.00000000000E+00 0.  1.
         23    2    1    2    0    0  0.15288454909E+04  0.47710659451E+03  0.32069582117E+04  0.35857040401E+04  0.87711199477E+02 0.  0.
    5000000    2    1    2    0    0 -0.15288454909E+04 -0.47710659451E+03 -0.11901236237E+04  0.20835909559E+04  0.59996482765E+03 0.  0.
         23    2    4    4    0    0 -0.13828025588E+04 -0.32721911843E+03 -0.11881951670E+04  0.18545385586E+04  0.91050769332E+02 0.  0.
         23    2    4    4    0    0 -0.14604293211E+03 -0.14988747607E+03 -0.19284567178E+01  0.22905239729E+03  0.93093975411E+02 0.  0.
          2    1    3    3  502    0  0.27578614105E+03  0.11417179950E+03  0.64545425689E+03  0.71112895676E+03  0.00000000000E+00 0. -1.
         -2    1    3    3    0  502  0.12530593498E+04  0.36293479500E+03  0.25615039548E+04  0.28745750834E+04  0.00000000000E+00 0.  1.
         15    1    5    5    0    0 -0.16975191575E+03 -0.10776446446E+02 -0.15093572512E+03  0.22741283065E+03  0.17770000000E+01 0. -1.
        -15    1    5    5    0    0 -0.12130506430E+04 -0.31644267199E+03 -0.10372594419E+04  0.16271257280E+04  0.17770000000E+01 0.  1.
          3    1    6    6  503    0 -0.10999555822E+03 -0.14122054702E+03 -0.31342506221E+02  0.18172676860E+03  0.00000000000E+00 0. -1.
         -3    1    6    6    0  503 -0.36047373884E+02 -0.86669290573E+01  0.29414049503E+02  0.47325628695E+02  0.00000000000E+00 0.  1.
<mgrwt>
<rscale>  0 0.16214370E+04</rscale>
<asrwt>0</asrwt>
<pdfrwt beam="1">  1        2 0.59124073E+00 0.16214370E+04</pdfrwt>
<pdfrwt beam="2">  1       -2 0.28095849E+00 0.16214370E+04</pdfrwt>
<totfact> 0.17653749E-02</totfact>
</mgrwt>
</event>
<event>
12    1  0.7781383E-008  0.6261832E+03  0.7818608E-02  0.9852525E-01
          2   -1    0    0  501    0  0.00000000000E+00  0.00000000000E+00  0.20500421373E+04  0.20500421373E+04  0.00000000000E+00 0. -1.
         -2   -1    0    0    0  501 -0.00000000000E+00 -0.00000000000E+00 -0.34373955828E+03  0.34373955828E+03  0.00000000000E+00 0.  1.
         23    2    1    2    0    0  0.43339284046E+03 -0.24631894543E+03 -0.11964247418E+02  0.50672193324E+03  0.90119905511E+02 0.  0.
    5000000    2    1    2    0    0 -0.43339284046E+03  0.24631894543E+03  0.17182668264E+04  0.18870597623E+04  0.60004273412E+03 0.  0.
         23    2    4    4    0    0  0.46627990173E+02 -0.11611589546E+03  0.52880737903E+03  0.55099775532E+03  0.91127447062E+02 0.  0.
         23    2    4    4    0    0 -0.48002083063E+03  0.36243484089E+03  0.11894594474E+04  0.13360620070E+04  0.92026614861E+02 0.  0.
          2    1    3    3  502    0  0.41029828780E+03 -0.20471639525E+03 -0.44930174093E+01  0.45855607581E+03  0.00000000000E+00 0. -1.
         -2    1    3    3    0  502  0.23094552661E+02 -0.41602550183E+02 -0.74712300085E+01  0.48165857432E+02  0.00000000000E+00 0.  1.
         15    1    5    5    0    0  0.45915272756E+02 -0.37950934985E+02  0.36078348492E+03  0.36567248524E+03  0.17770000000E+01 0. -1.
        -15    1    5    5    0    0  0.71271741697E+00 -0.78164960471E+02  0.16802389411E+03  0.18532527008E+03  0.17770000000E+01 0.  1.
          2    1    6    6  503    0 -0.45170190645E+02  0.73849272938E+02  0.17247411321E+03  0.19298026055E+03  0.00000000000E+00 0. -1.
         -2    1    6    6    0  503 -0.43485063999E+03  0.28858556795E+03  0.10169853342E+04  0.11430817464E+04  0.00000000000E+00 0.  1.
<mgrwt>
<rscale>  0 0.62618324E+03</rscale>
<asrwt>0</asrwt>
<pdfrwt beam="1">  1        2 0.31539109E+00 0.62618324E+03</pdfrwt>
<pdfrwt beam="2">  1       -2 0.52883010E-01 0.62618324E+03</pdfrwt>
<totfact> 0.22282096E+01</totfact>
</mgrwt>
</event>
<event>
12    1  0.7781383E-008  0.3605742E+03  0.7818608E-02  0.1058357E+00
         -2   -1    0    0    0  501 -0.00000000000E+00  0.00000000000E+00  0.67595165812E+02  0.67595165812E+02  0.00000000000E+00 0.  1.
          2   -1    0    0  501    0  0.00000000000E+00 -0.00000000000E+00 -0.32005667739E+04  0.32005667739E+04  0.00000000000E+00 0. -1.
         23    2    1    2    0    0 -0.20727826652E+03  0.14488281252E+03 -0.71541815694E+03  0.76441648170E+03  0.92488426755E+02 0.  0.
    5000000    2    1    2    0    0  0.20727826652E+03 -0.14488281252E+03 -0.24175534512E+04  0.25037454580E+04  0.60018440517E+03 0.  0.
         23    2    4    4    0    0  0.19085177109E+03 -0.24993051169E+03 -0.62121372073E+03  0.70226164441E+03  0.91516507713E+02 0.  0.
         23    2    4    4    0    0  0.16426495435E+02  0.10504769918E+03 -0.17963397304E+04  0.18014838136E+04  0.84868455422E+02 0.  0.
          1    1    3    3  502    0 -0.36721501772E+02 -0.10589176606E+02 -0.11421543101E+03  0.12043987726E+03  0.00000000000E+00 0. -1.
         -1    1    3    3    0  502 -0.17055676475E+03  0.15547198912E+03 -0.60120272593E+03  0.64397660444E+03  0.00000000000E+00 0.  1.
         15    1    5    5    0    0  0.91178083779E+02 -0.18606892914E+03 -0.35793455874E+03  0.41358843724E+03  0.17770000000E+01 0. -1.
        -15    1    5    5    0    0  0.99673687311E+02 -0.63861582552E+02 -0.26327916199E+03  0.28867320717E+03  0.17770000000E+01 0.  1.
          1    1    6    6  503    0  0.40165118967E+02  0.37524812619E+02 -0.11244233311E+04  0.11257660395E+04  0.00000000000E+00 0. -1.
         -1    1    6    6    0  503 -0.23738623532E+02  0.67522886557E+02 -0.67191639937E+03  0.67571777407E+03  0.00000000000E+00 0.  1.
<mgrwt>
<rscale>  0 0.36057423E+03</rscale>
<asrwt>0</asrwt>
<pdfrwt beam="1">  1        2 0.49239473E+00 0.36057423E+03</pdfrwt>
<pdfrwt beam="2">  1       -2 0.10399260E-01 0.36057423E+03</pdfrwt>
<totfact> 0.95592209E+01</totfact>
</mgrwt>
</event>
<event>
12    1  0.7781383E-008  0.1070373E+04  0.7818608E-02  0.9234559E-01
         -1   -1    0    0    0  501 -0.00000000000E+00  0.00000000000E+00  0.65377739973E+03  0.65377739973E+03  0.00000000000E+00 0.  1.
          1   -1    0    0  501    0  0.00000000000E+00 -0.00000000000E+00 -0.19795700632E+04  0.19795700632E+04  0.00000000000E+00 0. -1.
         23    2    1    2    0    0 -0.10020044348E+04 -0.24198569420E+03 -0.88529908605E+03  0.13619155990E+04  0.92139369013E+02 0.  0.
    5000000    2    1    2    0    0  0.10020044348E+04  0.24198569420E+03 -0.44049357741E+03  0.12714318639E+04  0.59994535525E+03 0.  0.
         23    2    4    4    0    0  0.39636442821E+03  0.29881126463E+03  0.17545547594E+02  0.50438861588E+03  0.87790077864E+02 0.  0.
         23    2    4    4    0    0  0.60564000663E+03 -0.56825570428E+02 -0.45803912501E+03  0.76704324807E+03  0.92339272711E+02 0.  0.
          3    1    3    3  502    0 -0.61980846246E+03 -0.15040230680E+03 -0.60582832602E+03  0.87966547314E+03  0.00000000000E+00 0. -1.
         -3    1    3    3    0  502 -0.38219597238E+03 -0.91583387403E+02 -0.27947076003E+03  0.48225012583E+03  0.00000000000E+00 0.  1.
         15    1    5    5    0    0  0.53495537855E+02  0.18859456461E+02  0.24195220783E+02  0.61692934005E+02  0.17770000000E+01 0. -1.
        -15    1    5    5    0    0  0.34286889035E+03  0.27995180817E+03 -0.66496731890E+01  0.44269568188E+03  0.17770000000E+01 0.  1.
          3    1    6    6  503    0  0.59042259137E+02  0.99585343611E+01 -0.19115430568E+02  0.62853484044E+02  0.00000000000E+00 0. -1.
         -3    1    6    6    0  503  0.54659774749E+03 -0.66784104789E+02 -0.43892369444E+03  0.70418976402E+03  0.00000000000E+00 0.  1.
<mgrwt>
<rscale>  0 0.10703731E+04</rscale>
<asrwt>0</asrwt>
<pdfrwt beam="1">  1        1 0.30454925E+00 0.10703731E+04</pdfrwt>
<pdfrwt beam="2">  1       -1 0.10058114E+00 0.10703731E+04</pdfrwt>
<totfact> 0.28979375E+00</totfact>
</mgrwt>
</event>
<event>
12    1  0.7781383E-008  0.9551092E+03  0.7818608E-02  0.9359199E-01
          2   -1    0    0  501    0  0.00000000000E+00  0.00000000000E+00  0.11789952828E+04  0.11789952828E+04  0.00000000000E+00 0.  1.
         -2   -1    0    0    0  501 -0.00000000000E+00 -0.00000000000E+00 -0.87715876309E+03  0.87715876309E+03  0.00000000000E+00 0. -1.
         23    2    1    2    0    0  0.42656823370E+03 -0.77578194977E+03 -0.13653584220E+03  0.90032310639E+03  0.90230638409E+02 0.  0.
    5000000    2    1    2    0    0 -0.42656823370E+03  0.77578194977E+03  0.43837236190E+03  0.11558309395E+04  0.59998061753E+03 0.  0.
         23    2    4    4    0    0 -0.25784294223E+03  0.41202464037E+02 -0.36822439514E+01  0.27727921580E+03  0.93217909728E+02 0.  0.
         23    2    4    4    0    0 -0.16872529147E+03  0.73457948574E+03  0.44205460585E+03  0.87855172369E+03  0.91463718512E+02 0.  0.
          2    1    3    3  502    0  0.26770254101E+03 -0.57098292456E+03 -0.10268575604E+03  0.63892919412E+03  0.00000000000E+00 0. -1.
         -2    1    3    3    0  502  0.15886569269E+03 -0.20479902521E+03 -0.33850086159E+02  0.26139391228E+03  0.00000000000E+00 0.  1.
         15    1    5    5    0    0 -0.84022230744E+02  0.29115046729E+02 -0.42783333104E+02  0.98696466632E+02  0.17770000000E+01 0.  1.
        -15    1    5    5    0    0 -0.17382071148E+03  0.12087417308E+02  0.39101089152E+02  0.17858274917E+03  0.17770000000E+01 0. -1.
          1    1    6    6  503    0 -0.12544600244E+03  0.38402463768E+03  0.20377187722E+03  0.45247607652E+03  0.00000000000E+00 0. -1.
         -1    1    6    6    0  503 -0.43279289036E+02  0.35055484805E+03  0.23828272863E+03  0.42607564717E+03  0.00000000000E+00 0.  1.
<mgrwt>
<rscale>  0 0.95510921E+03</rscale>
<asrwt>0</asrwt>
<pdfrwt beam="1">  1        2 0.18138389E+00 0.95510921E+03</pdfrwt>
<pdfrwt beam="2">  1       -2 0.13494750E+00 0.95510921E+03</pdfrwt>
<totfact> 0.76715886E+00</totfact>
</mgrwt>
</event>
<event>
12    1  0.7781383E-008  0.8545190E+03  0.7818608E-02  0.9484292E-01
          2   -1    0    0  501    0  0.00000000000E+00  0.00000000000E+00  0.97927375507E+03  0.97927375507E+03  0.00000000000E+00 0. -1.
         -2   -1    0    0    0  501 -0.00000000000E+00 -0.00000000000E+00 -0.80993222182E+03  0.80993222182E+03  0.00000000000E+00 0.  1.
         23    2    1    2    0    0 -0.52652562044E+03  0.55863737824E+03 -0.95776506542E+02  0.77926113545E+03  0.93647363368E+02 0.  0.
    5000000    2    1    2    0    0  0.52652562044E+03 -0.55863737824E+03  0.26511803979E+03  0.10099448414E+04  0.60032995791E+03 0.  0.
         23    2    4    4    0    0 -0.36772538581E+02 -0.32030281633E+03 -0.70838820785E+01  0.33431327305E+03  0.88142324719E+02 0.  0.
         23    2    4    4    0    0  0.56329815902E+03 -0.23833456191E+03  0.27220192187E+03  0.67563156839E+03  0.90972251683E+02 0.  0.
          2    1    3    3  502    0 -0.21518977518E+03  0.24972192067E+03 -0.85492069289E+02  0.34055333051E+03  0.00000000000E+00 0. -1.
         -2    1    3    3    0  502 -0.31133584526E+03  0.30891545757E+03 -0.10284437253E+02  0.43870780494E+03  0.00000000000E+00 0.  1.
         15    1    5    5    0    0 -0.14069850479E+02 -0.27135088596E+03  0.22674604829E+02  0.27266565504E+03  0.17770000000E+01 0.  1.
        -15    1    5    5    0    0 -0.22702688102E+02 -0.48951930365E+02 -0.29758486908E+02  0.61647618004E+02  0.17770000000E+01 0. -1.
          3    1    6    6  503    0  0.18733090842E+03 -0.46519022965E+02  0.11823133679E+03  0.22635268442E+03  0.00000000000E+00 0. -1.
         -3    1    6    6    0  503  0.37596725061E+03 -0.19181553895E+03  0.15397058507E+03  0.44927888397E+03  0.00000000000E+00 0.  1.
<mgrwt>
<rscale>  0 0.85451896E+03</rscale>
<asrwt>0</asrwt>
<pdfrwt beam="1">  1        2 0.15065750E+00 0.85451896E+03</pdfrwt>
<pdfrwt beam="2">  1       -2 0.12460496E+00 0.85451896E+03</pdfrwt>
<totfact> 0.12626139E+01</totfact>
</mgrwt>
</event>
<event>
12    1  0.7781383E-008  0.1260845E+04  0.7818608E-02  0.9061205E-01
         -2   -1    0    0    0  501 -0.00000000000E+00  0.00000000000E+00  0.15383040132E+04  0.15383040132E+04  0.00000000000E+00 0.  1.
          2   -1    0    0  501    0  0.00000000000E+00 -0.00000000000E+00 -0.17378722578E+04  0.17378722578E+04  0.00000000000E+00 0. -1.
         23    2    1    2    0    0  0.97992908161E+02  0.12513264111E+04 -0.10556643023E+04  0.16427057292E+04  0.92922528278E+02 0.  0.
    5000000    2    1    2    0    0 -0.97992908161E+02 -0.12513264111E+04  0.85609605770E+03  0.16334705418E+04  0.59992095617E+03 0.  0.
         23    2    4    4    0    0 -0.10366835068E+03 -0.73527482464E+03  0.81775144580E+03  0.11079906411E+04  0.86888658784E+02 0.  0.
         23    2    4    4    0    0  0.56754425154E+01 -0.51605158650E+03  0.38344611893E+02  0.52547990067E+03  0.91199595254E+02 0.  0.
          4    1    3    3  502    0  0.49298835733E+01  0.55162909036E+03 -0.49701330519E+03  0.74252352328E+03  0.00000000000E+00 0. -1.
         -4    1    3    3    0  502  0.93063024588E+02  0.69969732079E+03 -0.55865099714E+03  0.90018220593E+03  0.00000000000E+00 0.  1.
         15    1    5    5    0    0 -0.18857006978E+02 -0.30042492732E+03  0.38447476055E+03  0.48829778096E+03  0.17770000000E+01 0. -1.
        -15    1    5    5    0    0 -0.84811343699E+02 -0.43484989732E+03  0.43327668526E+03  0.61969286016E+03  0.17770000000E+01 0.  1.
          3    1    6    6  503    0  0.33332528294E+02 -0.36738213875E+03  0.56429453634E+02  0.37318222968E+03  0.00000000000E+00 0. -1.
         -3    1    6    6    0  503 -0.27657085779E+02 -0.14866944775E+03 -0.18084841741E+02  0.15229767099E+03  0.00000000000E+00 0.  1.
<mgrwt>
<rscale>  0 0.12608449E+04</rscale>
<asrwt>0</asrwt>
<pdfrwt beam="1">  1        2 0.26736496E+00 0.12608449E+04</pdfrwt>
<pdfrwt beam="2">  1       -2 0.23666216E+00 0.12608449E+04</pdfrwt>
<totfact> 0.69959421E-01</totfact>
</mgrwt>
</event>
<event>
12    1  0.7781383E-008  0.9670945E+03  0.7818608E-02  0.9345390E-01
         -1   -1    0    0    0  501 -0.00000000000E+00  0.00000000000E+00  0.17064571370E+04  0.17064571370E+04  0.00000000000E+00 0.  1.
          1   -1    0    0  501    0  0.00000000000E+00 -0.00000000000E+00 -0.10788773152E+04  0.10788773152E+04  0.00000000000E+00 0. -1.
         23    2    1    2    0    0 -0.30308290718E+03 -0.88000474009E+03  0.12135222050E+04  0.15325422110E+04  0.98903464528E+02 0.  0.
    5000000    2    1    2    0    0  0.30308290718E+03  0.88000474009E+03 -0.58594238319E+03  0.12527922411E+04  0.59991026984E+03 0.  0.
         23    2    4    4    0    0 -0.57356394698E+02  0.83071866651E+02 -0.29958690536E+03  0.32790918699E+03  0.87071407543E+02 0.  0.
         23    2    4    4    0    0  0.36043930187E+03  0.79693287344E+03 -0.28635547783E+03  0.92488305415E+03  0.91600813695E+02 0.  0.
          1    1    3    3  502    0 -0.24179127624E+03 -0.74485510210E+03  0.96135670664E+03  0.12399511530E+04  0.00000000000E+00 0. -1.
         -1    1    3    3    0  502 -0.61291630933E+02 -0.13514963799E+03  0.25216549837E+03  0.29259105803E+03  0.00000000000E+00 0.  1.
         15    1    5    5    0    0 -0.11414234698E+02  0.80275449830E+02 -0.13986415375E+03  0.16167736957E+03  0.17770000000E+01 0.  1.
        -15    1    5    5    0    0 -0.45942160001E+02  0.27964168213E+01 -0.15972275161E+03  0.16623181742E+03  0.17770000000E+01 0. -1.
          2    1    6    6  503    0  0.25357257215E+03  0.51604784188E+03 -0.14618793071E+03  0.59327509263E+03  0.00000000000E+00 0. -1.
         -2    1    6    6    0  503  0.10686672973E+03  0.28088503156E+03 -0.14016754712E+03  0.33160796152E+03  0.00000000000E+00 0.  1.
<mgrwt>
<rscale>  0 0.96709449E+03</rscale>
<asrwt>0</asrwt>
<pdfrwt beam="1">  1        1 0.16598113E+00 0.96709449E+03</pdfrwt>
<pdfrwt beam="2">  1       -1 0.26253187E+00 0.96709449E+03</pdfrwt>
<totfact> 0.77133627E-01</totfact>
</mgrwt>
</event>
<event>
12    1  0.7781383E-008  0.1070217E+04  0.7818608E-02  0.9234717E-01
         -2   -1    0    0    0  501 -0.00000000000E+00  0.00000000000E+00  0.54745761224E+03  0.54745761224E+03  0.00000000000E+00 0.  1.
          2   -1    0    0  501    0  0.00000000000E+00 -0.00000000000E+00 -0.22179815220E+04  0.22179815220E+04  0.00000000000E+00 0. -1.
         23    2    1    2    0    0  0.60538014371E+03 -0.80810688980E+03 -0.61126948507E+03  0.11838421826E+04  0.91159564454E+02 0.  0.
    5000000    2    1    2    0    0 -0.60538014371E+03  0.80810688980E+03 -0.10592544247E+04  0.15815969516E+04  0.59992259288E+03 0.  0.
         23    2    4    4    0    0 -0.66950868763E+03  0.57636078150E+03 -0.66152035558E+03  0.11075305707E+04  0.92634502308E+02 0.  0.
         23    2    4    4    0    0  0.64128543919E+02  0.23174610830E+03 -0.39773406910E+03  0.47406638088E+03  0.93422775087E+02 0.  0.
          4    1    3    3  502    0  0.26430898779E+03 -0.36503662659E+03 -0.32528743899E+03  0.55580832824E+03  0.00000000000E+00 0. -1.
         -4    1    3    3    0  502  0.34107115593E+03 -0.44307026322E+03 -0.28598204608E+03  0.62803385437E+03  0.00000000000E+00 0.  1.
         15    1    5    5    0    0 -0.12880374253E+03  0.15664707751E+03 -0.12989490598E+03  0.24084134884E+03  0.17770000000E+01 0. -1.
        -15    1    5    5    0    0 -0.54070494510E+03  0.41971370400E+03 -0.53162544960E+03  0.86668922190E+03  0.17770000000E+01 0.  1.
          3    1    6    6  503    0  0.92211179394E+01  0.10216406458E+03 -0.24900405099E+03  0.26930566745E+03  0.00000000000E+00 0. -1.
         -3    1    6    6    0  503  0.54907425980E+02  0.12958204372E+03 -0.14873001811E+03  0.20476071344E+03  0.00000000000E+00 0.  1.
<mgrwt>
<rscale>  0 0.10702170E+04</rscale>
<asrwt>0</asrwt>
<pdfrwt beam="1">  1        2 0.34122793E+00 0.10702170E+04</pdfrwt>
<pdfrwt beam="2">  1       -2 0.84224248E-01 0.10702170E+04</pdfrwt>
<totfact> 0.61856408E+00</totfact>
</mgrwt>
</event>
<event>
12    1  0.7781383E-008  0.9015288E+03  0.7818608E-02  0.9423672E-01
          1   -1    0    0  501    0  0.00000000000E+00  0.00000000000E+00  0.17642849560E+04  0.17642849560E+04  0.00000000000E+00 0. -1.
         -1   -1    0    0    0  501 -0.00000000000E+00 -0.00000000000E+00 -0.46887529817E+03  0.46887529817E+03  0.00000000000E+00 0.  1.
         23    2    1    2    0    0 -0.79003306939E+03  0.14253444911E+03  0.46320717833E+03  0.93062616112E+03  0.83879924913E+02 0.  0.
    5000000    2    1    2    0    0  0.79003306939E+03 -0.14253444911E+03  0.83220247945E+03  0.13025340930E+04  0.59963803809E+03 0.  0.
         23    2    4    4    0    0  0.12402325427E+03  0.19609808807E+03  0.21768819529E+03  0.33083273617E+03  0.90696864365E+02 0.  0.
         23    2    4    4    0    0  0.66600981511E+03 -0.33863253719E+03  0.61451428417E+03  0.97170135684E+03  0.91294317285E+02 0.  0.
          2    1    3    3  502    0 -0.53868265189E+03  0.63147796305E+02  0.28769944360E+03  0.61395245213E+03  0.00000000000E+00 0. -1.
         -2    1    3    3    0  502 -0.25135041750E+03  0.79386652807E+02  0.17550773473E+03  0.31667370900E+03  0.00000000000E+00 0.  1.
         15    1    5    5    0    0 -0.53883701683E+01  0.63673367078E+02  0.58123699603E+02  0.86399388844E+02  0.17770000000E+01 0. -1.
        -15    1    5    5    0    0  0.12941162444E+03  0.13242472100E+03  0.15956449568E+03  0.24443334732E+03  0.17770000000E+01 0.  1.
          1    1    6    6  503    0  0.61104215756E+03 -0.32131265961E+03  0.53454050047E+03  0.87312535766E+03  0.00000000000E+00 0. -1.
         -1    1    6    6    0  503  0.54967657556E+02 -0.17319877580E+02  0.79973783694E+02  0.98575999183E+02  0.00000000000E+00 0.  1.
<mgrwt>
<rscale>  0 0.90152881E+03</rscale>
<asrwt>0</asrwt>
<pdfrwt beam="1">  1        1 0.27142845E+00 0.90152881E+03</pdfrwt>
<pdfrwt beam="2">  1       -1 0.72134662E-01 0.90152881E+03</pdfrwt>
<totfact> 0.85281056E+00</totfact>
</mgrwt>
</event>
<event>
12    1  0.9226293E-008  0.7619395E+03  0.7818608E-02  0.9616803E-01
         -1   -1    0    0    0  501 -0.00000000000E+00  0.00000000000E+00  0.41179793223E+03  0.41179793223E+03  0.00000000000E+00 0.  1.
          1   -1    0    0  501    0  0.00000000000E+00 -0.00000000000E+00 -0.17345865787E+04  0.17345865787E+04  0.00000000000E+00 0. -1.
         23    2    1    2    0    0  0.79731585490E+01 -0.71653772787E+03 -0.79008525813E+03  0.10706130950E+04  0.92129242856E+02 0.  0.
    5000000    2    1    2    0    0 -0.79731585490E+01  0.71653772787E+03 -0.53270338838E+03  0.10757714159E+04  0.60001779361E+03 0.  0.
         23    2    4    4    0    0 -0.16731756834E+03  0.28096681675E+03  0.30119402761E+02  0.34081091215E+03  0.91144822257E+02 0.  0.
         23    2    4    4    0    0  0.15934440979E+03  0.43557091112E+03 -0.56282279114E+03  0.73496050380E+03  0.91020812837E+02 0.  0.
          1    1    3    3  502    0  0.30772657351E+02 -0.24997050580E+03 -0.32813596111E+03  0.41364890812E+03  0.00000000000E+00 0. -1.
         -1    1    3    3    0  502 -0.22799498802E+02 -0.46656722207E+03 -0.46194929701E+03  0.65696418690E+03  0.00000000000E+00 0.  1.
         15    1    5    5    0    0 -0.11130117074E+03  0.12465187362E+03 -0.17567557140E+02  0.16804111699E+03  0.17770000000E+01 0. -1.
        -15    1    5    5    0    0 -0.56016397601E+02  0.15631494313E+03  0.47686959901E+02  0.17276979516E+03  0.17770000000E+01 0.  1.
          1    1    6    6  503    0  0.42789699896E+02  0.24209505317E+03 -0.31630833235E+03  0.40061444595E+03  0.00000000000E+00 0. -1.
         -1    1    6    6    0  503  0.11655470989E+03  0.19347585795E+03 -0.24651445879E+03  0.33434605785E+03  0.00000000000E+00 0.  1.
<mgrwt>
<rscale>  0 0.76193949E+03</rscale>
<asrwt>0</asrwt>
<pdfrwt beam="1">  1        1 0.26685947E+00 0.76193949E+03</pdfrwt>
<pdfrwt beam="2">  1       -1 0.63353528E-01 0.76193949E+03</pdfrwt>
<totfact> 0.11851610E+01</totfact>
</mgrwt>
</event>
<event>
12    1  0.7781383E-008  0.8857123E+03  0.7818608E-02  0.9443620E-01
          2   -1    0    0  501    0  0.00000000000E+00  0.00000000000E+00  0.46928636900E+03  0.46928636900E+03  0.00000000000E+00 0. -1.
         -2   -1    0    0    0  501 -0.00000000000E+00 -0.00000000000E+00 -0.19924931395E+04  0.19924931395E+04  0.00000000000E+00 0.  1.
         23    2    1    2    0    0  0.69931462015E+03 -0.37775319120E+03 -0.11470808125E+04  0.13972581754E+04  0.69264758302E+02 0.  0.
    5000000    2    1    2    0    0 -0.69931462015E+03  0.37775319120E+03 -0.37612595798E+03  0.10645213331E+04  0.59999710085E+03 0.  0.
         23    2    4    4    0    0 -0.24492156714E+03  0.44464915386E+03 -0.11940369703E+03  0.53021223791E+03  0.95751398361E+02 0.  0.
         23    2    4    4    0    0 -0.45439305302E+03 -0.66895962654E+02 -0.25672226095E+03  0.53430909524E+03  0.92907338447E+02 0.  0.
          1    1    3    3  502    0  0.31264160456E+03 -0.16287189928E+03 -0.56874117601E+03  0.66913268771E+03  0.00000000000E+00 0. -1.
         -1    1    3    3    0  502  0.38667301560E+03 -0.21488129193E+03 -0.57833963651E+03  0.72812548766E+03  0.00000000000E+00 0.  1.
         15    1    5    5    0    0 -0.61208400871E+02  0.19947830418E+03 -0.68642849210E+02  0.21966579308E+03  0.17770000000E+01 0.  1.
        -15    1    5    5    0    0 -0.18371316627E+03  0.24517084968E+03 -0.50760847820E+02  0.31054644483E+03  0.17770000000E+01 0. -1.
          3    1    6    6  503    0 -0.11876556360E+03  0.24100619979E+01 -0.27268799985E+02  0.12187967406E+03  0.00000000000E+00 0. -1.
         -3    1    6    6    0  503 -0.33562748942E+03 -0.69306024652E+02 -0.22945346097E+03  0.41242942118E+03  0.00000000000E+00 0.  1.
<mgrwt>
<rscale>  0 0.88571231E+03</rscale>
<asrwt>0</asrwt>
<pdfrwt beam="1">  1        2 0.72197902E-01 0.88571231E+03</pdfrwt>
<pdfrwt beam="2">  1       -2 0.30653741E+00 0.88571231E+03</pdfrwt>
<totfact> 0.19644519E+00</totfact>
</mgrwt>
</event>
<event>
12    1  0.7781383E-008  0.4877313E+03  0.7818608E-02  0.1017032E+00
         -1   -1    0    0    0  501 -0.00000000000E+00  0.00000000000E+00  0.12052964231E+04  0.12052964231E+04  0.00000000000E+00 0.  1.
          1   -1    0    0  501    0  0.00000000000E+00 -0.00000000000E+00 -0.39607671074E+03  0.39607671074E+03  0.00000000000E+00 0. -1.
         23    2    1    2    0    0 -0.52737329371E+02  0.36920835491E+03  0.80814707201E+03  0.89477652175E+03  0.91800319313E+02 0.  0.
    5000000    2    1    2    0    0  0.52737329371E+02 -0.36920835491E+03  0.10726403332E+01  0.70659661208E+03  0.60015130292E+03 0.  0.
         23    2    4    4    0    0  0.24807139991E+03 -0.26111123266E+03 -0.17227677717E+03  0.40957537092E+03  0.91401319679E+02 0.  0.
         23    2    4    4    0    0 -0.19533407054E+03 -0.10809712226E+03  0.17334941750E+03  0.29702124116E+03  0.91275463300E+02 0.  0.
          2    1    3    3  502    0 -0.72552242922E+01  0.14322008427E+03  0.21527237114E+03  0.25866353550E+03  0.00000000000E+00 0. -1.
         -2    1    3    3    0  502 -0.45482105078E+02  0.22598827065E+03  0.59287470087E+03  0.63611298625E+03  0.00000000000E+00 0.  1.
         15    1    5    5    0    0  0.24977896961E+03 -0.25208156630E+03 -0.14974546439E+03  0.38517724694E+03  0.17770000000E+01 0.  1.
        -15    1    5    5    0    0 -0.17075697052E+01 -0.90296663556E+01 -0.22531312782E+02  0.24398123974E+02  0.17770000000E+01 0. -1.
          1    1    6    6  503    0 -0.12369907049E+03 -0.22574914825E+02  0.11819411651E+03  0.17257153878E+03  0.00000000000E+00 0. -1.
         -1    1    6    6    0  503 -0.71635000044E+02 -0.85522207431E+02  0.55155300999E+02  0.12444970238E+03  0.00000000000E+00 0.  1.
<mgrwt>
<rscale>  0 0.48773130E+03</rscale>
<asrwt>0</asrwt>
<pdfrwt beam="1">  1        1 0.60934879E-01 0.48773130E+03</pdfrwt>
<pdfrwt beam="2">  1       -1 0.18543022E+00 0.48773130E+03</pdfrwt>
<totfact> 0.12377131E+01</totfact>
</mgrwt>
</event>
<event>
12    1  0.7781383E-008  0.3125505E+03  0.7818608E-02  0.1079130E+00
          2   -1    0    0  501    0  0.00000000000E+00  0.00000000000E+00  0.39120357856E+03  0.39120357856E+03  0.00000000000E+00 0.  1.
         -2   -1    0    0    0  501 -0.00000000000E+00 -0.00000000000E+00 -0.73350771684E+03  0.73350771684E+03  0.00000000000E+00 0. -1.
         23    2    1    2    0    0 -0.56100024679E+02 -0.26930301268E+03  0.12531893339E+03  0.31610442837E+03  0.92443762150E+02 0.  0.
    5000000    2    1    2    0    0  0.56100024679E+02  0.26930301268E+03 -0.46762307166E+03  0.80860686703E+03  0.59958519233E+03 0.  0.
         23    2    4    4    0    0  0.97169091228E+02  0.82386722684E+02  0.11147119659E+03  0.19170389981E+03  0.89973069121E+02 0.  0.
         23    2    4    4    0    0 -0.41069066549E+02  0.18691629000E+03 -0.57909426825E+03  0.61690296723E+03  0.92707776166E+02 0.  0.
          4    1    3    3  502    0 -0.13843505349E+01 -0.20636046081E+03  0.81317947901E+02  0.22180884758E+03  0.00000000000E+00 0. -1.
         -4    1    3    3    0  502 -0.54715674144E+02 -0.62942551870E+02  0.44000985487E+02  0.94295580791E+02  0.00000000000E+00 0.  1.
         15    1    5    5    0    0  0.97999726622E+02  0.49358742327E+02  0.11435245588E+03  0.15849250379E+03  0.17770000000E+01 0. -1.
        -15    1    5    5    0    0 -0.83063539369E+00  0.33027980357E+02 -0.28812592863E+01  0.33211396021E+02  0.17770000000E+01 0.  1.
          1    1    6    6  503    0 -0.16812581057E+02  0.36992571151E+02 -0.40753976920E+02  0.57549976863E+02  0.00000000000E+00 0.  1.
         -1    1    6    6    0  503 -0.24256485492E+02  0.14992371885E+03 -0.53834029133E+03  0.55935299036E+03  0.00000000000E+00 0. -1.
<mgrwt>
<rscale>  0 0.31255045E+03</rscale>
<asrwt>0</asrwt>
<pdfrwt beam="1">  1        2 0.60185166E-01 0.31255045E+03</pdfrwt>
<pdfrwt beam="2">  1       -2 0.11284734E+00 0.31255045E+03</pdfrwt>
<totfact> 0.52954814E+01</totfact>
</mgrwt>
</event>
<event>
12    1  0.7781383E-008  0.6928167E+03  0.7818608E-02  0.9729596E-01
          1   -1    0    0  501    0  0.00000000000E+00  0.00000000000E+00  0.81276574759E+03  0.81276574759E+03  0.00000000000E+00 0. -1.
         -1   -1    0    0    0  501 -0.00000000000E+00 -0.00000000000E+00 -0.77391525897E+03  0.77391525897E+03  0.00000000000E+00 0.  1.
         23    2    1    2    0    0 -0.57028975597E+02 -0.67291421961E+03 -0.14348177090E+02  0.68198119584E+03  0.93950147868E+02 0.  0.
    5000000    2    1    2    0    0  0.57028975597E+02  0.67291421961E+03  0.53198665714E+02  0.90469981071E+03  0.59965473270E+03 0.  0.
         23    2    4    4    0    0 -0.13819573317E+02  0.48591934118E+03  0.29716573411E+03  0.57639901277E+03  0.87291246144E+02 0.  0.
         23    2    4    4    0    0  0.70848548913E+02  0.18699487843E+03 -0.24396706840E+03  0.32830079794E+03  0.90966378505E+02 0.  0.
          3    1    3    3  502    0 -0.75060480104E+02 -0.39309620038E+03 -0.28615408913E+02  0.40122006437E+03  0.00000000000E+00 0. -1.
         -3    1    3    3    0  502  0.18031504507E+02 -0.27981801923E+03  0.14267231823E+02  0.28076113147E+03  0.00000000000E+00 0.  1.
         15    1    5    5    0    0 -0.10713648225E+02  0.34546433556E+03  0.25560381756E+03  0.42988005151E+03  0.17770000000E+01 0. -1.
        -15    1    5    5    0    0 -0.31059250913E+01  0.14045500562E+03  0.41561916559E+02  0.14651896127E+03  0.17770000000E+01 0.  1.
          3    1    6    6  503    0  0.89367249354E+02  0.12142575324E+03 -0.15486675562E+03  0.21613521417E+03  0.00000000000E+00 0. -1.
         -3    1    6    6    0  503 -0.18518700440E+02  0.65569125188E+02 -0.89100312782E+02  0.11216558377E+03  0.00000000000E+00 0.  1.
<mgrwt>
<rscale>  0 0.69281673E+03</rscale>
<asrwt>0</asrwt>
<pdfrwt beam="1">  1        1 0.12504088E+00 0.69281673E+03</pdfrwt>
<pdfrwt beam="2">  1       -1 0.11906389E+00 0.69281673E+03</pdfrwt>
<totfact> 0.14104873E+01</totfact>
</mgrwt>
</event>
<event>
12    1  0.7781383E-008  0.4980956E+03  0.7818608E-02  0.1014277E+00
          2   -1    0    0  501    0  0.00000000000E+00  0.00000000000E+00  0.31534550076E+04  0.31534550076E+04  0.00000000000E+00 0. -1.
         -2   -1    0    0    0  501 -0.00000000000E+00 -0.00000000000E+00 -0.16759527736E+03  0.16759527736E+03  0.00000000000E+00 0.  1.
         23    2    1    2    0    0 -0.22381041251E+03 -0.28957551041E+03  0.16143861168E+03  0.41049933161E+03  0.92207369189E+02 0.  0.
    5000000    2    1    2    0    0  0.22381041251E+03  0.28957551041E+03  0.28244211186E+04  0.29105509533E+04  0.60000593338E+03 0.  0.
         23    2    4    4    0    0 -0.45852932082E+02  0.34108639742E+03  0.21030398454E+04  0.21330100942E+04  0.92266183762E+02 0.  0.
         23    2    4    4    0    0  0.26966334459E+03 -0.51510887010E+02  0.72138127311E+03  0.77754085911E+03  0.93846446400E+02 0.  0.
          1    1    3    3  502    0 -0.92827696803E+02 -0.14043932217E+03  0.26334635355E+02  0.17039277428E+03  0.00000000000E+00 0. -1.
         -1    1    3    3    0  502 -0.13098271570E+03 -0.14913618824E+03  0.13510397632E+03  0.24010655733E+03  0.00000000000E+00 0.  1.
         15    1    5    5    0    0 -0.18129288400E+02  0.10140953650E+02  0.70567655454E+02  0.73583026331E+02  0.17770000000E+01 0. -1.
        -15    1    5    5    0    0 -0.27723643682E+02  0.33094544377E+03  0.20324721900E+04  0.20594270679E+04  0.17770000000E+01 0.  1.
          3    1    6    6  503    0  0.90705245895E+02 -0.32846603633E+02  0.14863250506E+03  0.17719470242E+03  0.00000000000E+00 0. -1.
         -3    1    6    6    0  503  0.17895809869E+03 -0.18664283377E+02  0.57274876804E+03  0.60034615669E+03  0.00000000000E+00 0.  1.
<mgrwt>
<rscale>  0 0.49809556E+03</rscale>
<asrwt>0</asrwt>
<pdfrwt beam="1">  1        2 0.48514688E+00 0.49809556E+03</pdfrwt>
<pdfrwt beam="2">  1       -2 0.25783891E-01 0.49809556E+03</pdfrwt>
<totfact> 0.21124970E+01</totfact>
</mgrwt>
</event>
<event>
12    1  0.7781383E-008  0.1691470E+04  0.7818608E-02  0.8766244E-01
          2   -1    0    0  501    0  0.00000000000E+00  0.00000000000E+00  0.22269034328E+04  0.22269034328E+04  0.00000000000E+00 0.  1.
         -2   -1    0    0    0  501 -0.00000000000E+00 -0.00000000000E+00 -0.13942754167E+04  0.13942754167E+04  0.00000000000E+00 0. -1.
         23    2    1    2    0    0 -0.80059548388E+03  0.14779790368E+04  0.82943103967E+02  0.16853438005E+04  0.90160996852E+02 0.  0.
    5000000    2    1    2    0    0  0.80059548388E+03 -0.14779790368E+04  0.74968491221E+03  0.19358350490E+04  0.60004558781E+03 0.  0.
         23    2    4    4    0    0  0.35507382538E+03 -0.87001593462E+03  0.12485958050E+03  0.95251840995E+03  0.93253731712E+02 0.  0.
         23    2    4    4    0    0  0.44552165850E+03 -0.60796310215E+03  0.62482533170E+03  0.98331663907E+03  0.91630975980E+02 0.  0.
          3    1    3    3  502    0 -0.57447241250E+03  0.11133977437E+04  0.91969269568E+02  0.12562370139E+04  0.00000000000E+00 0. -1.
         -3    1    3    3    0  502 -0.22612307138E+03  0.36458129306E+03 -0.90261656010E+01  0.42910678662E+03  0.00000000000E+00 0.  1.
         15    1    5    5    0    0  0.22849326456E+03 -0.45795023845E+03  0.41610743836E+02  0.51348048120E+03  0.17770000000E+01 0. -1.
        -15    1    5    5    0    0  0.12658056082E+03 -0.41206569617E+03  0.83248836666E+02  0.43903792874E+03  0.17770000000E+01 0.  1.
          2    1    6    6  503    0  0.88461547530E+02 -0.18213170026E+03  0.14405534230E+03  0.24849415139E+03  0.00000000000E+00 0. -1.
         -2    1    6    6    0  503  0.35706011097E+03 -0.42583140189E+03  0.48076998941E+03  0.73482248768E+03  0.00000000000E+00 0.  1.
<mgrwt>
<rscale>  0 0.16914701E+04</rscale>
<asrwt>0</asrwt>
<pdfrwt beam="1">  1        2 0.34260053E+00 0.16914701E+04</pdfrwt>
<pdfrwt beam="2">  1       -2 0.21450391E+00 0.16914701E+04</pdfrwt>
<totfact> 0.49167644E-01</totfact>
</mgrwt>
</event>
<event>
12    1  0.7781383E-008  0.5595659E+03  0.7818608E-02  0.9993037E-01
          1   -1    0    0  501    0  0.00000000000E+00  0.00000000000E+00  0.37988128003E+04  0.37988128003E+04  0.00000000000E+00 0. -1.
         -1   -1    0    0    0  501 -0.00000000000E+00 -0.00000000000E+00 -0.10071771578E+03  0.10071771578E+03  0.00000000000E+00 0.  1.
         23    2    1    2    0    0 -0.46765231507E+03  0.83210914377E+01  0.14917650172E+04  0.15657686685E+04  0.86606746977E+02 0.  0.
    5000000    2    1    2    0    0  0.46765231507E+03 -0.83210914377E+01  0.22063300673E+04  0.23337618475E+04  0.59982002844E+03 0.  0.
         23    2    4    4    0    0 -0.54492931138E+02  0.53575770395E+02  0.10869339323E+04  0.10936015668E+04  0.93269346475E+02 0.  0.
         23    2    4    4    0    0  0.52214524621E+03 -0.61896861833E+02  0.11193961350E+04  0.12401602807E+04  0.92102850672E+02 0.  0.
          1    1    3    3  502    0 -0.23207245240E+03 -0.26346965593E+02  0.63753327387E+03  0.67897014739E+03  0.00000000000E+00 0. -1.
         -1    1    3    3    0  502 -0.23557986267E+03  0.34668057031E+02  0.85423174330E+03  0.88679852116E+03  0.00000000000E+00 0.  1.
         15    1    5    5    0    0 -0.18931407924E+02 -0.26532935806E+02  0.32855874699E+03  0.33017632084E+03  0.17770000000E+01 0. -1.
        -15    1    5    5    0    0 -0.35561523214E+02  0.80108706201E+02  0.75837518527E+03  0.76342524592E+03  0.17770000000E+01 0.  1.
          3    1    6    6  503    0  0.12616223426E+03  0.11824062114E+01  0.35889051802E+03  0.38042175459E+03  0.00000000000E+00 0. -1.
         -3    1    6    6    0  503  0.39598301194E+03 -0.63079268044E+02  0.76050561702E+03  0.85973852614E+03  0.00000000000E+00 0.  1.
<mgrwt>
<rscale>  0 0.55956591E+03</rscale>
<asrwt>0</asrwt>
<pdfrwt beam="1">  1        1 0.58443263E+00 0.55956591E+03</pdfrwt>
<pdfrwt beam="2">  1       -1 0.15495036E-01 0.55956591E+03</pdfrwt>
<totfact> 0.50582817E+00</totfact>
</mgrwt>
</event>
<event>
12    1  0.7781383E-008  0.3907544E+03  0.7818608E-02  0.1047029E+00
         -1   -1    0    0    0  501 -0.00000000000E+00  0.00000000000E+00  0.42930614931E+03  0.42930614931E+03  0.00000000000E+00 0.  1.
          1   -1    0    0  501    0  0.00000000000E+00 -0.00000000000E+00 -0.46289508263E+03  0.46289508263E+03  0.00000000000E+00 0. -1.
         23    2    1    2    0    0 -0.13105764401E+03 -0.15664634394E+03  0.99284618847E+02  0.24501903010E+03  0.91992969571E+02 0.  0.
    5000000    2    1    2    0    0  0.13105764401E+03  0.15664634394E+03 -0.13287355216E+03  0.64718220184E+03  0.59956253919E+03 0.  0.
         23    2    4    4    0    0 -0.16937500749E+03 -0.63066798299E+02  0.69564881576E+02  0.21377096909E+03  0.90517624053E+02 0.  0.
         23    2    4    4    0    0  0.30043265150E+03  0.21971314224E+03 -0.20243843374E+03  0.43341123276E+03  0.91270664855E+02 0.  0.
          1    1    3    3  502    0 -0.94609740195E+02 -0.76432630807E+02  0.99139659110E+02  0.15691278469E+03  0.00000000000E+00 0. -1.
         -1    1    3    3    0  502 -0.36447903813E+02 -0.80213713131E+02  0.14495973679E+00  0.88106245408E+02  0.00000000000E+00 0.  1.
         15    1    5    5    0    0 -0.20593305506E+02  0.18647165732E+02 -0.51360161735E+01  0.28307903713E+02  0.17770000000E+01 0. -1.
        -15    1    5    5    0    0 -0.14878170199E+03 -0.81713964031E+02  0.74700897749E+02  0.18546306537E+03  0.17770000000E+01 0.  1.
          2    1    6    6  503    0  0.29155368963E+02  0.37030720796E+02 -0.60994092627E+02  0.77081704428E+02  0.00000000000E+00 0. -1.
         -2    1    6    6    0  503  0.27127728254E+03  0.18268242144E+03 -0.14144434111E+03  0.35632952833E+03  0.00000000000E+00 0.  1.
<mgrwt>
<rscale>  0 0.39075442E+03</rscale>
<asrwt>0</asrwt>
<pdfrwt beam="1">  1        1 0.71214628E-01 0.39075442E+03</pdfrwt>
<pdfrwt beam="2">  1       -1 0.66047100E-01 0.39075442E+03</pdfrwt>
<totfact> 0.11992229E+02</totfact>
</mgrwt>
</event>
<event>
12    1  0.7781383E-008  0.1020733E+04  0.7818608E-02  0.9286093E-01
         -1   -1    0    0    0  501 -0.00000000000E+00  0.00000000000E+00  0.48684431055E+03  0.48684431055E+03  0.00000000000E+00 0.  1.
          1   -1    0    0  501    0  0.00000000000E+00 -0.00000000000E+00 -0.24732674692E+04  0.24732674692E+04  0.00000000000E+00 0. -1.
         23    2    1    2    0    0  0.45210092596E+03  0.87435754986E+03 -0.59875522969E+03  0.11559202282E+04  0.93527411239E+02 0.  0.
    5000000    2    1    2    0    0 -0.45210092596E+03 -0.87435754986E+03 -0.13876679290E+04  0.18041915515E+04  0.60049021749E+03 0.  0.
         23    2    4    4    0    0 -0.76764171725E+02 -0.51736546072E+03 -0.33702564921E+03  0.62928263600E+03  0.94077572985E+02 0.  0.
         23    2    4    4    0    0 -0.37533675424E+03 -0.35699208914E+03 -0.10506422798E+04  0.11749089155E+04  0.90778461099E+02 0.  0.
          2    1    3    3  502    0  0.39729927998E+03  0.76016584985E+03 -0.55629411875E+03  0.10223316408E+04  0.00000000000E+00 0. -1.
         -2    1    3    3    0  502  0.54801645977E+02  0.11419170001E+03 -0.42461110933E+02  0.13358858744E+03  0.00000000000E+00 0.  1.
         15    1    5    5    0    0 -0.21570892334E+02 -0.40905765963E+03 -0.25221126621E+03  0.48104797352E+03  0.17770000000E+01 0.  1.
        -15    1    5    5    0    0 -0.55193279391E+02 -0.10830780109E+03 -0.84814382999E+02  0.14823466247E+03  0.17770000000E+01 0. -1.
          3    1    6    6  503    0 -0.18984774791E+03 -0.24219526129E+03 -0.61003984952E+03  0.68326373384E+03  0.00000000000E+00 0.  1.
         -3    1    6    6    0  503 -0.18548900633E+03 -0.11479682785E+03 -0.44060243025E+03  0.49164518171E+03  0.00000000000E+00 0. -1.
<mgrwt>
<rscale>  0 0.10207331E+04</rscale>
<asrwt>0</asrwt>
<pdfrwt beam="1">  1        1 0.38050269E+00 0.10207331E+04</pdfrwt>
<pdfrwt beam="2">  1       -1 0.74899124E-01 0.10207331E+04</pdfrwt>
<totfact> 0.25739603E+00</totfact>
</mgrwt>
</event>
<event>
12    1  0.7781383E-008  0.1024639E+04  0.7818608E-02  0.9281927E-01
          1   -1    0    0  501    0  0.00000000000E+00  0.00000000000E+00  0.22919723527E+04  0.22919723527E+04  0.00000000000E+00 0. -1.
         -1   -1    0    0    0  501 -0.00000000000E+00 -0.00000000000E+00 -0.47584324179E+03  0.47584324179E+03  0.00000000000E+00 0.  1.
         23    2    1    2    0    0  0.90632489326E+03  0.26295687765E+03  0.63465065630E+03  0.11408376663E+04  0.90321611842E+02 0.  0.
    5000000    2    1    2    0    0 -0.90632489326E+03 -0.26295687765E+03  0.11814784546E+04  0.16269779282E+04  0.60049538601E+03 0.  0.
         23    2    4    4    0    0 -0.73629189235E+03  0.41433851995E+02  0.66364743992E+03  0.99614213972E+03  0.89603142691E+02 0.  0.
         23    2    4    4    0    0 -0.17003300091E+03 -0.30439072964E+03  0.51783101471E+03  0.63083578853E+03  0.90773865214E+02 0.  0.
          2    1    3    3  502    0  0.41770852423E+03  0.16409404755E+03  0.27862664677E+03  0.52824244050E+03  0.00000000000E+00 0. -1.
         -2    1    3    3    0  502  0.48861636903E+03  0.98862830099E+02  0.35602400953E+03  0.61259522576E+03  0.00000000000E+00 0.  1.
         15    1    5    5    0    0 -0.52714669644E+03  0.69745583407E+02  0.48149819875E+03  0.71735051342E+03  0.17770000000E+01 0. -1.
        -15    1    5    5    0    0 -0.20914519591E+03 -0.28311731412E+02  0.18214924117E+03  0.27879162630E+03  0.17770000000E+01 0.  1.
          2    1    6    6  503    0 -0.85561932711E+02 -0.71729940219E+02  0.18451504523E+03  0.21566601626E+03  0.00000000000E+00 0.  1.
         -2    1    6    6    0  503 -0.84471068196E+02 -0.23266078942E+03  0.33331596948E+03  0.41516977227E+03  0.00000000000E+00 0. -1.
<mgrwt>
<rscale>  0 0.10246388E+04</rscale>
<asrwt>0</asrwt>
<pdfrwt beam="1">  1        1 0.35261113E+00 0.10246388E+04</pdfrwt>
<pdfrwt beam="2">  1       -1 0.73206654E-01 0.10246388E+04</pdfrwt>
<totfact> 0.35877504E+00</totfact>
</mgrwt>
</event>
<event>
12    1  0.7781383E-008  0.1382479E+04  0.7818608E-02  0.8966600E-01
         -4   -1    0    0    0  501 -0.00000000000E+00  0.00000000000E+00  0.24953276574E+04  0.24953276574E+04  0.00000000000E+00 0.  1.
          4   -1    0    0  501    0  0.00000000000E+00 -0.00000000000E+00 -0.10972244901E+04  0.10972244901E+04  0.00000000000E+00 0. -1.
         23    2    1    2    0    0 -0.82701183524E+03  0.10347457301E+04  0.16489165987E+04  0.21170114039E+04  0.90355038448E+02 0.  0.
    5000000    2    1    2    0    0  0.82701183524E+03 -0.10347457301E+04 -0.25081343146E+03  0.14755407436E+04  0.59972144132E+03 0.  0.
         23    2    4    4    0    0 -0.64079897708E+02 -0.16840865296E+03 -0.81917248064E+02  0.21846778944E+03  0.92466382073E+02 0.  0.
         23    2    4    4    0    0  0.89109173295E+03 -0.86633707711E+03 -0.16889618340E+03  0.12570729542E+04  0.84392438414E+02 0.  0.
          2    1    3    3  502    0 -0.67589947013E+03  0.78986973740E+03  0.13119727485E+04  0.16739195885E+04  0.00000000000E+00 0. -1.
         -2    1    3    3    0  502 -0.15111236510E+03  0.24487599266E+03  0.33694385020E+03  0.44309181538E+03  0.00000000000E+00 0.  1.
         15    1    5    5    0    0 -0.16410949210E+02 -0.12963123524E+03 -0.86673792947E+02  0.15680905751E+03  0.17770000000E+01 0. -1.
        -15    1    5    5    0    0 -0.47668948498E+02 -0.38777417712E+02  0.47565448836E+01  0.61658731933E+02  0.17770000000E+01 0.  1.
          2    1    6    6  503    0  0.65170911639E+03 -0.68219481515E+03 -0.11821470781E+03  0.95083608227E+03  0.00000000000E+00 0. -1.
         -2    1    6    6    0  503  0.23938261655E+03 -0.18414226195E+03 -0.50681475585E+02  0.30623687190E+03  0.00000000000E+00 0.  1.
<mgrwt>
<rscale>  0 0.13824790E+04</rscale>
<asrwt>0</asrwt>
<pdfrwt beam="1">  1        4 0.16880377E+00 0.13824790E+04</pdfrwt>
<pdfrwt beam="2">  1       -4 0.38389656E+00 0.13824790E+04</pdfrwt>
<totfact> 0.35453968E-03</totfact>
</mgrwt>
</event>
<event>
12    1  0.7781383E-008  0.6279890E+03  0.7818608E-02  0.9848981E-01
         -1   -1    0    0    0  501 -0.00000000000E+00  0.00000000000E+00  0.79757210604E+03  0.79757210604E+03  0.00000000000E+00 0.  1.
          1   -1    0    0  501    0  0.00000000000E+00 -0.00000000000E+00 -0.68945212918E+03  0.68945212918E+03  0.00000000000E+00 0. -1.
         23    2    1    2    0    0  0.64468533760E+02 -0.61229842741E+03  0.16553283605E+02  0.62243409353E+03  0.89914590228E+02 0.  0.
    5000000    2    1    2    0    0 -0.64468533760E+02  0.61229842741E+03  0.91566693256E+02  0.86459014170E+03  0.60005507893E+03 0.  0.
         23    2    4    4    0    0 -0.35550813646E+02  0.54340733157E+03  0.29687431691E+03  0.62635232180E+03  0.87335460337E+02 0.  0.
         23    2    4    4    0    0 -0.28917720113E+02  0.68891095848E+02 -0.20530762365E+03  0.23823781990E+03  0.94993793884E+02 0.  0.
          2    1    3    3  502    0 -0.24958300920E+01 -0.12175783239E+03 -0.29197341881E+02  0.12523451477E+03  0.00000000000E+00 0. -1.
         -2    1    3    3    0  502  0.66964363852E+02 -0.49054059502E+03  0.45750625486E+02  0.49719957876E+03  0.00000000000E+00 0.  1.
         15    1    5    5    0    0  0.21469931527E+02  0.10326230887E+03  0.79887893235E+02  0.13232269498E+03  0.17770000000E+01 0.  1.
        -15    1    5    5    0    0 -0.57020745174E+02  0.44014502270E+03  0.21698642367E+03  0.49402962682E+03  0.17770000000E+01 0. -1.
          3    1    6    6  503    0 -0.89033115129E+01  0.69204828047E+02 -0.61396942523E+02  0.92941711476E+02  0.00000000000E+00 0. -1.
         -3    1    6    6    0  503 -0.20014408601E+02 -0.31373219931E+00 -0.14391068113E+03  0.14529610842E+03  0.00000000000E+00 0.  1.
<mgrwt>
<rscale>  0 0.62798901E+03</rscale>
<asrwt>0</asrwt>
<pdfrwt beam="1">  1        1 0.10606956E+00 0.62798901E+03</pdfrwt>
<pdfrwt beam="2">  1       -1 0.12270340E+00 0.62798901E+03</pdfrwt>
<totfact> 0.17055037E+01</totfact>
</mgrwt>
</event>
<event>
12    1  0.7781383E-008  0.5549142E+03  0.7818608E-02  0.1000363E+00
         -3   -1    0    0    0  501 -0.00000000000E+00  0.00000000000E+00  0.11831207390E+04  0.11831207390E+04  0.00000000000E+00 0.  1.
          3   -1    0    0  501    0  0.00000000000E+00 -0.00000000000E+00 -0.30090625315E+03  0.30090625315E+03  0.00000000000E+00 0. -1.
         23    2    1    2    0    0  0.28463153206E+02  0.41084525547E+03  0.13905325605E+03  0.44391249141E+03  0.90102813351E+02 0.  0.
    5000000    2    1    2    0    0 -0.28463153206E+02 -0.41084525547E+03  0.74316122976E+03  0.10401145007E+04  0.59995465338E+03 0.  0.
         23    2    4    4    0    0  0.64240353702E+02  0.11661371914E+03  0.70485159746E+02  0.17514565941E+03  0.89343504131E+02 0.  0.
         23    2    4    4    0    0 -0.92703506908E+02 -0.52745897461E+03  0.67267607001E+03  0.86496884129E+03  0.94186470065E+02 0.  0.
          1    1    3    3  502    0  0.44686398094E+02  0.10442469872E+03  0.23258244267E+02  0.11594109627E+03  0.00000000000E+00 0. -1.
         -1    1    3    3    0  502 -0.16223244888E+02  0.30642055675E+03  0.11579501178E+03  0.32797139514E+03  0.00000000000E+00 0.  1.
         15    1    5    5    0    0  0.77245079293E+02  0.84192540996E+02  0.79277637272E+02  0.13908014860E+03  0.17770000000E+01 0. -1.
        -15    1    5    5    0    0 -0.13004725591E+02  0.32421178143E+02 -0.87924775257E+01  0.36065510809E+02  0.17770000000E+01 0.  1.
          2    1    6    6  503    0 -0.52567756141E+02 -0.44849457594E+03  0.59645398506E+03  0.74810969111E+03  0.00000000000E+00 0. -1.
         -2    1    6    6    0  503 -0.40135750767E+02 -0.78964398668E+02  0.76222084954E+02  0.11685915018E+03  0.00000000000E+00 0.  1.
<mgrwt>
<rscale>  0 0.55491416E+03</rscale>
<asrwt>0</asrwt>
<pdfrwt beam="1">  1        3 0.46293270E-01 0.55491416E+03</pdfrwt>
<pdfrwt beam="2">  1       -3 0.18201857E+00 0.55491416E+03</pdfrwt>
<totfact> 0.23428607E+00</totfact>
</mgrwt>
</event>
<event>
12    1  0.7781383E-008  0.1517931E+04  0.7818608E-02  0.8872616E-01
          2   -1    0    0  501    0  0.00000000000E+00  0.00000000000E+00  0.38972773396E+04  0.38972773396E+04  0.00000000000E+00 0. -1.
         -2   -1    0    0    0  501 -0.00000000000E+00 -0.00000000000E+00 -0.11766915169E+04  0.11766915169E+04  0.00000000000E+00 0.  1.
         23    2    1    2    0    0  0.17654372282E+03  0.14608729041E+04  0.31065782244E+04  0.34386616275E+04  0.90819580328E+02 0.  0.
    5000000    2    1    2    0    0 -0.17654372282E+03 -0.14608729041E+04 -0.38599240163E+03  0.16353072290E+04  0.59993522226E+03 0.  0.
         23    2    4    4    0    0  0.17879675120E+03 -0.60371003439E+03 -0.28597575796E+03  0.69745349963E+03  0.90692701723E+02 0.  0.
         23    2    4    4    0    0 -0.35534047402E+03 -0.85716286973E+03 -0.10001664366E+03  0.93785372932E+03  0.92581050291E+02 0.  0.
          1    1    3    3  502    0  0.80199450471E+02  0.85080569971E+03  0.17121098096E+04  0.19135365924E+04  0.00000000000E+00 0. -1.
         -1    1    3    3    0  502  0.96344272347E+02  0.61006720442E+03  0.13944684148E+04  0.15251250350E+04  0.00000000000E+00 0.  1.
         15    1    5    5    0    0  0.16563066292E+03 -0.46584954440E+03 -0.19359824523E+03  0.53097340122E+03  0.17770000000E+01 0.  1.
        -15    1    5    5    0    0  0.13166088286E+02 -0.13786048999E+03 -0.92377512731E+02  0.16648009842E+03  0.17770000000E+01 0. -1.
          1    1    6    6  503    0 -0.10781768623E+03 -0.18082814930E+03  0.14445232441E+01  0.21053636192E+03  0.00000000000E+00 0. -1.
         -1    1    6    6    0  503 -0.24752278779E+03 -0.67633472043E+03 -0.10146116691E+03  0.72731736740E+03  0.00000000000E+00 0.  1.
<mgrwt>
<rscale>  0 0.15179314E+04</rscale>
<asrwt>0</asrwt>
<pdfrwt beam="1">  1        2 0.59958112E+00 0.15179314E+04</pdfrwt>
<pdfrwt beam="2">  1       -2 0.18102947E+00 0.15179314E+04</pdfrwt>
<totfact> 0.70229034E-02</totfact>
</mgrwt>
</event>
<event>
12    1  0.7781383E-008  0.7926329E+03  0.7818608E-02  0.9570742E-01
          2   -1    0    0  501    0  0.00000000000E+00  0.00000000000E+00  0.99456685967E+03  0.99456685967E+03  0.00000000000E+00 0. -1.
         -2   -1    0    0    0  501 -0.00000000000E+00 -0.00000000000E+00 -0.71626154142E+03  0.71626154142E+03  0.00000000000E+00 0.  1.
         23    2    1    2    0    0  0.49644440213E+03 -0.52009876053E+03 -0.29196147155E+02  0.72515227011E+03  0.89630545744E+02 0.  0.
    5000000    2    1    2    0    0 -0.49644440213E+03  0.52009876053E+03  0.30750146540E+03  0.98567613097E+03  0.60003376475E+03 0.  0.
         23    2    4    4    0    0  0.24469567320E+02  0.28142952662E+03 -0.54772147091E+02  0.30168492612E+03  0.90622670330E+02 0.  0.
         23    2    4    4    0    0 -0.52091396945E+03  0.23866923391E+03  0.36227361249E+03  0.68399120485E+03  0.91035329531E+02 0.  0.
          1    1    3    3  502    0  0.39494882840E+03 -0.46072896662E+03 -0.29690516690E+02  0.60756669142E+03  0.00000000000E+00 0. -1.
         -1    1    3    3    0  502  0.10149557373E+03 -0.59369793903E+02  0.49436953457E+00  0.11758557869E+03  0.00000000000E+00 0.  1.
         15    1    5    5    0    0 -0.11108940951E+02  0.17759662899E+03  0.22873967377E+01  0.17796730348E+03  0.17770000000E+01 0.  1.
        -15    1    5    5    0    0  0.35578508271E+02  0.10383289763E+03 -0.57059543828E+02  0.12371762264E+03  0.17770000000E+01 0. -1.
          4    1    6    6  503    0 -0.48982135687E+03  0.22122011332E+03  0.36259574963E+03  0.64833554417E+03  0.00000000000E+00 0. -1.
         -4    1    6    6    0  503 -0.31092612581E+02  0.17449120586E+02 -0.32213713740E+00  0.35655660682E+02  0.00000000000E+00 0.  1.
<mgrwt>
<rscale>  0 0.79263293E+03</rscale>
<asrwt>0</asrwt>
<pdfrwt beam="1">  1        2 0.15301029E+00 0.79263293E+03</pdfrwt>
<pdfrwt beam="2">  1       -2 0.11019408E+00 0.79263293E+03</pdfrwt>
<totfact> 0.16813262E+01</totfact>
</mgrwt>
</event>
<event>
12    1  0.7781383E-008  0.1024674E+04  0.7818608E-02  0.9281890E-01
          2   -1    0    0  501    0  0.00000000000E+00  0.00000000000E+00  0.66831661504E+03  0.66831661504E+03  0.00000000000E+00 0. -1.
         -2   -1    0    0    0  501 -0.00000000000E+00 -0.00000000000E+00 -0.16716209303E+04  0.16716209303E+04  0.00000000000E+00 0.  1.
         23    2    1    2    0    0  0.91295380270E+03 -0.29696455071E+03 -0.31958966843E+03  0.10172885342E+04  0.10519417982E+03 0.  0.
    5000000    2    1    2    0    0 -0.91295380270E+03  0.29696455071E+03 -0.68371464681E+03  0.13226490111E+04  0.60021837526E+03 0.  0.
         23    2    4    4    0    0 -0.90777368698E+03  0.38811992760E+03 -0.65545622036E+03  0.11886860240E+04  0.93066974482E+02 0.  0.
         23    2    4    4    0    0 -0.51801157185E+01 -0.91155376895E+02 -0.28258426446E+02  0.13396298713E+03  0.93869094589E+02 0.  0.
          3    1    3    3  502    0  0.63152575666E+03 -0.21933564037E+03 -0.27083311908E+03  0.72130678830E+03  0.00000000000E+00 0. -1.
         -3    1    3    3    0  502  0.28142804604E+03 -0.77628910337E+02 -0.48756549352E+02  0.29598174593E+03  0.00000000000E+00 0.  1.
         15    1    5    5    0    0 -0.54910862593E+03  0.28376485107E+03 -0.40870741169E+03  0.74100450733E+03  0.17770000000E+01 0.  1.
        -15    1    5    5    0    0 -0.35866506105E+03  0.10435507653E+03 -0.24674880867E+03  0.44768151662E+03  0.17770000000E+01 0. -1.
          3    1    6    6  503    0  0.40484052530E+01 -0.87037935211E+02 -0.56581218458E+02  0.10389141463E+03  0.00000000000E+00 0. -1.
         -3    1    6    6    0  503 -0.92285209716E+01 -0.41174416842E+01  0.28322792011E+02  0.30071572501E+02  0.00000000000E+00 0.  1.
<mgrwt>
<rscale>  0 0.10246735E+04</rscale>
<asrwt>0</asrwt>
<pdfrwt beam="1">  1        2 0.10281794E+00 0.10246735E+04</pdfrwt>
<pdfrwt beam="2">  1       -2 0.25717245E+00 0.10246735E+04</pdfrwt>
<totfact> 0.25132472E+00</totfact>
</mgrwt>
</event>
<event>
12    1  0.7781383E-008  0.6548508E+03  0.7818608E-02  0.9797719E-01
          2   -1    0    0  501    0  0.00000000000E+00  0.00000000000E+00  0.82825993212E+03  0.82825993212E+03  0.00000000000E+00 0. -1.
         -2   -1    0    0    0  501 -0.00000000000E+00 -0.00000000000E+00 -0.70459358588E+03  0.70459358588E+03  0.00000000000E+00 0.  1.
         23    2    1    2    0    0  0.54140564469E+02 -0.63981389946E+03  0.63601671579E+02  0.65198291004E+03  0.93506768188E+02 0.  0.
    5000000    2    1    2    0    0 -0.54140564469E+02  0.63981389946E+03  0.60064674656E+02  0.88087060795E+03  0.60002686286E+03 0.  0.
         23    2    4    4    0    0 -0.53617048851E+02  0.40113675643E+03 -0.24521962952E+03  0.48215986027E+03  0.92520153811E+02 0.  0.
         23    2    4    4    0    0 -0.52351561736E+00  0.23867714303E+03  0.30528430418E+03  0.39871074769E+03  0.93833369726E+02 0.  0.
          4    1    3    3  502    0  0.13864725270E+02 -0.37822234404E+03  0.79860303968E+02  0.38681008298E+03  0.00000000000E+00 0. -1.
         -4    1    3    3    0  502  0.40275839199E+02 -0.26159155541E+03 -0.16258632389E+02  0.26517282707E+03  0.00000000000E+00 0.  1.
         15    1    5    5    0    0 -0.99305712937E+01  0.30434583656E+03 -0.14971541950E+03  0.33932708268E+03  0.17770000000E+01 0. -1.
        -15    1    5    5    0    0 -0.43686477557E+02  0.96790919874E+02 -0.95504210025E+02  0.14283277759E+03  0.17770000000E+01 0.  1.
          1    1    6    6  503    0  0.36346417240E+02  0.41200934109E+02  0.77470710246E+02  0.94975207100E+02  0.00000000000E+00 0. -1.
         -1    1    6    6    0  503 -0.36869932857E+02  0.19747620892E+03  0.22781359393E+03  0.30373554059E+03  0.00000000000E+00 0.  1.
<mgrwt>
<rscale>  0 0.65485079E+03</rscale>
<asrwt>0</asrwt>
<pdfrwt beam="1">  1        2 0.12742460E+00 0.65485079E+03</pdfrwt>
<pdfrwt beam="2">  1       -2 0.10839901E+00 0.65485079E+03</pdfrwt>
<totfact> 0.22932696E+01</totfact>
</mgrwt>
</event>
<event>
12    1  0.7781383E-008  0.1235843E+04  0.7818608E-02  0.9082049E-01
         -2   -1    0    0    0  501 -0.00000000000E+00  0.00000000000E+00  0.13342799715E+04  0.13342799715E+04  0.00000000000E+00 0.  1.
          2   -1    0    0  501    0  0.00000000000E+00 -0.00000000000E+00 -0.14807140364E+04  0.14807140364E+04  0.00000000000E+00 0. -1.
         23    2    1    2    0    0 -0.36479208020E+03  0.11566305783E+04  0.50045105901E+03  0.13152134050E+04  0.92018921618E+02 0.  0.
    5000000    2    1    2    0    0  0.36479208020E+03 -0.11566305783E+04 -0.64688512395E+03  0.14997806029E+04  0.60001161402E+03 0.  0.
         23    2    4    4    0    0  0.30900054966E+03 -0.11064946955E+04 -0.38827193324E+03  0.12157986329E+04  0.87174370605E+02 0.  0.
         23    2    4    4    0    0  0.55791530536E+02 -0.50135882791E+02 -0.25861319071E+03  0.28398196999E+03  0.90214606611E+02 0.  0.
          2    1    3    3  502    0 -0.28398795038E+03  0.10006567119E+04  0.44049539112E+03  0.11296013459E+04  0.00000000000E+00 0. -1.
         -2    1    3    3    0  502 -0.80804129814E+02  0.15597386634E+03  0.59955667886E+02  0.18561205911E+03  0.00000000000E+00 0.  1.
         15    1    5    5    0    0  0.23762405529E+03 -0.93896887321E+03 -0.30416559862E+03  0.10152081588E+04  0.17770000000E+01 0.  1.
        -15    1    5    5    0    0  0.71376494375E+02 -0.16752582228E+03 -0.84106334619E+02  0.20059047418E+03  0.17770000000E+01 0. -1.
          4    1    6    6  503    0  0.68816955888E+02 -0.18956689936E+02 -0.10682747841E+03  0.12848050301E+03  0.00000000000E+00 0.  1.
         -4    1    6    6    0  503 -0.13025425352E+02 -0.31179192855E+02 -0.15178571230E+03  0.15550146698E+03  0.00000000000E+00 0. -1.
<mgrwt>
<rscale>  0 0.12358425E+04</rscale>
<asrwt>0</asrwt>
<pdfrwt beam="1">  1        2 0.22780216E+00 0.12358425E+04</pdfrwt>
<pdfrwt beam="2">  1       -2 0.20527384E+00 0.12358425E+04</pdfrwt>
<totfact> 0.15453709E+00</totfact>
</mgrwt>
</event>
<event>
12    1  0.7781383E-008  0.1374449E+04  0.7818608E-02  0.8972524E-01
          1   -1    0    0  501    0  0.00000000000E+00  0.00000000000E+00  0.29642230206E+04  0.29642230206E+04  0.00000000000E+00 0. -1.
         -1   -1    0    0    0  501 -0.00000000000E+00 -0.00000000000E+00 -0.69366884310E+03  0.69366884310E+03  0.00000000000E+00 0.  1.
         23    2    1    2    0    0 -0.10577160403E+04 -0.84836253187E+03  0.13335359027E+04  0.19039164596E+04  0.89987077021E+02 0.  0.
    5000000    2    1    2    0    0  0.10577160403E+04  0.84836253187E+03  0.93701827479E+03  0.17539754041E+04  0.59995355120E+03 0.  0.
         23    2    4    4    0    0  0.12320496094E+03  0.24992790764E+03  0.45354021389E+03  0.53998417931E+03  0.90778669696E+02 0.  0.
         23    2    4    4    0    0  0.93451107933E+03  0.59843462423E+03  0.48347806090E+03  0.12139912248E+04  0.92675248281E+02 0.  0.
          4    1    3    3  502    0 -0.23045527172E+03 -0.21190241705E+03  0.26463670842E+03  0.40993274333E+03  0.00000000000E+00 0. -1.
         -4    1    3    3    0  502 -0.82726076855E+03 -0.63646011483E+03  0.10688991943E+04  0.14939837163E+04  0.00000000000E+00 0.  1.
         15    1    5    5    0    0  0.97114928499E+02  0.21257302663E+03  0.30283757333E+03  0.38253412206E+03  0.17770000000E+01 0.  1.
        -15    1    5    5    0    0  0.26090032437E+02  0.37354881007E+02  0.15070264056E+03  0.15745005725E+03  0.17770000000E+01 0. -1.
          3    1    6    6  503    0  0.83401829583E+03  0.50181835910E+03  0.43798884635E+03  0.10673529935E+04  0.00000000000E+00 0. -1.
         -3    1    6    6    0  503  0.10049278350E+03  0.96616265135E+02  0.45489214556E+02  0.14663823125E+03  0.00000000000E+00 0.  1.
<mgrwt>
<rscale>  0 0.13744485E+04</rscale>
<asrwt>0</asrwt>
<pdfrwt beam="1">  1        1 0.45603431E+00 0.13744485E+04</pdfrwt>
<pdfrwt beam="2">  1       -1 0.10671828E+00 0.13744485E+04</pdfrwt>
<totfact> 0.50577111E-01</totfact>
</mgrwt>
</event>
<event>
12    1  0.7781383E-008  0.5158257E+03  0.7818608E-02  0.1009729E+00
         -2   -1    0    0    0  501 -0.00000000000E+00  0.00000000000E+00  0.75224793032E+03  0.75224793032E+03  0.00000000000E+00 0.  1.
          2   -1    0    0  501    0  0.00000000000E+00 -0.00000000000E+00 -0.40141156226E+03  0.40141156226E+03  0.00000000000E+00 0. -1.
         23    2    1    2    0    0  0.66994745133E+02 -0.34902861999E+03 -0.12137426493E+02  0.36744723435E+03  0.92525020734E+02 0.  0.
    5000000    2    1    2    0    0 -0.66994745133E+02  0.34902861999E+03  0.36297379455E+03  0.78621225823E+03  0.60005871880E+03 0.  0.
         23    2    4    4    0    0 -0.11570360556E+03 -0.13638078346E+03  0.11195123960E+03  0.23011822400E+03  0.91838306447E+02 0.  0.
         23    2    4    4    0    0  0.48708860430E+02  0.48540940345E+03  0.25102255495E+03  0.55609403423E+03  0.90738138425E+02 0.  0.
          3    1    3    3  502    0  0.13359099428E+02 -0.14446046251E+02 -0.20600175880E+02  0.28487208289E+02  0.00000000000E+00 0. -1.
         -3    1    3    3    0  502  0.53635645705E+02 -0.33458257374E+03  0.84627493869E+01  0.33896002606E+03  0.00000000000E+00 0.  1.
         15    1    5    5    0    0 -0.19748183213E+02 -0.20280587276E+01  0.49900081672E+02  0.53733412717E+02  0.17770000000E+01 0. -1.
        -15    1    5    5    0    0 -0.95955422350E+02 -0.13435272474E+03  0.62051157926E+02  0.17638481128E+03  0.17770000000E+01 0.  1.
          1    1    6    6  503    0  0.14844890383E+02  0.89318098771E+02  0.88525458228E+02  0.12662878935E+03  0.00000000000E+00 0. -1.
         -1    1    6    6    0  503  0.33863970047E+02  0.39609130468E+03  0.16249709672E+03  0.42946524488E+03  0.00000000000E+00 0.  1.
<mgrwt>
<rscale>  0 0.51582572E+03</rscale>
<asrwt>0</asrwt>
<pdfrwt beam="1">  1        2 0.61755625E-01 0.51582572E+03</pdfrwt>
<pdfrwt beam="2">  1       -2 0.11573045E+00 0.51582572E+03</pdfrwt>
<totfact> 0.47339664E+01</totfact>
</mgrwt>
</event>
<event>
12    1  0.7781383E-008  0.6860851E+03  0.7818608E-02  0.9741329E-01
          1   -1    0    0  501    0  0.00000000000E+00  0.00000000000E+00  0.11834259537E+04  0.11834259537E+04  0.00000000000E+00 0. -1.
         -1   -1    0    0    0  501 -0.00000000000E+00 -0.00000000000E+00 -0.55551100900E+03  0.55551100900E+03  0.00000000000E+00 0.  1.
         23    2    1    2    0    0  0.21546466891E+03  0.61304117283E+03  0.29219213894E+01  0.65589327756E+03  0.89123233743E+02 0.  0.
    5000000    2    1    2    0    0 -0.21546466891E+03 -0.61304117283E+03  0.62499302333E+03  0.10830436852E+04  0.60010235927E+03 0.  0.
         23    2    4    4    0    0  0.67966888845E+02 -0.82118295071E+02 -0.69839964961E+02  0.15924728696E+03  0.95494320954E+02 0.  0.
         23    2    4    4    0    0 -0.28343155776E+03 -0.53092287776E+03  0.69483298829E+03  0.92379639819E+03  0.91620705268E+02 0.  0.
          1    1    3    3  502    0  0.18179054815E+03  0.39040155521E+03  0.62322811982E+01  0.43069713144E+03  0.00000000000E+00 0. -1.
         -1    1    3    3    0  502  0.33674120760E+02  0.22263961762E+03 -0.33103598088E+01  0.22519614612E+03  0.00000000000E+00 0.  1.
         15    1    5    5    0    0 -0.86763513003E+00  0.38087380660E+01 -0.46488002427E+02  0.46685665626E+02  0.17770000000E+01 0. -1.
        -15    1    5    5    0    0  0.68834523975E+02 -0.85927033137E+02 -0.23351962535E+02  0.11256162134E+03  0.17770000000E+01 0.  1.
          3    1    6    6  503    0 -0.22549248178E+03 -0.43160479816E+03  0.50268557455E+03  0.69987309421E+03  0.00000000000E+00 0. -1.
         -3    1    6    6    0  503 -0.57939075985E+02 -0.99318079597E+02  0.19214741374E+03  0.22392330398E+03  0.00000000000E+00 0.  1.
<mgrwt>
<rscale>  0 0.68608512E+03</rscale>
<asrwt>0</asrwt>
<pdfrwt beam="1">  1        1 0.18206553E+00 0.68608512E+03</pdfrwt>
<pdfrwt beam="2">  1       -1 0.85463232E-01 0.68608512E+03</pdfrwt>
<totfact> 0.15485070E+01</totfact>
</mgrwt>
</event>
<event>
12    1  0.7781383E-008  0.1107431E+04  0.7818608E-02  0.9197979E-01
         -2   -1    0    0    0  501 -0.00000000000E+00  0.00000000000E+00  0.10490272507E+04  0.10490272507E+04  0.00000000000E+00 0.  1.
          2   -1    0    0  501    0  0.00000000000E+00 -0.00000000000E+00 -0.13321608849E+04  0.13321608849E+04  0.00000000000E+00 0. -1.
         23    2    1    2    0    0  0.56443151918E+03  0.90583680919E+03  0.15159019228E+03  0.10819239900E+04  0.91960148497E+02 0.  0.
    5000000    2    1    2    0    0 -0.56443151918E+03 -0.90583680919E+03 -0.43472382648E+03  0.12992641456E+04  0.59998270805E+03 0.  0.
         23    2    4    4    0    0 -0.59352806017E+03 -0.61962253854E+03 -0.13523122315E+03  0.87333837641E+03  0.90690614374E+02 0.  0.
         23    2    4    4    0    0  0.29096540988E+02 -0.28621427065E+03 -0.29949260333E+03  0.42592576917E+03  0.94613550659E+02 0.  0.
          2    1    3    3  502    0  0.22725281691E+03  0.37868637914E+03  0.17680911863E+02  0.44199528412E+03  0.00000000000E+00 0. -1.
         -2    1    3    3    0  502  0.33717870227E+03  0.52715043005E+03  0.13390928042E+03  0.63992870583E+03  0.00000000000E+00 0.  1.
         15    1    5    5    0    0 -0.39770078044E+03 -0.42918740359E+03 -0.50320626842E+02  0.58728448079E+03  0.17770000000E+01 0. -1.
        -15    1    5    5    0    0 -0.19582727973E+03 -0.19043513495E+03 -0.84910596305E+02  0.28605389563E+03  0.17770000000E+01 0.  1.
          4    1    6    6  503    0  0.10408463280E+02 -0.22329562309E+03 -0.17030717872E+03  0.28102278648E+03  0.00000000000E+00 0. -1.
         -4    1    6    6    0  503  0.18688077708E+02 -0.62918647567E+02 -0.12918542461E+03  0.14490298269E+03  0.00000000000E+00 0.  1.
<mgrwt>
<rscale>  0 0.11074310E+04</rscale>
<asrwt>0</asrwt>
<pdfrwt beam="1">  1        2 0.20494783E+00 0.11074310E+04</pdfrwt>
<pdfrwt beam="2">  1       -2 0.16138881E+00 0.11074310E+04</pdfrwt>
<totfact> 0.38190547E+00</totfact>
</mgrwt>
</event>
<event>
12    1  0.7781383E-008  0.7901188E+03  0.7818608E-02  0.9574431E-01
         -1   -1    0    0    0  501 -0.00000000000E+00  0.00000000000E+00  0.76842863097E+03  0.76842863097E+03  0.00000000000E+00 0.  1.
          1   -1    0    0  501    0  0.00000000000E+00 -0.00000000000E+00 -0.11441997947E+04  0.11441997947E+04  0.00000000000E+00 0. -1.
         23    2    1    2    0    0  0.55549562360E+03  0.44145679419E+03  0.28781114053E+03  0.77071834877E+03  0.87818173204E+02 0.  0.
    5000000    2    1    2    0    0 -0.55549562360E+03 -0.44145679419E+03 -0.66358230427E+03  0.11419100769E+04  0.60013136913E+03 0.  0.
         23    2    4    4    0    0 -0.14135875951E+03  0.10081156737E+03 -0.31234955479E+03  0.36912364040E+03  0.92437798112E+02 0.  0.
         23    2    4    4    0    0 -0.41413686409E+03 -0.54226836156E+03 -0.35123274948E+03  0.77278643650E+03  0.90940167085E+02 0.  0.
          4    1    3    3  502    0  0.26611107315E+03  0.19183157877E+03  0.88895238832E+02  0.33987765645E+03  0.00000000000E+00 0. -1.
         -4    1    3    3    0  502  0.28938455045E+03  0.24962521542E+03  0.19891590170E+03  0.43084069232E+03  0.00000000000E+00 0.  1.
         15    1    5    5    0    0 -0.27780614793E+02  0.53541915945E+02 -0.46497478225E+02  0.76181838594E+02  0.17770000000E+01 0. -1.
        -15    1    5    5    0    0 -0.11357814472E+03  0.47269651426E+02 -0.26585207656E+03  0.29294180180E+03  0.17770000000E+01 0.  1.
          1    1    6    6  503    0 -0.40510936400E+03 -0.50050395778E+03 -0.34190194633E+03  0.72905058087E+03  0.00000000000E+00 0. -1.
         -1    1    6    6    0  503 -0.90275000853E+01 -0.41764403779E+02 -0.93308031499E+01  0.43735855636E+02  0.00000000000E+00 0.  1.
<mgrwt>
<rscale>  0 0.79011876E+03</rscale>
<asrwt>0</asrwt>
<pdfrwt beam="1">  1        1 0.17603074E+00 0.79011876E+03</pdfrwt>
<pdfrwt beam="2">  1       -1 0.11821979E+00 0.79011876E+03</pdfrwt>
<totfact> 0.77652231E+00</totfact>
</mgrwt>
</event>
<event>
12    1  0.7781383E-008  0.5688198E+03  0.7818608E-02  0.9972294E-01
         -2   -1    0    0    0  501 -0.00000000000E+00  0.00000000000E+00  0.25591262469E+03  0.25591262469E+03  0.00000000000E+00 0.  1.
          2   -1    0    0  501    0  0.00000000000E+00 -0.00000000000E+00 -0.15375801707E+04  0.15375801707E+04  0.00000000000E+00 0. -1.
         23    2    1    2    0    0  0.47465552477E+03 -0.58444629650E+02 -0.52321269174E+03  0.71455328332E+03  0.90117878243E+02 0.  0.
    5000000    2    1    2    0    0 -0.47465552477E+03  0.58444629650E+02 -0.75845485431E+03  0.10789395121E+04  0.60011920718E+03 0.  0.
         23    2    4    4    0    0 -0.19146297233E+03 -0.17406020311E+03 -0.61792327268E+03  0.67588929586E+03  0.89678008774E+02 0.  0.
         23    2    4    4    0    0 -0.28319255244E+03  0.23250483276E+03 -0.14053158163E+03  0.40305021625E+03  0.91890327917E+02 0.  0.
          2    1    3    3  502    0  0.37942230667E+03 -0.97604157881E+01 -0.41552311136E+03  0.56277527361E+03  0.00000000000E+00 0. -1.
         -2    1    3    3    0  502  0.95233218101E+02 -0.48684213862E+02 -0.10768958038E+03  0.15177800971E+03  0.00000000000E+00 0.  1.
         15    1    5    5    0    0 -0.19836998974E+03 -0.15071374240E+03 -0.55303099725E+03  0.60655727399E+03  0.17770000000E+01 0. -1.
        -15    1    5    5    0    0  0.69070174157E+01 -0.23346460710E+02 -0.64892275429E+02  0.69332021870E+02  0.17770000000E+01 0.  1.
          4    1    6    6  503    0 -0.22796302981E+03  0.13337877783E+03 -0.92767099456E+02  0.27993352082E+03  0.00000000000E+00 0. -1.
         -4    1    6    6    0  503 -0.55229522633E+02  0.99126054928E+02 -0.47764482179E+02  0.12311669543E+03  0.00000000000E+00 0.  1.
<mgrwt>
<rscale>  0 0.56881984E+03</rscale>
<asrwt>0</asrwt>
<pdfrwt beam="1">  1        2 0.23655079E+00 0.56881984E+03</pdfrwt>
<pdfrwt beam="2">  1       -2 0.39371174E-01 0.56881984E+03</pdfrwt>
<totfact> 0.76786702E+01</totfact>
</mgrwt>
</event>
<event>
12    1  0.7781383E-008  0.1023397E+04  0.7818608E-02  0.9283249E-01
          1   -1    0    0  501    0  0.00000000000E+00  0.00000000000E+00  0.15621206364E+04  0.15621206364E+04  0.00000000000E+00 0. -1.
         -1   -1    0    0    0  501 -0.00000000000E+00 -0.00000000000E+00 -0.71365162945E+03  0.71365162945E+03  0.00000000000E+00 0.  1.
         23    2    1    2    0    0  0.48395070530E+03  0.80417229783E+03  0.64677051735E+03  0.11436134393E+04  0.92942060376E+02 0.  0.
    5000000    2    1    2    0    0 -0.48395070530E+03 -0.80417229783E+03  0.20169848962E+03  0.11321588266E+04  0.60016660869E+03 0.  0.
         23    2    4    4    0    0 -0.19329729669E+02 -0.58571519951E+03  0.12005136847E+03  0.60458620438E+03  0.87614006087E+02 0.  0.
         23    2    4    4    0    0 -0.46462097563E+03 -0.21845709832E+03  0.81647121148E+02  0.52757262223E+03  0.89835764220E+02 0.  0.
          4    1    3    3  502    0  0.39018784869E+03  0.68800834393E+03  0.50976201036E+03  0.94098849397E+03  0.00000000000E+00 0. -1.
         -4    1    3    3    0  502  0.93762856607E+02  0.11616395390E+03  0.13700850699E+03  0.20262494529E+03  0.00000000000E+00 0.  1.
         15    1    5    5    0    0 -0.89643866453E+01 -0.49421631759E+03  0.68458630787E+02  0.49901890811E+03  0.17770000000E+01 0. -1.
        -15    1    5    5    0    0 -0.10365343024E+02 -0.91498881924E+02  0.51592737683E+02  0.10556729626E+03  0.17770000000E+01 0.  1.
          1    1    6    6  503    0 -0.24280484863E+03 -0.15995585351E+03  0.62299947375E+02  0.29735728178E+03  0.00000000000E+00 0. -1.
         -1    1    6    6    0  503 -0.22181612700E+03 -0.58501244817E+02  0.19347173773E+02  0.23021534045E+03  0.00000000000E+00 0.  1.
<mgrwt>
<rscale>  0 0.10233971E+04</rscale>
<asrwt>0</asrwt>
<pdfrwt beam="1">  1        1 0.24032625E+00 0.10233971E+04</pdfrwt>
<pdfrwt beam="2">  1       -1 0.10979256E+00 0.10233971E+04</pdfrwt>
<totfact> 0.45569210E+00</totfact>
</mgrwt>
</event>
<event>
12    1  0.7781383E-008  0.1455640E+04  0.7818608E-02  0.8914499E-01
          1   -1    0    0  501    0  0.00000000000E+00  0.00000000000E+00  0.29018705020E+04  0.29018705020E+04  0.00000000000E+00 0. -1.
         -1   -1    0    0    0  501 -0.00000000000E+00 -0.00000000000E+00 -0.97426265476E+03  0.97426265476E+03  0.00000000000E+00 0.  1.
         23    2    1    2    0    0  0.14156303721E+04 -0.16359731629E+03  0.18378145371E+04  0.23273338362E+04  0.90261178009E+02 0.  0.
    5000000    2    1    2    0    0 -0.14156303721E+04  0.16359731629E+03  0.89793310218E+02  0.15487993206E+04  0.59995255187E+03 0.  0.
         23    2    4    4    0    0 -0.78328937863E+03 -0.10880820016E+03  0.25257910108E+03  0.83579431903E+03  0.96821827709E+02 0.  0.
         23    2    4    4    0    0 -0.63234099348E+03  0.27240551645E+03 -0.16278579086E+03  0.71300500154E+03  0.88413919072E+02 0.  0.
          1    1    3    3  502    0  0.75267059146E+03 -0.11778888007E+03  0.10352799403E+04  0.12853761295E+04  0.00000000000E+00 0. -1.
         -1    1    3    3    0  502  0.66295978065E+03 -0.45808436214E+02  0.80253459679E+03  0.10419577067E+04  0.00000000000E+00 0.  1.
         15    1    5    5    0    0 -0.90454499316E+02  0.52387237136E+01  0.56407674258E+02  0.10674476154E+03  0.17770000000E+01 0. -1.
        -15    1    5    5    0    0 -0.69283487932E+03 -0.11404692388E+03  0.19617142682E+03  0.72904955749E+03  0.17770000000E+01 0.  1.
          2    1    6    6  503    0 -0.38185685170E+03  0.12661008549E+03 -0.67531839946E+02  0.40792807986E+03  0.00000000000E+00 0.  1.
         -2    1    6    6    0  503 -0.25048414179E+03  0.14579543096E+03 -0.95253950915E+02  0.30507692168E+03  0.00000000000E+00 0. -1.
<mgrwt>
<rscale>  0 0.14556405E+04</rscale>
<asrwt>0</asrwt>
<pdfrwt beam="1">  1        1 0.44644161E+00 0.14556405E+04</pdfrwt>
<pdfrwt beam="2">  1       -1 0.14988656E+00 0.14556405E+04</pdfrwt>
<totfact> 0.23558399E-01</totfact>
</mgrwt>
</event>
<event>
12    1  0.7781383E-008  0.4829977E+03  0.7818608E-02  0.1018315E+00
          1   -1    0    0  501    0  0.00000000000E+00  0.00000000000E+00  0.74045346563E+03  0.74045346563E+03  0.00000000000E+00 0. -1.
         -1   -1    0    0    0  501 -0.00000000000E+00 -0.00000000000E+00 -0.60445946563E+03  0.60445946563E+03  0.00000000000E+00 0.  1.
         23    2    1    2    0    0  0.32663092217E+03 -0.19750254139E+02 -0.36536404151E+03  0.49869618803E+03  0.90161928019E+02 0.  0.
    5000000    2    1    2    0    0 -0.32663092217E+03  0.19750254139E+02  0.50135804151E+03  0.84621674323E+03  0.59803432918E+03 0.  0.
         23    2    4    4    0    0  0.14853824537E+03  0.52503928993E+02  0.60271307175E+02  0.19077983088E+03  0.89129347055E+02 0.  0.
         23    2    4    4    0    0 -0.47516916754E+03 -0.32753674854E+02  0.44108673434E+03  0.65543691235E+03  0.90451632699E+02 0.  0.
          2    1    3    3  502    0  0.85162506275E+02 -0.19363630607E+02 -0.15744870953E+03  0.18004915662E+03  0.00000000000E+00 0.  1.
         -2    1    3    3    0  502  0.24146841590E+03 -0.38662353217E+00 -0.20791533198E+03  0.31864703141E+03  0.00000000000E+00 0. -1.
         15    1    5    5    0    0  0.53813425742E+02  0.12330139361E+02  0.67971033708E+02  0.87585023143E+02  0.17770000000E+01 0. -1.
        -15    1    5    5    0    0  0.94724819628E+02  0.40173789632E+02 -0.76997265331E+01  0.10319480774E+03  0.17770000000E+01 0.  1.
          1    1    6    6  503    0 -0.40052664309E+03 -0.86884834014E+01  0.40301310251E+03  0.56825754933E+03  0.00000000000E+00 0. -1.
         -1    1    6    6    0  503 -0.74642524454E+02 -0.24065191453E+02  0.38073631826E+02  0.87179363022E+02  0.00000000000E+00 0.  1.
<mgrwt>
<rscale>  0 0.48299772E+03</rscale>
<asrwt>0</asrwt>
<pdfrwt beam="1">  1        1 0.11391592E+00 0.48299772E+03</pdfrwt>
<pdfrwt beam="2">  1       -1 0.92993764E-01 0.48299772E+03</pdfrwt>
<totfact> 0.29795867E+01</totfact>
</mgrwt>
</event>
<event>
12    1  0.7781383E-008  0.1265576E+04  0.7818608E-02  0.9057318E-01
          2   -1    0    0  501    0  0.00000000000E+00  0.00000000000E+00  0.25021280340E+04  0.25021280340E+04  0.00000000000E+00 0. -1.
         -2   -1    0    0    0  501 -0.00000000000E+00 -0.00000000000E+00 -0.10135953834E+04  0.10135953834E+04  0.00000000000E+00 0.  1.
         23    2    1    2    0    0  0.12992642337E+03  0.12027265437E+04 -0.32392610472E+03  0.12555757606E+04  0.90057509531E+02 0.  0.
    5000000    2    1    2    0    0 -0.12992642337E+03 -0.12027265437E+04  0.18124587552E+04  0.22601476568E+04  0.59985721353E+03 0.  0.
         23    2    4    4    0    0  0.89221596285E+02 -0.36103098307E+02  0.34867127122E+03  0.37333416957E+03  0.92427376061E+02 0.  0.
         23    2    4    4    0    0 -0.21914801965E+03 -0.11666234454E+04  0.14637874840E+04  0.18868134872E+04  0.91406888755E+02 0.  0.
          2    1    3    3  502    0  0.21284407511E+02  0.58325624465E+03 -0.17396769242E+03  0.60902022211E+03  0.00000000000E+00 0. -1.
         -2    1    3    3    0  502  0.10864201586E+03  0.61947029902E+03 -0.14995841230E+03  0.64655553853E+03  0.00000000000E+00 0.  1.
         15    1    5    5    0    0  0.81127984285E+02  0.12626639224E+02  0.24678661530E+03  0.26009223955E+03  0.17770000000E+01 0.  1.
        -15    1    5    5    0    0  0.80936120001E+01 -0.48729737532E+02  0.10188465592E+03  0.11324193003E+03  0.17770000000E+01 0. -1.
          4    1    6    6  503    0 -0.81152672743E+02 -0.42949698679E+03  0.47026046497E+03  0.64202673065E+03  0.00000000000E+00 0.  1.
         -4    1    6    6    0  503 -0.13799534691E+03 -0.73712645857E+03  0.99352701904E+03  0.12447867565E+04  0.00000000000E+00 0. -1.
<mgrwt>
<rscale>  0 0.12655756E+04</rscale>
<asrwt>0</asrwt>
<pdfrwt beam="1">  1        2 0.38494277E+00 0.12655756E+04</pdfrwt>
<pdfrwt beam="2">  1       -2 0.15593775E+00 0.12655756E+04</pdfrwt>
<totfact> 0.90868706E-01</totfact>
</mgrwt>
</event>
<event>
12    1  0.7781383E-008  0.7785923E+03  0.7818608E-02  0.9591532E-01
         -1   -1    0    0    0  501 -0.00000000000E+00  0.00000000000E+00  0.63699710352E+03  0.63699710352E+03  0.00000000000E+00 0.  1.
          1   -1    0    0  501    0  0.00000000000E+00 -0.00000000000E+00 -0.11486052290E+04  0.11486052290E+04  0.00000000000E+00 0. -1.
         23    2    1    2    0    0  0.51301582853E+03  0.48450421518E+03  0.30907793651E+02  0.71219932156E+03  0.91340062791E+02 0.  0.
    5000000    2    1    2    0    0 -0.51301582853E+03 -0.48450421518E+03 -0.54251591909E+03  0.10734030109E+04  0.59995077007E+03 0.  0.
         23    2    4    4    0    0 -0.23978527491E+03  0.48411633150E+02 -0.35292351317E+03  0.43900181303E+03  0.91251966590E+02 0.  0.
         23    2    4    4    0    0 -0.27323055362E+03 -0.53291584833E+03 -0.18959240592E+03  0.63440119788E+03  0.88686879829E+02 0.  0.
          4    1    3    3  502    0  0.74058950554E+02  0.70097415257E+02 -0.27767902703E+02  0.10568553450E+03  0.00000000000E+00 0. -1.
         -4    1    3    3    0  502  0.43895687798E+03  0.41440679993E+03  0.58675696354E+02  0.60651378706E+03  0.00000000000E+00 0.  1.
         15    1    5    5    0    0 -0.22193164778E+03  0.25577889512E+02 -0.26608647911E+03  0.34743784598E+03  0.17770000000E+01 0.  1.
        -15    1    5    5    0    0 -0.17853627129E+02  0.22833743638E+02 -0.86837034057E+02  0.91563967056E+02  0.17770000000E+01 0. -1.
          3    1    6    6  503    0 -0.19165773218E+03 -0.38964864867E+03 -0.17745092757E+03  0.46909230159E+03  0.00000000000E+00 0. -1.
         -3    1    6    6    0  503 -0.81572821438E+02 -0.14326719967E+03 -0.12141478355E+02  0.16530889630E+03  0.00000000000E+00 0.  1.
<mgrwt>
<rscale>  0 0.77859225E+03</rscale>
<asrwt>0</asrwt>
<pdfrwt beam="1">  1        1 0.17670850E+00 0.77859225E+03</pdfrwt>
<pdfrwt beam="2">  1       -1 0.97999555E-01 0.77859225E+03</pdfrwt>
<totfact> 0.11977575E+01</totfact>
</mgrwt>
</event>
<event>
12    1  0.7781383E-008  0.5356837E+03  0.7818608E-02  0.1004863E+00
         -2   -1    0    0    0  501 -0.00000000000E+00  0.00000000000E+00  0.86983781490E+03  0.86983781490E+03  0.00000000000E+00 0.  1.
          2   -1    0    0  501    0  0.00000000000E+00 -0.00000000000E+00 -0.40479713566E+03  0.40479713566E+03  0.00000000000E+00 0. -1.
         23    2    1    2    0    0  0.43505769196E+03 -0.18330597715E+02  0.19921772954E+03  0.48693006810E+03  0.88328824909E+02 0.  0.
    5000000    2    1    2    0    0 -0.43505769196E+03  0.18330597715E+02  0.26582294970E+03  0.78770488247E+03  0.60017158808E+03 0.  0.
         23    2    4    4    0    0 -0.51935191691E+01  0.15924609034E+03  0.26996417675E+03  0.32611321109E+03  0.89904837382E+02 0.  0.
         23    2    4    4    0    0 -0.42986417279E+03 -0.14091549263E+03 -0.41412270534E+01  0.46159167138E+03  0.91702443914E+02 0.  0.
          3    1    3    3  502    0  0.33987033414E+03  0.22764982109E+02  0.15302171352E+03  0.37342433404E+03  0.00000000000E+00 0. -1.
         -3    1    3    3    0  502  0.95187357815E+02 -0.41095579824E+02  0.46196016016E+02  0.11350573406E+03  0.00000000000E+00 0.  1.
         15    1    5    5    0    0 -0.35828796278E+02  0.10291878394E+03  0.21736858592E+03  0.24316298774E+03  0.17770000000E+01 0.  1.
        -15    1    5    5    0    0  0.30635277108E+02  0.56327306399E+02  0.52595590831E+02  0.82950223349E+02  0.17770000000E+01 0. -1.
          3    1    6    6  503    0 -0.36765583477E+03 -0.10622757446E+03  0.27442534226E+02  0.38367721212E+03  0.00000000000E+00 0.  1.
         -3    1    6    6    0  503 -0.62208338018E+02 -0.34687918162E+02 -0.31583761279E+02  0.77914459261E+02  0.00000000000E+00 0. -1.
<mgrwt>
<rscale>  0 0.53568371E+03</rscale>
<asrwt>0</asrwt>
<pdfrwt beam="1">  1        2 0.62276483E-01 0.53568371E+03</pdfrwt>
<pdfrwt beam="2">  1       -2 0.13382120E+00 0.53568371E+03</pdfrwt>
<totfact> 0.32618692E+01</totfact>
</mgrwt>
</event>
<event>
12    1  0.8476207E-008  0.5075594E+03  0.7818608E-02  0.1011824E+00
          2   -1    0    0  501    0  0.00000000000E+00  0.00000000000E+00  0.21793218315E+04  0.21793218315E+04  0.00000000000E+00 0. -1.
         -2   -1    0    0    0  501 -0.00000000000E+00 -0.00000000000E+00 -0.15053211490E+03  0.15053211490E+03  0.00000000000E+00 0.  1.
         23    2    1    2    0    0  0.15384022966E+03  0.37538280776E+03  0.63226485890E+03  0.75673845445E+03  0.91187543133E+02 0.  0.
    5000000    2    1    2    0    0 -0.15384022966E+03 -0.37538280776E+03  0.13965248577E+04  0.15731154919E+04  0.59985965373E+03 0.  0.
         23    2    4    4    0    0 -0.30104038261E+03 -0.19368850679E+03  0.39672032777E+03  0.54233446974E+03  0.92731380752E+02 0.  0.
         23    2    4    4    0    0  0.14720015295E+03 -0.18169430097E+03  0.99980452991E+03  0.10307810222E+04  0.90662636290E+02 0.  0.
          1    1    3    3  502    0  0.10796857007E+03  0.17156850095E+03  0.25796437146E+03  0.32808319003E+03  0.00000000000E+00 0. -1.
         -1    1    3    3    0  502  0.45871659592E+02  0.20381430681E+03  0.37430048744E+03  0.42865526442E+03  0.00000000000E+00 0.  1.
         15    1    5    5    0    0 -0.43092680858E+02 -0.38557363887E+01  0.19500853193E+02  0.47489860506E+02  0.17770000000E+01 0. -1.
        -15    1    5    5    0    0 -0.25794770176E+03 -0.18983277040E+03  0.37721947457E+03  0.49484460923E+03  0.17770000000E+01 0.  1.
          1    1    6    6  503    0  0.61693519116E+02 -0.37272689036E+02  0.17851018413E+03  0.19251293330E+03  0.00000000000E+00 0. -1.
         -1    1    6    6    0  503  0.85506633837E+02 -0.14442161194E+03  0.82129434578E+03  0.83826808888E+03  0.00000000000E+00 0.  1.
<mgrwt>
<rscale>  0 0.50755937E+03</rscale>
<asrwt>0</asrwt>
<pdfrwt beam="1">  1        2 0.33528026E+00 0.50755937E+03</pdfrwt>
<pdfrwt beam="2">  1       -2 0.23158788E-01 0.50755937E+03</pdfrwt>
<totfact> 0.92934406E+01</totfact>
</mgrwt>
</event>
<event>
12    1  0.7781383E-008  0.5434943E+03  0.7818608E-02  0.1003011E+00
         -2   -1    0    0    0  501 -0.00000000000E+00  0.00000000000E+00  0.18707748863E+03  0.18707748863E+03  0.00000000000E+00 0.  1.
          2   -1    0    0  501    0  0.00000000000E+00 -0.00000000000E+00 -0.18794122181E+04  0.18794122181E+04  0.00000000000E+00 0. -1.
         23    2    1    2    0    0  0.18440045106E+03 -0.37233323002E+03 -0.41694037979E+03  0.59704637307E+03  0.99947640149E+02 0.  0.
    5000000    2    1    2    0    0 -0.18440045106E+03  0.37233323002E+03 -0.12753943497E+04  0.14694433337E+04  0.59999783593E+03 0.  0.
         23    2    4    4    0    0 -0.23769121491E+03  0.47785890226E+03 -0.76347951572E+03  0.93626928472E+03  0.94090161327E+02 0.  0.
         23    2    4    4    0    0  0.53290763848E+02 -0.10552567224E+03 -0.51191483396E+03  0.53317404895E+03  0.90786542129E+02 0.  0.
          3    1    3    3  502    0  0.58097855670E+01 -0.10882736416E+03 -0.10277266245E+03  0.14979776015E+03  0.00000000000E+00 0. -1.
         -3    1    3    3    0  502  0.17859066550E+03 -0.26350586586E+03 -0.31416771734E+03  0.44724861292E+03  0.00000000000E+00 0.  1.
         15    1    5    5    0    0 -0.14157322737E+03  0.37407989671E+03 -0.54600873141E+03  0.67683634679E+03  0.17770000000E+01 0.  1.
        -15    1    5    5    0    0 -0.96117987544E+02  0.10377900555E+03 -0.21747078431E+03  0.25943293792E+03  0.17770000000E+01 0. -1.
          2    1    6    6  503    0  0.28843105081E+02 -0.59711297742E+02 -0.43710975668E+03  0.44211118870E+03  0.00000000000E+00 0. -1.
         -2    1    6    6    0  503  0.24447658767E+02 -0.45814374498E+02 -0.74805077275E+02  0.91062860245E+02  0.00000000000E+00 0.  1.
<mgrwt>
<rscale>  0 0.54349435E+03</rscale>
<asrwt>0</asrwt>
<pdfrwt beam="1">  1        2 0.28914035E+00 0.54349435E+03</pdfrwt>
<pdfrwt beam="2">  1       -2 0.28781151E-01 0.54349435E+03</pdfrwt>
<totfact> 0.90712815E+01</totfact>
</mgrwt>
</event>
<event>
12    1  0.7781383E-008  0.1246279E+04  0.7818608E-02  0.9073286E-01
          2   -1    0    0  501    0  0.00000000000E+00  0.00000000000E+00  0.18765595972E+04  0.18765595972E+04  0.00000000000E+00 0. -1.
         -2   -1    0    0    0  501 -0.00000000000E+00 -0.00000000000E+00 -0.17328216784E+04  0.17328216784E+04  0.00000000000E+00 0.  1.
         23    2    1    2    0    0  0.11884885208E+04  0.35473759315E+03  0.13086491023E+04  0.18053272637E+04  0.91106157560E+02 0.  0.
    5000000    2    1    2    0    0 -0.11884885208E+04 -0.35473759315E+03 -0.11649111835E+04  0.18040540120E+04  0.59937391402E+03 0.  0.
         23    2    4    4    0    0 -0.24446600444E+03 -0.92523245835E+02  0.24961087394E+01  0.27713754034E+03  0.92058716915E+02 0.  0.
         23    2    4    4    0    0 -0.94402251632E+03 -0.26221434732E+03 -0.11674072922E+04  0.15269164717E+04  0.93269771134E+02 0.  0.
          2    1    3    3  502    0  0.44421249924E+03  0.17856064070E+03  0.51092987816E+03  0.70018425239E+03  0.00000000000E+00 0. -1.
         -2    1    3    3    0  502  0.74427602152E+03  0.17617695245E+03  0.79771922415E+03  0.11051430113E+04  0.00000000000E+00 0.  1.
         15    1    5    5    0    0 -0.17125471826E+03 -0.86361872434E+02 -0.34459651566E+02  0.19487733797E+03  0.17770000000E+01 0.  1.
        -15    1    5    5    0    0 -0.73211286178E+02 -0.61613734012E+01  0.36955760305E+02  0.82260202375E+02  0.17770000000E+01 0. -1.
          3    1    6    6  503    0 -0.57666828904E+03 -0.20418583591E+03 -0.70150937866E+03  0.93078116629E+03  0.00000000000E+00 0. -1.
         -3    1    6    6    0  503 -0.36735422728E+03 -0.58028511402E+02 -0.46589791357E+03  0.59613530537E+03  0.00000000000E+00 0.  1.
<mgrwt>
<rscale>  0 0.12462789E+04</rscale>
<asrwt>0</asrwt>
<pdfrwt beam="1">  1        2 0.28870148E+00 0.12462789E+04</pdfrwt>
<pdfrwt beam="2">  1       -2 0.26658795E+00 0.12462789E+04</pdfrwt>
<totfact> 0.38485705E-01</totfact>
</mgrwt>
</event>
<event>
12    1  0.7781383E-008  0.7108300E+03  0.7818608E-02  0.9698889E-01
         -1   -1    0    0    0  501 -0.00000000000E+00  0.00000000000E+00  0.21604226652E+03  0.21604226652E+03  0.00000000000E+00 0.  1.
          1   -1    0    0  501    0  0.00000000000E+00 -0.00000000000E+00 -0.39371050412E+04  0.39371050412E+04  0.00000000000E+00 0. -1.
         23    2    1    2    0    0  0.54938354028E+03 -0.25033633097E+03 -0.29242062317E+04  0.29872864953E+04  0.91694962369E+02 0.  0.
    5000000    2    1    2    0    0 -0.54938354028E+03  0.25033633097E+03 -0.79685654300E+03  0.11658608125E+04  0.59980040936E+03 0.  0.
         23    2    4    4    0    0  0.98976586798E+02 -0.29879787295E+02 -0.15606494422E+03  0.20780055839E+03  0.90197776197E+02 0.  0.
         23    2    4    4    0    0 -0.64836012708E+03  0.28021611827E+03 -0.64079159877E+03  0.95806025411E+03  0.91507650565E+02 0.  0.
          3    1    3    3  502    0  0.10063677860E+03 -0.82938914064E+02 -0.54960091831E+03  0.56486086258E+03  0.00000000000E+00 0. -1.
         -3    1    3    3    0  502  0.44874676168E+03 -0.16739741691E+03 -0.23746053134E+04  0.24224256327E+04  0.00000000000E+00 0.  1.
         15    1    5    5    0    0  0.38969481329E+02 -0.23024629121E+02 -0.55831087781E+01  0.45640802511E+02  0.17770000000E+01 0. -1.
        -15    1    5    5    0    0  0.60007105468E+02 -0.68551581741E+01 -0.15048183544E+03  0.16215975588E+03  0.17770000000E+01 0.  1.
          3    1    6    6  503    0 -0.26747655433E+03  0.12577478737E+03 -0.20946180909E+03  0.36226682670E+03  0.00000000000E+00 0. -1.
         -3    1    6    6    0  503 -0.38088357275E+03  0.15444133090E+03 -0.43132978968E+03  0.59579342741E+03  0.00000000000E+00 0.  1.
<mgrwt>
<rscale>  0 0.71083003E+03</rscale>
<asrwt>0</asrwt>
<pdfrwt beam="1">  1        1 0.60570842E+00 0.71083003E+03</pdfrwt>
<pdfrwt beam="2">  1       -1 0.33237275E-01 0.71083003E+03</pdfrwt>
<totfact> 0.10318733E+00</totfact>
</mgrwt>
</event>
<event>
12    1  0.7781383E-008  0.1002331E+04  0.7818608E-02  0.9305991E-01
         -1   -1    0    0    0  501 -0.00000000000E+00  0.00000000000E+00  0.91749448372E+03  0.91749448372E+03  0.00000000000E+00 0.  1.
          1   -1    0    0  501    0  0.00000000000E+00 -0.00000000000E+00 -0.12684315563E+04  0.12684315563E+04  0.00000000000E+00 0. -1.
         23    2    1    2    0    0 -0.97971365017E+03 -0.16359580577E+03 -0.17351248297E+03  0.10120007800E+04  0.86235566385E+02 0.  0.
    5000000    2    1    2    0    0  0.97971365017E+03  0.16359580577E+03 -0.17742458958E+03  0.11739252600E+04  0.60001550573E+03 0.  0.
         23    2    4    4    0    0  0.44388126202E+03  0.13636347277E+03  0.19790522357E+03  0.51283048828E+03  0.90570749764E+02 0.  0.
         23    2    4    4    0    0  0.53583238815E+03  0.27232332998E+02 -0.37532981315E+03  0.66109477173E+03  0.91191449284E+02 0.  0.
          1    1    3    3  502    0 -0.43571815439E+03 -0.73601590691E+02 -0.33770912661E+02  0.44317939794E+03  0.00000000000E+00 0. -1.
         -1    1    3    3    0  502 -0.54399549578E+03 -0.89994215080E+02 -0.13974157031E+03  0.56882138203E+03  0.00000000000E+00 0.  1.
         15    1    5    5    0    0  0.13066105385E+03  0.78404937637E+02  0.41378468122E+02  0.15790813973E+03  0.17770000000E+01 0. -1.
        -15    1    5    5    0    0  0.31322020817E+03  0.57958535137E+02  0.15652675545E+03  0.35492234855E+03  0.17770000000E+01 0.  1.
          1    1    6    6  503    0  0.40530416873E+03 -0.75228303275E+01 -0.24652314174E+03  0.47444886087E+03  0.00000000000E+00 0. -1.
         -1    1    6    6    0  503  0.13052821942E+03  0.34755163325E+02 -0.12880667141E+03  0.18664591086E+03  0.00000000000E+00 0.  1.
<mgrwt>
<rscale>  0 0.10023314E+04</rscale>
<asrwt>0</asrwt>
<pdfrwt beam="1">  1        1 0.19514332E+00 0.10023314E+04</pdfrwt>
<pdfrwt beam="2">  1       -1 0.14115300E+00 0.10023314E+04</pdfrwt>
<totfact> 0.39230870E+00</totfact>
</mgrwt>
</event>
<event>
12    1  0.7781383E-008  0.2347674E+04  0.7818608E-02  0.8459358E-01
         -2   -1    0    0    0  501 -0.00000000000E+00  0.00000000000E+00  0.24975687318E+04  0.24975687318E+04  0.00000000000E+00 0.  1.
          2   -1    0    0  501    0  0.00000000000E+00 -0.00000000000E+00 -0.25397977076E+04  0.25397977076E+04  0.00000000000E+00 0. -1.
         23    2    1    2    0    0  0.87942574784E+03 -0.21540470199E+04  0.84358547605E+03  0.24765143843E+04  0.90436887465E+02 0.  0.
    5000000    2    1    2    0    0 -0.87942574784E+03  0.21540470199E+04 -0.88581445184E+03  0.25608520551E+04  0.59998982913E+03 0.  0.
         23    2    4    4    0    0 -0.36458372647E+03  0.44849176962E+03 -0.41031337620E+03  0.71493923321E+03  0.93353518826E+02 0.  0.
         23    2    4    4    0    0 -0.51484202137E+03  0.17055552502E+04 -0.47550107564E+03  0.18459128218E+04  0.85509381436E+02 0.  0.
          4    1    3    3  502    0  0.38196172419E+03 -0.10536674403E+04  0.39859811839E+03  0.11895336454E+04  0.00000000000E+00 0. -1.
         -4    1    3    3    0  502  0.49746402364E+03 -0.11003795795E+04  0.44498735766E+03  0.12869807389E+04  0.00000000000E+00 0.  1.
         15    1    5    5    0    0 -0.10084247388E+03  0.72532641509E+02 -0.11235660134E+03  0.16750329017E+03  0.17770000000E+01 0. -1.
        -15    1    5    5    0    0 -0.26374125259E+03  0.37595912811E+03 -0.29795677485E+03  0.54743594304E+03  0.17770000000E+01 0.  1.
          3    1    6    6  503    0 -0.30463321475E+03  0.11449307891E+04 -0.32574767383E+03  0.12287308307E+04  0.00000000000E+00 0. -1.
         -3    1    6    6    0  503 -0.21020880662E+03  0.56062446111E+03 -0.14975340182E+03  0.61718199110E+03  0.00000000000E+00 0.  1.
<mgrwt>
<rscale>  0 0.23476738E+04</rscale>
<asrwt>0</asrwt>
<pdfrwt beam="1">  1        2 0.39073811E+00 0.23476738E+04</pdfrwt>
<pdfrwt beam="2">  1       -2 0.38424135E+00 0.23476738E+04</pdfrwt>
<totfact> 0.26436180E-02</totfact>
</mgrwt>
</event>
<event>
12    1  0.7781383E-008  0.1374243E+04  0.7818608E-02  0.8972677E-01
         -2   -1    0    0    0  501 -0.00000000000E+00  0.00000000000E+00  0.57550074259E+03  0.57550074259E+03  0.00000000000E+00 0.  1.
          2   -1    0    0  501    0  0.00000000000E+00 -0.00000000000E+00 -0.36281811664E+04  0.36281811664E+04  0.00000000000E+00 0. -1.
         23    2    1    2    0    0  0.69344980524E+03  0.11804084935E+04 -0.17287358636E+04  0.22070165137E+04  0.90318115579E+02 0.  0.
    5000000    2    1    2    0    0 -0.69344980524E+03 -0.11804084935E+04 -0.13239445602E+04  0.19966653953E+04  0.59967212564E+03 0.  0.
         23    2    4    4    0    0 -0.43569603206E+03 -0.79109984665E+03 -0.47685869905E+03  0.10250773504E+04  0.87859863887E+02 0.  0.
         23    2    4    4    0    0 -0.25775377317E+03 -0.38930864682E+03 -0.84708586120E+03  0.97158804490E+03  0.91818531237E+02 0.  0.
          2    1    3    3  502    0  0.32711527440E+03  0.62937938032E+03 -0.85220852073E+03  0.11087750763E+04  0.00000000000E+00 0. -1.
         -2    1    3    3    0  502  0.36633453084E+03  0.55102911315E+03 -0.87652734285E+03  0.10982414374E+04  0.00000000000E+00 0.  1.
         15    1    5    5    0    0 -0.11021791845E+03 -0.15342997074E+03 -0.69079920299E+02  0.20115650272E+03  0.17770000000E+01 0. -1.
        -15    1    5    5    0    0 -0.32547811361E+03 -0.63766987590E+03 -0.40777877875E+03  0.82392084766E+03  0.17770000000E+01 0.  1.
          4    1    6    6  503    0 -0.14582343764E+03 -0.28248329142E+03 -0.51481653844E+03  0.60505979303E+03  0.00000000000E+00 0.  1.
         -4    1    6    6    0  503 -0.11193033553E+03 -0.10682535540E+03 -0.33226932276E+03  0.36652825186E+03  0.00000000000E+00 0. -1.
<mgrwt>
<rscale>  0 0.13742432E+04</rscale>
<asrwt>0</asrwt>
<pdfrwt beam="1">  1        2 0.55818169E+00 0.13742432E+04</pdfrwt>
<pdfrwt beam="2">  1       -2 0.88538581E-01 0.13742432E+04</pdfrwt>
<totfact> 0.70951764E-01</totfact>
</mgrwt>
</event>
<event>
12    1  0.7781383E-008  0.5389738E+03  0.7818608E-02  0.1004079E+00
         -1   -1    0    0    0  501 -0.00000000000E+00  0.00000000000E+00  0.58745348078E+03  0.58745348078E+03  0.00000000000E+00 0.  1.
          1   -1    0    0  501    0  0.00000000000E+00 -0.00000000000E+00 -0.93135891146E+03  0.93135891146E+03  0.00000000000E+00 0. -1.
         23    2    1    2    0    0 -0.78336040388E+02  0.42123162454E+03 -0.59631384054E+03  0.73960040126E+03  0.88577313115E+02 0.  0.
    5000000    2    1    2    0    0  0.78336040388E+02 -0.42123162454E+03  0.25240840985E+03  0.77921199098E+03  0.59990724682E+03 0.  0.
         23    2    4    4    0    0  0.25699427080E+03 -0.13799199546E+03 -0.60160387343E+02  0.31184509789E+03  0.92413455941E+02 0.  0.
         23    2    4    4    0    0 -0.17865823041E+03 -0.28323962908E+03  0.31256879720E+03  0.46736689309E+03  0.92677446024E+02 0.  0.
          3    1    3    3  502    0 -0.84720844320E+02  0.21680884898E+03 -0.32903971226E+03  0.40305189579E+03  0.00000000000E+00 0. -1.
         -3    1    3    3    0  502  0.63848039318E+01  0.20442277556E+03 -0.26727412828E+03  0.33654850547E+03  0.00000000000E+00 0.  1.
         15    1    5    5    0    0  0.18854465845E+02  0.13267438410E+02 -0.10457454489E+02  0.25377783348E+02  0.17770000000E+01 0.  1.
        -15    1    5    5    0    0  0.23813980495E+03 -0.15125943387E+03 -0.49702932855E+02  0.28646731454E+03  0.17770000000E+01 0. -1.
          1    1    6    6  503    0 -0.16176133809E+03 -0.26557296645E+03  0.31520955101E+03  0.44277849096E+03  0.00000000000E+00 0. -1.
         -1    1    6    6    0  503 -0.16896892319E+02 -0.17666662629E+02 -0.26407538144E+01  0.24588402128E+02  0.00000000000E+00 0.  1.
<mgrwt>
<rscale>  0 0.53897376E+03</rscale>
<asrwt>0</asrwt>
<pdfrwt beam="1">  1        1 0.14328599E+00 0.53897376E+03</pdfrwt>
<pdfrwt beam="2">  1       -1 0.90377459E-01 0.53897376E+03</pdfrwt>
<totfact> 0.21743050E+01</totfact>
</mgrwt>
</event>
<event>
12    1  0.7781383E-008  0.4604218E+03  0.7818608E-02  0.1024659E+00
          2   -1    0    0  501    0  0.00000000000E+00  0.00000000000E+00  0.80609203370E+03  0.80609203370E+03  0.00000000000E+00 0. -1.
         -2   -1    0    0    0  501 -0.00000000000E+00 -0.00000000000E+00 -0.28260456461E+03  0.28260456461E+03  0.00000000000E+00 0.  1.
         23    2    1    2    0    0  0.18872986076E+03 -0.19821381210E+03  0.21896026075E+03  0.36227692849E+03  0.91614963183E+02 0.  0.
    5000000    2    1    2    0    0 -0.18872986076E+03  0.19821381210E+03  0.30452720835E+03  0.72641966982E+03  0.60003419938E+03 0.  0.
         23    2    4    4    0    0 -0.30611932090E+03 -0.86088384073E+02  0.10550359127E+03  0.34717814858E+03  0.91002255879E+02 0.  0.
         23    2    4    4    0    0  0.11738946014E+03  0.28430219618E+03  0.19902361708E+03  0.37924152125E+03  0.98008709708E+02 0.  0.
          2    1    3    3  502    0  0.51060222457E+02 -0.79951848016E+02  0.12784856448E+03  0.15920018769E+03  0.00000000000E+00 0. -1.
         -2    1    3    3    0  502  0.13766963830E+03 -0.11826196409E+03  0.91111696265E+02  0.20307674081E+03  0.00000000000E+00 0.  1.
         15    1    5    5    0    0 -0.16627572335E+03 -0.93229521705E+02  0.64708491704E+02  0.20131991089E+03  0.17770000000E+01 0. -1.
        -15    1    5    5    0    0 -0.13984359755E+03  0.71411376327E+01  0.40795099569E+02  0.14585823769E+03  0.17770000000E+01 0.  1.
          3    1    6    6  503    0 -0.10909200919E+01  0.61139709537E+02  0.63147714193E+01  0.61474633199E+02  0.00000000000E+00 0. -1.
         -3    1    6    6    0  503  0.11848038024E+03  0.22316248664E+03  0.19270884566E+03  0.31776688805E+03  0.00000000000E+00 0.  1.
<mgrwt>
<rscale>  0 0.46042181E+03</rscale>
<asrwt>0</asrwt>
<pdfrwt beam="1">  1        2 0.12401416E+00 0.46042181E+03</pdfrwt>
<pdfrwt beam="2">  1       -2 0.43477626E-01 0.46042181E+03</pdfrwt>
<totfact> 0.17626214E+02</totfact>
</mgrwt>
</event>
<event>
12    1  0.7781383E-008  0.1114376E+04  0.7818608E-02  0.9191293E-01
          1   -1    0    0  501    0  0.00000000000E+00  0.00000000000E+00  0.21822381584E+04  0.21822381584E+04  0.00000000000E+00 0. -1.
         -1   -1    0    0    0  501 -0.00000000000E+00 -0.00000000000E+00 -0.92037951449E+03  0.92037951449E+03  0.00000000000E+00 0.  1.
         23    2    1    2    0    0 -0.11470186907E+03  0.10310805523E+04  0.15525887100E+04  0.18693963484E+04  0.88472486173E+02 0.  0.
    5000000    2    1    2    0    0  0.11470186907E+03 -0.10310805523E+04 -0.29073006612E+03  0.12332213245E+04  0.60002269935E+03 0.  0.
         23    2    4    4    0    0 -0.12329534084E+03 -0.24858843962E+02 -0.75914412229E+02  0.17321391537E+03  0.91762515753E+02 0.  0.
         23    2    4    4    0    0  0.23799720991E+03 -0.10062217083E+04 -0.21481565389E+03  0.10600074091E+04  0.91351759566E+02 0.  0.
          2    1    3    3  502    0 -0.35121247847E+02  0.11829881162E+03  0.15290560584E+03  0.19648978390E+03  0.00000000000E+00 0. -1.
         -2    1    3    3    0  502 -0.79580621226E+02  0.91278174069E+03  0.13996831042E+04  0.16729065645E+04  0.00000000000E+00 0.  1.
         15    1    5    5    0    0 -0.31827743601E+02  0.32579826437E+02 -0.35893778276E+02  0.58016992350E+02  0.17770000000E+01 0. -1.
        -15    1    5    5    0    0 -0.91467597240E+02 -0.57438670400E+02 -0.40020633953E+02  0.11519692302E+03  0.17770000000E+01 0.  1.
          1    1    6    6  503    0  0.84785807807E+02 -0.25214874175E+03 -0.87654384522E+02  0.28009090006E+03  0.00000000000E+00 0. -1.
         -1    1    6    6    0  503  0.15321140211E+03 -0.75407296659E+03 -0.12716126937E+03  0.77991650906E+03  0.00000000000E+00 0.  1.
<mgrwt>
<rscale>  0 0.11143755E+04</rscale>
<asrwt>0</asrwt>
<pdfrwt beam="1">  1        1 0.33572895E+00 0.11143755E+04</pdfrwt>
<pdfrwt beam="2">  1       -1 0.14159685E+00 0.11143755E+04</pdfrwt>
<totfact> 0.90792090E-01</totfact>
</mgrwt>
</event>
<event>
12    1  0.7781383E-008  0.1449201E+04  0.7818608E-02  0.8918954E-01
          2   -1    0    0  501    0  0.00000000000E+00  0.00000000000E+00  0.28540728807E+04  0.28540728807E+04  0.00000000000E+00 0. -1.
         -2   -1    0    0    0  501 -0.00000000000E+00 -0.00000000000E+00 -0.84832778257E+03  0.84832778257E+03  0.00000000000E+00 0.  1.
         23    2    1    2    0    0  0.11264273789E+04  0.82906272602E+03  0.33245959041E+03  0.14405407663E+04  0.91894921503E+02 0.  0.
    5000000    2    1    2    0    0 -0.11264273789E+04 -0.82906272602E+03  0.16732855078E+04  0.22618598970E+04  0.59995179781E+03 0.  0.
         23    2    4    4    0    0 -0.37134562213E+03 -0.59712291279E+03  0.61903688863E+03  0.94146845615E+03  0.93289015417E+02 0.  0.
         23    2    4    4    0    0 -0.75508175673E+03 -0.23193981323E+03  0.10542486191E+04  0.13203914409E+04  0.89715493859E+02 0.  0.
          3    1    3    3  502    0  0.96882985208E+03  0.70657032814E+03  0.25185501227E+03  0.12252770536E+04  0.00000000000E+00 0. -1.
         -3    1    3    3    0  502  0.15759752677E+03  0.12249239788E+03  0.80604578141E+02  0.21526371269E+03  0.00000000000E+00 0.  1.
         15    1    5    5    0    0  0.35851897200E+01  0.28750220156E+00  0.37381875296E+01  0.54834312115E+01  0.17770000000E+01 0.  1.
        -15    1    5    5    0    0 -0.37493081185E+03 -0.59741041499E+03  0.61529870110E+03  0.93598502494E+03  0.17770000000E+01 0. -1.
          4    1    6    6  503    0 -0.63983052124E+03 -0.20651555476E+03  0.84155869811E+03  0.10771503204E+04  0.00000000000E+00 0. -1.
         -4    1    6    6    0  503 -0.11525123549E+03 -0.25424258477E+02  0.21268992102E+03  0.24324112051E+03  0.00000000000E+00 0.  1.
<mgrwt>
<rscale>  0 0.14492014E+04</rscale>
<asrwt>0</asrwt>
<pdfrwt beam="1">  1        2 0.43908813E+00 0.14492014E+04</pdfrwt>
<pdfrwt beam="2">  1       -2 0.13051197E+00 0.14492014E+04</pdfrwt>
<totfact> 0.88028872E-01</totfact>
</mgrwt>
</event>
<event>
12    1  0.7781383E-008  0.1254650E+04  0.7818608E-02  0.9066322E-01
         -2   -1    0    0    0  501 -0.00000000000E+00  0.00000000000E+00  0.14928221768E+04  0.14928221768E+04  0.00000000000E+00 0.  1.
          2   -1    0    0  501    0  0.00000000000E+00 -0.00000000000E+00 -0.12936198601E+04  0.12936198601E+04  0.00000000000E+00 0. -1.
         23    2    1    2    0    0 -0.75545166522E+02  0.11912000028E+04 -0.47780856660E+03  0.12889364865E+04  0.91606337935E+02 0.  0.
    5000000    2    1    2    0    0  0.75545166522E+02 -0.11912000028E+04  0.67701088336E+03  0.14975055503E+04  0.59959537877E+03 0.  0.
         23    2    4    4    0    0  0.25483576969E+03 -0.10500959607E+04  0.60040032916E+03  0.12395107311E+04  0.90903800972E+02 0.  0.
         23    2    4    4    0    0 -0.17929060317E+03 -0.14110404205E+03  0.76610554193E+02  0.25799481921E+03  0.92933732607E+02 0.  0.
          4    1    3    3  502    0 -0.23407834666E+02  0.88943431127E+03 -0.37962857091E+03  0.96734645947E+03  0.00000000000E+00 0. -1.
         -4    1    3    3    0  502 -0.52137331855E+02  0.30176569152E+03 -0.98179995693E+02  0.32159002706E+03  0.00000000000E+00 0.  1.
         15    1    5    5    0    0  0.15595389048E+03 -0.66676848196E+03  0.33028856261E+03  0.76026016390E+03  0.17770000000E+01 0.  1.
        -15    1    5    5    0    0  0.98881879209E+02 -0.38332747878E+03  0.27011176656E+03  0.47925056723E+03  0.17770000000E+01 0. -1.
          3    1    6    6  503    0 -0.85480512925E+02 -0.96138017961E+02  0.84100159861E+02  0.15369539185E+03  0.00000000000E+00 0. -1.
         -3    1    6    6    0  503 -0.93810090241E+02 -0.44966024091E+02 -0.74896056679E+01  0.10429942736E+03  0.00000000000E+00 0.  1.
<mgrwt>
<rscale>  0 0.12546499E+04</rscale>
<asrwt>0</asrwt>
<pdfrwt beam="1">  1        2 0.19901844E+00 0.12546499E+04</pdfrwt>
<pdfrwt beam="2">  1       -2 0.22966495E+00 0.12546499E+04</pdfrwt>
<totfact> 0.13830463E+00</totfact>
</mgrwt>
</event>
<event>
12    1  0.7781383E-008  0.5333040E+03  0.7818608E-02  0.1005434E+00
          2   -1    0    0  501    0  0.00000000000E+00  0.00000000000E+00  0.95853865460E+03  0.95853865460E+03  0.00000000000E+00 0. -1.
         -2   -1    0    0    0  501 -0.00000000000E+00 -0.00000000000E+00 -0.33315821138E+03  0.33315821138E+03  0.00000000000E+00 0.  1.
         23    2    1    2    0    0  0.28057321692E+03 -0.26616782262E+03  0.34156207600E+03  0.52374581073E+03  0.89879823352E+02 0.  0.
    5000000    2    1    2    0    0 -0.28057321692E+03  0.26616782262E+03  0.28381836723E+03  0.76795105525E+03  0.59969101864E+03 0.  0.
         23    2    4    4    0    0  0.12470249523E+03  0.23708593437E+03  0.19281107233E+03  0.34193824481E+03  0.89359952217E+02 0.  0.
         23    2    4    4    0    0 -0.40527571214E+03  0.29081888246E+02  0.91007294897E+02  0.42601281044E+03  0.90057913901E+02 0.  0.
          4    1    3    3  502    0  0.15161224492E+03 -0.13606502413E+03  0.12065187253E+03  0.23676325295E+03  0.00000000000E+00 0.  1.
         -4    1    3    3    0  502  0.12896097199E+03 -0.13010279849E+03  0.22091020347E+03  0.28698255778E+03  0.00000000000E+00 0. -1.
         15    1    5    5    0    0  0.12911035994E+03  0.21800555904E+03  0.14905445501E+03  0.29396648976E+03  0.17770000000E+01 0. -1.
        -15    1    5    5    0    0 -0.44078647189E+01  0.19080375335E+02  0.43756617321E+02  0.47971755051E+02  0.17770000000E+01 0.  1.
          1    1    6    6  503    0 -0.13921393381E+03  0.18012322572E+02 -0.11107567986E+02  0.14081314285E+03  0.00000000000E+00 0. -1.
         -1    1    6    6    0  503 -0.26606177833E+03  0.11069565674E+02  0.10211486288E+03  0.28519966759E+03  0.00000000000E+00 0.  1.
<mgrwt>
<rscale>  0 0.53330398E+03</rscale>
<asrwt>0</asrwt>
<pdfrwt beam="1">  1        2 0.14746748E+00 0.53330398E+03</pdfrwt>
<pdfrwt beam="2">  1       -2 0.51255110E-01 0.53330398E+03</pdfrwt>
<totfact> 0.99500649E+01</totfact>
</mgrwt>
</event>
<event>
12    1  0.7781383E-008  0.1569699E+04  0.7818608E-02  0.8839383E-01
         -2   -1    0    0    0  501 -0.00000000000E+00  0.00000000000E+00  0.22014239319E+04  0.22014239319E+04  0.00000000000E+00 0.  1.
          2   -1    0    0  501    0  0.00000000000E+00 -0.00000000000E+00 -0.12224986529E+04  0.12224986529E+04  0.00000000000E+00 0. -1.
         23    2    1    2    0    0 -0.14052843993E+04 -0.64456658734E+03  0.11228706004E+03  0.15527335402E+04  0.89904029792E+02 0.  0.
    5000000    2    1    2    0    0  0.14052843993E+04  0.64456658734E+03  0.86663821893E+03  0.18711890446E+04  0.59999692478E+03 0.  0.
         23    2    4    4    0    0  0.13233697151E+04  0.66174988212E+03  0.91061209400E+03  0.17398966874E+04  0.93839159047E+02 0.  0.
         23    2    4    4    0    0  0.81914684258E+02 -0.17183294779E+02 -0.43973875068E+02  0.13129235726E+03  0.91097202313E+02 0.  0.
          4    1    3    3  502    0 -0.92595174754E+03 -0.46036035776E+03  0.10231072129E+03  0.10391274135E+04  0.00000000000E+00 0. -1.
         -4    1    3    3    0  502 -0.47933265178E+03 -0.18420622957E+03  0.99763387524E+01  0.51360612673E+03  0.00000000000E+00 0.  1.
         15    1    5    5    0    0  0.75385919755E+02  0.48548856649E+02  0.32759691105E+02  0.95479754239E+02  0.17770000000E+01 0. -1.
        -15    1    5    5    0    0  0.12479837953E+04  0.61320102547E+03  0.87785240289E+03  0.16444169331E+04  0.17770000000E+01 0.  1.
          1    1    6    6  503    0  0.95721904992E+02 -0.19334489114E+02 -0.14568700599E+02  0.98735771642E+02  0.00000000000E+00 0. -1.
         -1    1    6    6    0  503 -0.13807220734E+02  0.21511943345E+01 -0.29405174469E+02  0.32556585616E+02  0.00000000000E+00 0.  1.
<mgrwt>
<rscale>  0 0.15696987E+04</rscale>
<asrwt>0</asrwt>
<pdfrwt beam="1">  1        2 0.18807672E+00 0.15696987E+04</pdfrwt>
<pdfrwt beam="2">  1       -2 0.33868060E+00 0.15696987E+04</pdfrwt>
<totfact> 0.31580632E-01</totfact>
</mgrwt>
</event>
<event>
12    1  0.1238418E-007  0.1639818E+04  0.7818608E-02  0.8796453E-01
         -1   -1    0    0    0  501 -0.00000000000E+00  0.00000000000E+00  0.14267754350E+04  0.14267754350E+04  0.00000000000E+00 0.  1.
          1   -1    0    0  501    0  0.00000000000E+00 -0.00000000000E+00 -0.20417526881E+04  0.20417526881E+04  0.00000000000E+00 0. -1.
         23    2    1    2    0    0 -0.56544105023E+02 -0.15857756855E+04 -0.76842361583E+03  0.17651633320E+04  0.86284267082E+02 0.  0.
    5000000    2    1    2    0    0  0.56544105023E+02  0.15857756855E+04  0.15344636280E+03  0.17033647911E+04  0.60002005346E+03 0.  0.
         23    2    4    4    0    0  0.30652106669E+03  0.66472909857E+03  0.39012614879E+02  0.73795069116E+03  0.85025288279E+02 0.  0.
         23    2    4    4    0    0 -0.24997696167E+03  0.92104658696E+03  0.11443374792E+03  0.96541409991E+03  0.90077771560E+02 0.  0.
          1    1    3    3  502    0 -0.58158250889E+02 -0.53054451081E+03 -0.24584963149E+03  0.58762394557E+03  0.00000000000E+00 0. -1.
         -1    1    3    3    0  502  0.16141458660E+01 -0.10552311747E+04 -0.52257398434E+03  0.11775393865E+04  0.00000000000E+00 0.  1.
         15    1    5    5    0    0  0.16717875997E+03  0.27685737020E+03  0.39332457813E+02  0.32580506624E+03  0.17770000000E+01 0.  1.
        -15    1    5    5    0    0  0.13934230672E+03  0.38787172837E+03 -0.31984293370E+00  0.41214562491E+03  0.17770000000E+01 0. -1.
          1    1    6    6  503    0 -0.10449892673E+03  0.45712102297E+03  0.97360251459E+02  0.47891405690E+03  0.00000000000E+00 0. -1.
         -1    1    6    6    0  503 -0.14547803493E+03  0.46392556398E+03  0.17073496465E+02  0.48650004301E+03  0.00000000000E+00 0.  1.
<mgrwt>
<rscale>  0 0.16398182E+04</rscale>
<asrwt>0</asrwt>
<pdfrwt beam="1">  1        1 0.31411580E+00 0.16398182E+04</pdfrwt>
<pdfrwt beam="2">  1       -1 0.21950391E+00 0.16398182E+04</pdfrwt>
<totfact> 0.28788172E-01</totfact>
</mgrwt>
</event>
<event>
12    1  0.7781383E-008  0.3551633E+03  0.7818608E-02  0.1060516E+00
          1   -1    0    0  501    0  0.00000000000E+00  0.00000000000E+00  0.21561733971E+04  0.21561733971E+04  0.00000000000E+00 0. -1.
         -1   -1    0    0    0  501 -0.00000000000E+00 -0.00000000000E+00 -0.63546900436E+02  0.63546900436E+02  0.00000000000E+00 0.  1.
         23    2    1    2    0    0 -0.81573887188E+02 -0.47575363220E+02  0.49046874693E+03  0.50630058557E+03  0.82843086445E+02 0.  0.
    5000000    2    1    2    0    0  0.81573887188E+02  0.47575363220E+02  0.16021577497E+04  0.17134197120E+04  0.59998328317E+03 0.  0.
         23    2    4    4    0    0  0.21470236497E+03 -0.19655336668E+03  0.66006500851E+03  0.72708781415E+03  0.90777434158E+02 0.  0.
         23    2    4    4    0    0 -0.13312847778E+03  0.24412872990E+03  0.94209274123E+03  0.98633189782E+03  0.89385967744E+02 0.  0.
          1    1    3    3  502    0 -0.53610947199E+02  0.90811646219E+01  0.31817135107E+03  0.32278415366E+03  0.00000000000E+00 0. -1.
         -1    1    3    3    0  502 -0.27962939988E+02 -0.56656527841E+02  0.17229739586E+03  0.18351643190E+03  0.00000000000E+00 0.  1.
         15    1    5    5    0    0  0.52811463502E+02 -0.97512479797E+02  0.30398458677E+03  0.32358541548E+03  0.17770000000E+01 0. -1.
        -15    1    5    5    0    0  0.16189090147E+03 -0.99040886881E+02  0.35608042174E+03  0.40350239867E+03  0.17770000000E+01 0.  1.
          2    1    6    6  503    0 -0.54249388821E+02  0.26081398153E+02  0.19049005470E+03  0.19977411358E+03  0.00000000000E+00 0. -1.
         -2    1    6    6    0  503 -0.78879088963E+02  0.21804733175E+03  0.75160268653E+03  0.78655778425E+03  0.00000000000E+00 0.  1.
<mgrwt>
<rscale>  0 0.35516333E+03</rscale>
<asrwt>0</asrwt>
<pdfrwt beam="1">  1        1 0.33171893E+00 0.35516333E+03</pdfrwt>
<pdfrwt beam="2">  1       -1 0.97764479E-02 0.35516333E+03</pdfrwt>
<totfact> 0.16587884E+02</totfact>
</mgrwt>
</event>
<event>
12    1  0.7781383E-008  0.6885035E+03  0.7818608E-02  0.9737097E-01
          1   -1    0    0  501    0  0.00000000000E+00  0.00000000000E+00  0.18860512403E+04  0.18860512403E+04  0.00000000000E+00 0. -1.
         -1   -1    0    0    0  501 -0.00000000000E+00 -0.00000000000E+00 -0.35007774881E+03  0.35007774881E+03  0.00000000000E+00 0.  1.
         23    2    1    2    0    0 -0.56155401207E+03  0.16598196626E+03  0.14156403780E+03  0.60906353104E+03  0.89582846840E+02 0.  0.
    5000000    2    1    2    0    0  0.56155401207E+03 -0.16598196626E+03  0.13944094537E+04  0.16270654580E+04  0.60005946263E+03 0.  0.
         23    2    4    4    0    0  0.63209105676E+02  0.15331148660E+03  0.61823475235E+03  0.64647392743E+03  0.90634027078E+02 0.  0.
         23    2    4    4    0    0  0.49834490639E+03 -0.31929345286E+03  0.77617470131E+03  0.98059153062E+03  0.93896901939E+02 0.  0.
          2    1    3    3  502    0 -0.40827366053E+03  0.89345073060E+02  0.71904828799E+02  0.42407573424E+03  0.00000000000E+00 0. -1.
         -2    1    3    3    0  502 -0.15328035154E+03  0.76636893203E+02  0.69659208997E+02  0.18498779680E+03  0.00000000000E+00 0.  1.
         15    1    5    5    0    0 -0.17819401621E+02  0.71589390294E+02  0.23184060156E+03  0.24330185806E+03  0.17770000000E+01 0.  1.
        -15    1    5    5    0    0  0.81028507297E+02  0.81722096301E+02  0.38639415079E+03  0.40317206936E+03  0.17770000000E+01 0. -1.
          1    1    6    6  503    0  0.28603189446E+03 -0.23569541015E+03  0.49875476537E+03  0.62138787161E+03  0.00000000000E+00 0. -1.
         -1    1    6    6    0  503  0.21231301193E+03 -0.83598042713E+02  0.27741993595E+03  0.35920365901E+03  0.00000000000E+00 0.  1.
<mgrwt>
<rscale>  0 0.68850350E+03</rscale>
<asrwt>0</asrwt>
<pdfrwt beam="1">  1        1 0.29016172E+00 0.68850350E+03</pdfrwt>
<pdfrwt beam="2">  1       -1 0.53858117E-01 0.68850350E+03</pdfrwt>
<totfact> 0.13042920E+01</totfact>
</mgrwt>
</event>
<event>
12    1  0.7781383E-008  0.5122558E+03  0.7818608E-02  0.1010629E+00
         -2   -1    0    0    0  501 -0.00000000000E+00  0.00000000000E+00  0.20661203646E+03  0.20661203646E+03  0.00000000000E+00 0.  1.
          2   -1    0    0  501    0  0.00000000000E+00 -0.00000000000E+00 -0.17915729100E+04  0.17915729100E+04  0.00000000000E+00 0. -1.
         23    2    1    2    0    0 -0.27276644322E+02  0.40414690086E+03 -0.94409908463E+03  0.10313231233E+04  0.90694929044E+02 0.  0.
    5000000    2    1    2    0    0  0.27276644322E+02 -0.40414690086E+03 -0.64086178893E+03  0.96686182323E+03  0.60003268236E+03 0.  0.
         23    2    4    4    0    0 -0.16851286839E+03 -0.35531855509E+03 -0.15335035430E+03  0.43252696694E+03  0.94421308802E+02 0.  0.
         23    2    4    4    0    0  0.19578951271E+03 -0.48828345771E+02 -0.48751143463E+03  0.53433485629E+03  0.84431031734E+02 0.  0.
          4    1    3    3  502    0 -0.53379206941E+02  0.25468798412E+03 -0.53327125551E+03  0.59337470534E+03  0.00000000000E+00 0. -1.
         -4    1    3    3    0  502  0.26102562619E+02  0.14945891674E+03 -0.41082782912E+03  0.43794841791E+03  0.00000000000E+00 0.  1.
         15    1    5    5    0    0 -0.14475815963E+03 -0.34294082966E+03 -0.15951484848E+03  0.40498331082E+03  0.17770000000E+01 0.  1.
        -15    1    5    5    0    0 -0.23754708757E+02 -0.12377725434E+02  0.61644941706E+01  0.27543656119E+02  0.17770000000E+01 0. -1.
          1    1    6    6  503    0  0.16494211941E+03 -0.11913404059E+02 -0.32213196162E+03  0.36210058361E+03  0.00000000000E+00 0. -1.
         -1    1    6    6    0  503  0.30847393296E+02 -0.36914941712E+02 -0.16537947301E+03  0.17223427269E+03  0.00000000000E+00 0.  1.
<mgrwt>
<rscale>  0 0.51225585E+03</rscale>
<asrwt>0</asrwt>
<pdfrwt beam="1">  1        2 0.27562660E+00 0.51225585E+03</pdfrwt>
<pdfrwt beam="2">  1       -2 0.31786467E-01 0.51225585E+03</pdfrwt>
<totfact> 0.84581065E+01</totfact>
</mgrwt>
</event>
<event>
12    1  0.7781383E-008  0.8121894E+03  0.7818608E-02  0.9542539E-01
         -1   -1    0    0    0  501 -0.00000000000E+00  0.00000000000E+00  0.91616391649E+03  0.91616391649E+03  0.00000000000E+00 0. -1.
          1   -1    0    0  501    0  0.00000000000E+00 -0.00000000000E+00 -0.96165529271E+03  0.96165529271E+03  0.00000000000E+00 0.  1.
         23    2    1    2    0    0 -0.63980175617E+02 -0.69960720631E+03  0.44044715968E+03  0.83391499655E+03  0.88751422509E+02 0.  0.
    5000000    2    1    2    0    0  0.63980175617E+02  0.69960720631E+03 -0.48593853590E+03  0.10439042126E+04  0.60004669694E+03 0.  0.
         23    2    4    4    0    0 -0.21751630777E+03  0.99085862488E+02 -0.14756496907E+03  0.29416855025E+03  0.87340503618E+02 0.  0.
         23    2    4    4    0    0  0.28149648339E+03  0.60052134382E+03 -0.33837356684E+03  0.74973566239E+03  0.87981464997E+02 0.  0.
          2    1    3    3  502    0 -0.56477561760E+02 -0.18493198433E+03  0.11771821658E+03  0.22637829473E+03  0.00000000000E+00 0. -1.
         -2    1    3    3    0  502 -0.75026138572E+01 -0.51467522198E+03  0.32272894310E+03  0.60753670182E+03  0.00000000000E+00 0.  1.
         15    1    5    5    0    0 -0.19755858813E+03  0.55913969194E+02 -0.10648192210E+03  0.23129488787E+03  0.17770000000E+01 0.  1.
        -15    1    5    5    0    0 -0.19957719643E+02  0.43171893294E+02 -0.41083046968E+02  0.62873662380E+02  0.17770000000E+01 0. -1.
          3    1    6    6  503    0  0.14999059930E+03  0.33591479801E+03 -0.23575716467E+03  0.43694092518E+03  0.00000000000E+00 0. -1.
         -3    1    6    6    0  503  0.13150588409E+03  0.26460654581E+03 -0.10261640217E+03  0.31279473721E+03  0.00000000000E+00 0.  1.
<mgrwt>
<rscale>  0 0.81218937E+03</rscale>
<asrwt>0</asrwt>
<pdfrwt beam="1">  1        1 0.14794697E+00 0.81218937E+03</pdfrwt>
<pdfrwt beam="2">  1       -1 0.14094830E+00 0.81218937E+03</pdfrwt>
<totfact> 0.68501576E+00</totfact>
</mgrwt>
</event>
<event>
12    1  0.7781383E-008  0.9626073E+03  0.7818608E-02  0.9350535E-01
          2   -1    0    0  501    0  0.00000000000E+00  0.00000000000E+00  0.24550883961E+04  0.24550883961E+04  0.00000000000E+00 0.  1.
         -2   -1    0    0    0  501 -0.00000000000E+00 -0.00000000000E+00 -0.41452473983E+03  0.41452473983E+03  0.00000000000E+00 0. -1.
         23    2    1    2    0    0 -0.73441472329E+03 -0.50699019980E+03  0.12330723452E+04  0.15248263907E+04  0.90686629842E+02 0.  0.
    5000000    2    1    2    0    0  0.73441472329E+03  0.50699019980E+03  0.80749131103E+03  0.13447867452E+04  0.60000427014E+03 0.  0.
         23    2    4    4    0    0 -0.45842873233E+02  0.24606393360E+01  0.21715033948E+03  0.24031184841E+03  0.92129749693E+02 0.  0.
         23    2    4    4    0    0  0.78025759652E+03  0.50452956046E+03  0.59034097155E+03  0.11044748968E+04  0.89500506236E+02 0.  0.
          3    1    3    3  502    0 -0.46951404680E+03 -0.33909266552E+03  0.72760519639E+03  0.92996591215E+03  0.00000000000E+00 0. -1.
         -3    1    3    3    0  502 -0.26490067649E+03 -0.16789753427E+03  0.50546714883E+03  0.59486047857E+03  0.00000000000E+00 0.  1.
         15    1    5    5    0    0  0.44634266019E+01 -0.38001107438E+02  0.84392733756E+02  0.92678463428E+02  0.17770000000E+01 0. -1.
        -15    1    5    5    0    0 -0.50306299835E+02  0.40461746774E+02  0.13275760573E+03  0.14763338499E+03  0.17770000000E+01 0.  1.
          1    1    6    6  503    0  0.45893485319E+03  0.31211691350E+03  0.40165677716E+03  0.68510315559E+03  0.00000000000E+00 0. -1.
         -1    1    6    6    0  503  0.32132274334E+03  0.19241264696E+03  0.18868419439E+03  0.41937174119E+03  0.00000000000E+00 0.  1.
<mgrwt>
<rscale>  0 0.96260726E+03</rscale>
<asrwt>0</asrwt>
<pdfrwt beam="1">  1        2 0.37770590E+00 0.96260726E+03</pdfrwt>
<pdfrwt beam="2">  1       -2 0.63773038E-01 0.96260726E+03</pdfrwt>
<totfact> 0.85356803E+00</totfact>
</mgrwt>
</event>
<event>
12    1  0.7781383E-008  0.9091686E+03  0.7818608E-02  0.9414192E-01
         -1   -1    0    0    0  501 -0.00000000000E+00  0.00000000000E+00  0.13860839340E+04  0.13860839340E+04  0.00000000000E+00 0.  1.
          1   -1    0    0  501    0  0.00000000000E+00 -0.00000000000E+00 -0.86803062006E+03  0.86803062006E+03  0.00000000000E+00 0. -1.
         23    2    1    2    0    0 -0.79767734347E+03 -0.20108064247E+03 -0.36645322923E+03  0.90539413510E+03  0.93423774236E+02 0.  0.
    5000000    2    1    2    0    0  0.79767734347E+03  0.20108064247E+03  0.88450654315E+03  0.13487204190E+04  0.59997697837E+03 0.  0.
         23    2    4    4    0    0  0.24344674266E+02 -0.13824167325E+03  0.11325651274E+03  0.20150424250E+03  0.89852649820E+02 0.  0.
         23    2    4    4    0    0  0.77333266920E+03  0.33932231572E+03  0.77125003041E+03  0.11472161765E+04  0.89973856886E+02 0.  0.
          1    1    3    3  502    0 -0.65990438295E+03 -0.13987052789E+03 -0.32652913181E+03  0.74943901228E+03  0.00000000000E+00 0.  1.
         -1    1    3    3    0  502 -0.13777296052E+03 -0.61210114579E+02 -0.39924097417E+02  0.15595512282E+03  0.00000000000E+00 0. -1.
         15    1    5    5    0    0  0.23687751739E+02 -0.48664710496E+02 -0.35770185859E+01  0.54270769490E+02  0.17770000000E+01 0. -1.
        -15    1    5    5    0    0  0.65692252704E+00 -0.89576962751E+02  0.11683353133E+03  0.14723347301E+03  0.17770000000E+01 0.  1.
          2    1    6    6  503    0  0.21447666183E+03  0.13904823178E+03  0.23543262398E+03  0.34750995621E+03  0.00000000000E+00 0. -1.
         -2    1    6    6    0  503  0.55885600737E+03  0.20027408394E+03  0.53581740643E+03  0.79970622025E+03  0.00000000000E+00 0.  1.
<mgrwt>
<rscale>  0 0.90916857E+03</rscale>
<asrwt>0</asrwt>
<pdfrwt beam="1">  1        1 0.13354317E+00 0.90916857E+03</pdfrwt>
<pdfrwt beam="2">  1       -1 0.21324368E+00 0.90916857E+03</pdfrwt>
<totfact> 0.24039540E+00</totfact>
</mgrwt>
</event>
<event>
12    1  0.7781383E-008  0.6984851E+03  0.7818608E-02  0.9719826E-01
          1   -1    0    0  501    0  0.00000000000E+00  0.00000000000E+00  0.57750198885E+03  0.57750198885E+03  0.00000000000E+00 0. -1.
         -1   -1    0    0    0  501 -0.00000000000E+00 -0.00000000000E+00 -0.14088200483E+04  0.14088200483E+04  0.00000000000E+00 0.  1.
         23    2    1    2    0    0 -0.66518478145E+03  0.17478161976E+03  0.78028196720E+02  0.69788088356E+03  0.89050098676E+02 0.  0.
    5000000    2    1    2    0    0  0.66518478145E+03 -0.17478161976E+03 -0.90934625616E+03  0.12884411536E+04  0.60012547405E+03 0.  0.
         23    2    4    4    0    0  0.14136047322E+03  0.51416146589E+01 -0.64730084016E+03  0.66898471244E+03  0.92373958507E+02 0.  0.
         23    2    4    4    0    0  0.52382430823E+03 -0.17992323442E+03 -0.26204541600E+03  0.61945644116E+03  0.91072533019E+02 0.  0.
          1    1    3    3  502    0 -0.43797613758E+03  0.15810339654E+03  0.56168953537E+02  0.46901463988E+03  0.00000000000E+00 0. -1.
         -1    1    3    3    0  502 -0.22720864387E+03  0.16678223215E+02  0.21859243183E+02  0.22886624367E+03  0.00000000000E+00 0.  1.
         15    1    5    5    0    0  0.25153264878E+02  0.63197038388E+01 -0.33076666195E+03  0.33178662989E+03  0.17770000000E+01 0.  1.
        -15    1    5    5    0    0  0.11620720834E+03 -0.11780891800E+01 -0.31653417821E+03  0.33719808254E+03  0.17770000000E+01 0. -1.
          3    1    6    6  503    0  0.20014284548E+03 -0.22647820653E+02 -0.95994076659E+02  0.22312540225E+03  0.00000000000E+00 0. -1.
         -3    1    6    6    0  503  0.32368146275E+03 -0.15727541377E+03 -0.16605133934E+03  0.39633103891E+03  0.00000000000E+00 0.  1.
<mgrwt>
<rscale>  0 0.69848510E+03</rscale>
<asrwt>0</asrwt>
<pdfrwt beam="1">  1        1 0.88846461E-01 0.69848510E+03</pdfrwt>
<pdfrwt beam="2">  1       -1 0.21674154E+00 0.69848510E+03</pdfrwt>
<totfact> 0.43822147E+00</totfact>
</mgrwt>
</event>
<event>
12    1  0.7781383E-008  0.8565071E+03  0.7818608E-02  0.9481645E-01
          2   -1    0    0  501    0  0.00000000000E+00  0.00000000000E+00  0.26809822498E+04  0.26809822498E+04  0.00000000000E+00 0. -1.
         -2   -1    0    0    0  501 -0.00000000000E+00 -0.00000000000E+00 -0.36808014504E+03  0.36808014504E+03  0.00000000000E+00 0.  1.
         23    2    1    2    0    0 -0.39156076543E+03 -0.73699692513E+03  0.15713857293E+04  0.17816394494E+04  0.92204753751E+02 0.  0.
    5000000    2    1    2    0    0  0.39156076543E+03  0.73699692513E+03  0.74151637545E+03  0.12674229455E+04  0.60002507192E+03 0.  0.
         23    2    4    4    0    0  0.36454556853E+03  0.50772816285E+03  0.79322797143E+03  0.10136824632E+04  0.87522355392E+02 0.  0.
         23    2    4    4    0    0  0.27015196906E+02  0.22926876228E+03 -0.51711595986E+02  0.25374048223E+03  0.91739614915E+02 0.  0.
          1    1    3    3  502    0 -0.27167541980E+03 -0.41477073924E+03  0.93068381886E+03  0.10545210622E+04  0.00000000000E+00 0. -1.
         -1    1    3    3    0  502 -0.11988534563E+03 -0.32222618589E+03  0.64070191044E+03  0.72711838720E+03  0.00000000000E+00 0.  1.
         15    1    5    5    0    0  0.14922819223E+03  0.21234624056E+03  0.26155001256E+03  0.36847190671E+03  0.17770000000E+01 0. -1.
        -15    1    5    5    0    0  0.21531737630E+03  0.29538192229E+03  0.53167795887E+03  0.64521055651E+03  0.17770000000E+01 0.  1.
          1    1    6    6  503    0  0.59110713348E+02  0.11098567834E+03 -0.29956278622E+02  0.12926436422E+03  0.00000000000E+00 0. -1.
         -1    1    6    6    0  503 -0.32095516442E+02  0.11828308393E+03 -0.21755317364E+02  0.12447611801E+03  0.00000000000E+00 0.  1.
<mgrwt>
<rscale>  0 0.85650709E+03</rscale>
<asrwt>0</asrwt>
<pdfrwt beam="1">  1        2 0.41245880E+00 0.85650709E+03</pdfrwt>
<pdfrwt beam="2">  1       -2 0.56627716E-01 0.85650709E+03</pdfrwt>
<totfact> 0.82614401E+00</totfact>
</mgrwt>
</event>
<event>
12    1  0.7781383E-008  0.5661059E+03  0.7818608E-02  0.9978333E-01
         -2   -1    0    0    0  501 -0.00000000000E+00  0.00000000000E+00  0.79689596227E+03  0.79689596227E+03  0.00000000000E+00 0. -1.
          2   -1    0    0  501    0  0.00000000000E+00 -0.00000000000E+00 -0.47670725383E+03  0.47670725383E+03  0.00000000000E+00 0.  1.
         23    2    1    2    0    0  0.41778912779E+03  0.17332640634E+03  0.23783684887E+03  0.51773765797E+03  0.83042864612E+02 0.  0.
    5000000    2    1    2    0    0 -0.41778912779E+03 -0.17332640634E+03  0.82351859568E+02  0.75586555813E+03  0.59996759475E+03 0.  0.
         23    2    4    4    0    0 -0.49659863331E+03 -0.16309133794E+02 -0.65543202829E+02  0.50908278978E+03  0.89404613738E+02 0.  0.
         23    2    4    4    0    0  0.78809505517E+02 -0.15701727255E+03  0.14789506240E+03  0.24678276835E+03  0.90351664266E+02 0.  0.
          1    1    3    3  502    0  0.32041255134E+03  0.16646901936E+03  0.17166853359E+03  0.39980773240E+03  0.00000000000E+00 0. -1.
         -1    1    3    3    0  502  0.97376576457E+02  0.68573869816E+01  0.66168315274E+02  0.11792992557E+03  0.00000000000E+00 0.  1.
         15    1    5    5    0    0 -0.32827695206E+03 -0.24524677901E+02 -0.83432100093E+02  0.33960460853E+03  0.17770000000E+01 0. -1.
        -15    1    5    5    0    0 -0.16832168125E+03  0.82155441071E+01  0.17888897264E+02  0.16947818124E+03  0.17770000000E+01 0.  1.
          1    1    6    6  503    0  0.45572422656E+02 -0.97375234098E+02  0.31831019528E+02  0.11212491127E+03  0.00000000000E+00 0. -1.
         -1    1    6    6    0  503  0.33237082861E+02 -0.59642038448E+02  0.11606404287E+03  0.13465785708E+03  0.00000000000E+00 0.  1.
<mgrwt>
<rscale>  0 0.56610589E+03</rscale>
<asrwt>0</asrwt>
<pdfrwt beam="1">  1        2 0.73339578E-01 0.56610589E+03</pdfrwt>
<pdfrwt beam="2">  1       -2 0.12259938E+00 0.56610589E+03</pdfrwt>
<totfact> 0.33679131E+01</totfact>
</mgrwt>
</event>
<event>
12    1  0.7781383E-008  0.8264084E+03  0.7818608E-02  0.9522559E-01
         -1   -1    0    0    0  501 -0.00000000000E+00  0.00000000000E+00  0.83277636580E+03  0.83277636580E+03  0.00000000000E+00 0.  1.
          1   -1    0    0  501    0  0.00000000000E+00 -0.00000000000E+00 -0.13810831321E+04  0.13810831321E+04  0.00000000000E+00 0. -1.
         23    2    1    2    0    0 -0.73275738030E+03  0.86371366005E+02  0.42322974444E+03  0.85434559416E+03  0.79934888691E+02 0.  0.
    5000000    2    1    2    0    0  0.73275738030E+03 -0.86371366005E+02 -0.97153651075E+03  0.13595139038E+04  0.60000122629E+03 0.  0.
         23    2    4    4    0    0 -0.66901498619E+02  0.43624701268E+02 -0.88511685503E+02  0.15772492442E+03  0.10326620083E+03 0.  0.
         23    2    4    4    0    0  0.79965887892E+03 -0.12999606727E+03 -0.88302482524E+03  0.12017889793E+04  0.90612409315E+02 0.  0.
          2    1    3    3  502    0 -0.45194810488E+03  0.88435794380E+02  0.28217476211E+03  0.54009311753E+03  0.00000000000E+00 0.  1.
         -2    1    3    3    0  502 -0.28080927543E+03 -0.20644283747E+01  0.14105498233E+03  0.31425247663E+03  0.00000000000E+00 0. -1.
         15    1    5    5    0    0 -0.84839564513E-01 -0.10578010912E+02 -0.68550475369E+02  0.69384630250E+02  0.17770000000E+01 0. -1.
        -15    1    5    5    0    0 -0.66816659055E+02  0.54202712180E+02 -0.19961210134E+02  0.88340294170E+02  0.17770000000E+01 0.  1.
          1    1    6    6  503    0  0.37057437337E+03 -0.10369374424E+03 -0.43831592790E+03  0.58326547253E+03  0.00000000000E+00 0. -1.
         -1    1    6    6    0  503  0.42908450555E+03 -0.26302323029E+02 -0.44470889735E+03  0.61852350681E+03  0.00000000000E+00 0.  1.
<mgrwt>
<rscale>  0 0.82640843E+03</rscale>
<asrwt>0</asrwt>
<pdfrwt beam="1">  1        1 0.21247433E+00 0.82640843E+03</pdfrwt>
<pdfrwt beam="2">  1       -1 0.12811944E+00 0.82640843E+03</pdfrwt>
<totfact> 0.42870456E+00</totfact>
</mgrwt>
</event>
<event>
12    1  0.7781383E-008  0.3244026E+03  0.7818608E-02  0.1073641E+00
         -2   -1    0    0    0  501 -0.00000000000E+00  0.00000000000E+00  0.85066102677E+02  0.85066102677E+02  0.00000000000E+00 0.  1.
          2   -1    0    0  501    0  0.00000000000E+00 -0.00000000000E+00 -0.25211982494E+04  0.25211982494E+04  0.00000000000E+00 0. -1.
         23    2    1    2    0    0  0.75708194329E+02 -0.19948990741E+03 -0.11280241247E+04  0.11517947248E+04  0.93084415120E+02 0.  0.
    5000000    2    1    2    0    0 -0.75708194329E+02  0.19948990741E+03 -0.13081080221E+04  0.14544696274E+04  0.59900529676E+03 0.  0.
         23    2    4    4    0    0 -0.81811939367E+02 -0.89040046803E+02 -0.48630999125E+02  0.15944648460E+03  0.91852512309E+02 0.  0.
         23    2    4    4    0    0  0.61037450387E+01  0.28852995421E+03 -0.12594770230E+04  0.12950231428E+04  0.86693590697E+02 0.  0.
          2    1    3    3  502    0  0.26137288586E+02 -0.58699835068E+02 -0.58872088851E+03  0.59221711649E+03  0.00000000000E+00 0. -1.
         -2    1    3    3    0  502  0.49570905742E+02 -0.14079007234E+03 -0.53930323614E+03  0.55957760827E+03  0.00000000000E+00 0.  1.
         15    1    5    5    0    0 -0.17025694783E+02 -0.61060796943E+02  0.14151578975E+02  0.64974765276E+02  0.17770000000E+01 0. -1.
        -15    1    5    5    0    0 -0.64786244584E+02 -0.27979249859E+02 -0.62782578099E+02  0.94471719323E+02  0.17770000000E+01 0.  1.
          2    1    6    6  503    0  0.24571055878E+02  0.27975878951E+03 -0.11676184975E+04  0.12009170133E+04  0.00000000000E+00 0. -1.
         -2    1    6    6    0  503 -0.18467310839E+02  0.87711647051E+01 -0.91858525496E+02  0.94106129483E+02  0.00000000000E+00 0.  1.
<mgrwt>
<rscale>  0 0.32440257E+03</rscale>
<asrwt>0</asrwt>
<pdfrwt beam="1">  1        2 0.38787663E+00 0.32440257E+03</pdfrwt>
<pdfrwt beam="2">  1       -2 0.13087094E-01 0.32440257E+03</pdfrwt>
<totfact> 0.16571552E+02</totfact>
</mgrwt>
</event>
<event>
12    1  0.7781383E-008  0.1206141E+04  0.7818608E-02  0.9107499E-01
         -1   -1    0    0    0  501 -0.00000000000E+00  0.00000000000E+00  0.11191716893E+04  0.11191716893E+04  0.00000000000E+00 0.  1.
          1   -1    0    0  501    0  0.00000000000E+00 -0.00000000000E+00 -0.15511013802E+04  0.15511013802E+04  0.00000000000E+00 0. -1.
         23    2    1    2    0    0  0.11295535633E+04  0.16051662727E+03 -0.71634417969E+03  0.13502379250E+04  0.91305149260E+02 0.  0.
    5000000    2    1    2    0    0 -0.11295535633E+04 -0.16051662727E+03  0.28441448882E+03  0.13200351445E+04  0.59995361593E+03 0.  0.
         23    2    4    4    0    0 -0.33184489653E+03  0.19850082147E+03  0.33552346370E+01  0.39668694746E+03  0.88462789968E+02 0.  0.
         23    2    4    4    0    0 -0.79770866681E+03 -0.35901744875E+03  0.28105925418E+03  0.92334819707E+03  0.91350659908E+02 0.  0.
          1    1    3    3  502    0  0.46119375436E+03  0.11064488139E+03 -0.29057387351E+03  0.55621501671E+03  0.00000000000E+00 0. -1.
         -1    1    3    3    0  502  0.66835980898E+03  0.49871745884E+02 -0.42577030618E+03  0.79402290831E+03  0.00000000000E+00 0.  1.
         15    1    5    5    0    0 -0.27125679882E+03  0.12920394429E+03 -0.21785281354E+02  0.30125017235E+03  0.17770000000E+01 0. -1.
        -15    1    5    5    0    0 -0.60588097711E+02  0.69296877178E+02  0.25140515991E+02  0.95436775114E+02  0.17770000000E+01 0.  1.
          1    1    6    6  503    0 -0.42257120388E+03 -0.17431318917E+03  0.10129503854E+03  0.46820101997E+03  0.00000000000E+00 0. -1.
         -1    1    6    6    0  503 -0.37513746292E+03 -0.18470425958E+03  0.17976421564E+03  0.45514717710E+03  0.00000000000E+00 0.  1.
<mgrwt>
<rscale>  0 0.12061406E+04</rscale>
<asrwt>0</asrwt>
<pdfrwt beam="1">  1        1 0.23863098E+00 0.12061406E+04</pdfrwt>
<pdfrwt beam="2">  1       -1 0.17218026E+00 0.12061406E+04</pdfrwt>
<totfact> 0.14009202E+00</totfact>
</mgrwt>
</event>
<event>
12    1  0.7781383E-008  0.6989799E+03  0.7818608E-02  0.9718978E-01
          1   -1    0    0  501    0  0.00000000000E+00  0.00000000000E+00  0.82424022259E+03  0.82424022259E+03  0.00000000000E+00 0. -1.
         -1   -1    0    0    0  501 -0.00000000000E+00 -0.00000000000E+00 -0.10367008914E+04  0.10367008914E+04  0.00000000000E+00 0.  1.
         23    2    1    2    0    0 -0.45350734341E+03 -0.50169809030E+03  0.37899930332E+03  0.78057020348E+03  0.90991682612E+02 0.  0.
    5000000    2    1    2    0    0  0.45350734341E+03  0.50169809030E+03 -0.59145997216E+03  0.10803709105E+04  0.60000543441E+03 0.  0.
         23    2    4    4    0    0  0.39236068159E+03  0.30662062398E+03 -0.67284731357E+03  0.84228088981E+03  0.93543991998E+02 0.  0.
         23    2    4    4    0    0  0.61146661821E+02  0.19507746633E+03  0.81387341418E+02  0.23809002073E+03  0.90933088080E+02 0.  0.
          3    1    3    3  502    0 -0.20450335238E+03 -0.28886909610E+03  0.21671012038E+03  0.41500632778E+03  0.00000000000E+00 0. -1.
         -3    1    3    3    0  502 -0.24900399104E+03 -0.21282899420E+03  0.16228918293E+03  0.36556387571E+03  0.00000000000E+00 0.  1.
         15    1    5    5    0    0  0.19122970253E+03  0.15690673021E+03 -0.25714522262E+03  0.35681275812E+03  0.17770000000E+01 0.  1.
        -15    1    5    5    0    0  0.20113097906E+03  0.14971389377E+03 -0.41570209095E+03  0.48546813168E+03  0.17770000000E+01 0. -1.
          2    1    6    6  503    0 -0.10992491681E+02  0.69327616873E+00  0.18312500987E+02  0.21369679399E+02  0.00000000000E+00 0. -1.
         -2    1    6    6    0  503  0.72139153502E+02  0.19438419016E+03  0.63074840430E+02  0.21672034133E+03  0.00000000000E+00 0.  1.
<mgrwt>
<rscale>  0 0.69897986E+03</rscale>
<asrwt>0</asrwt>
<pdfrwt beam="1">  1        1 0.12680619E+00 0.69897986E+03</pdfrwt>
<pdfrwt beam="2">  1       -1 0.15949244E+00 0.69897986E+03</pdfrwt>
<totfact> 0.64720510E+00</totfact>
</mgrwt>
</event>
<event>
12    1  0.7781383E-008  0.1286013E+04  0.7818608E-02  0.9040731E-01
          2   -1    0    0  501    0  0.00000000000E+00  0.00000000000E+00  0.35583680733E+04  0.35583680733E+04  0.00000000000E+00 0.  1.
         -2   -1    0    0    0  501 -0.00000000000E+00 -0.00000000000E+00 -0.50449340371E+03  0.50449340371E+03  0.00000000000E+00 0. -1.
         23    2    1    2    0    0 -0.11329786373E+04 -0.57169309299E+03  0.15643813622E+04  0.20161558664E+04  0.84391030575E+02 0.  0.
    5000000    2    1    2    0    0  0.11329786373E+04  0.57169309299E+03  0.14894933074E+04  0.20467056107E+04  0.59994996362E+03 0.  0.
         23    2    4    4    0    0  0.32883427539E+03  0.29865400155E+03  0.19292245595E+03  0.49429894477E+03  0.98925120534E+02 0.  0.
         23    2    4    4    0    0  0.80414436186E+03  0.27303909144E+03  0.12965708515E+04  0.15524066659E+04  0.87589858383E+02 0.  0.
          2    1    3    3  502    0 -0.41220734900E+03 -0.19446127637E+03  0.62387939802E+03  0.77262901178E+03  0.00000000000E+00 0. -1.
         -2    1    3    3    0  502 -0.72077128826E+03 -0.37723181662E+03  0.94050196419E+03  0.12435268546E+04  0.00000000000E+00 0.  1.
         15    1    5    5    0    0  0.24922403625E+03  0.16907846451E+03  0.14889876098E+03  0.33596747782E+03  0.17770000000E+01 0.  1.
        -15    1    5    5    0    0  0.79610239140E+02  0.12957553704E+03  0.44023694970E+02  0.15833146694E+03  0.17770000000E+01 0. -1.
          1    1    6    6  503    0  0.42025501244E+03  0.15333682421E+03  0.75984635527E+03  0.88175560149E+03  0.00000000000E+00 0. -1.
         -1    1    6    6    0  503  0.38388934942E+03  0.11970226723E+03  0.53672449619E+03  0.67065106441E+03  0.00000000000E+00 0.  1.
<mgrwt>
<rscale>  0 0.12860131E+04</rscale>
<asrwt>0</asrwt>
<pdfrwt beam="1">  1        2 0.54744123E+00 0.12860131E+04</pdfrwt>
<pdfrwt beam="2">  1       -2 0.77614372E-01 0.12860131E+04</pdfrwt>
<totfact> 0.10865769E+00</totfact>
</mgrwt>
</event>
<event>
12    1  0.7781383E-008  0.1570152E+04  0.7818608E-02  0.8839098E-01
          2   -1    0    0  501    0  0.00000000000E+00  0.00000000000E+00  0.22031781815E+04  0.22031781815E+04  0.00000000000E+00 0.  1.
         -2   -1    0    0    0  501 -0.00000000000E+00 -0.00000000000E+00 -0.13016836821E+04  0.13016836821E+04  0.00000000000E+00 0. -1.
         23    2    1    2    0    0 -0.99059897233E+03  0.11656484962E+04  0.10460033741E+04  0.18553501798E+04  0.90435006533E+02 0.  0.
    5000000    2    1    2    0    0  0.99059897233E+03 -0.11656484962E+04 -0.14450887470E+03  0.16495116838E+04  0.59998603282E+03 0.  0.
         23    2    4    4    0    0  0.24991663775E+03 -0.29648249768E+02  0.62962673316E+02  0.27419660239E+03  0.88781383151E+02 0.  0.
         23    2    4    4    0    0  0.74068233458E+03 -0.11360002464E+04 -0.20747154802E+03  0.13753150814E+04  0.96644965622E+02 0.  0.
          1    1    3    3  502    0 -0.87745491103E+03  0.10380973723E+04  0.96229389444E+03  0.16654077022E+04  0.00000000000E+00 0. -1.
         -1    1    3    3    0  502 -0.11314406130E+03  0.12755112388E+03  0.83709479670E+02  0.18994247760E+03  0.00000000000E+00 0.  1.
         15    1    5    5    0    0  0.21483417172E+03 -0.36401740213E+02  0.20784636762E+02  0.21889259212E+03  0.17770000000E+01 0.  1.
        -15    1    5    5    0    0  0.35082466025E+02  0.67534904454E+01  0.42178036554E+02  0.55304010272E+02  0.17770000000E+01 0. -1.
          3    1    6    6  503    0  0.20431091337E+03 -0.35082856168E+03 -0.22536156939E+02  0.40660977286E+03  0.00000000000E+00 0. -1.
         -3    1    6    6    0  503  0.53637142121E+03 -0.78517168471E+03 -0.18493539108E+03  0.96870530856E+03  0.00000000000E+00 0.  1.
<mgrwt>
<rscale>  0 0.15701520E+04</rscale>
<asrwt>0</asrwt>
<pdfrwt beam="1">  1        2 0.33895049E+00 0.15701520E+04</pdfrwt>
<pdfrwt beam="2">  1       -2 0.20025903E+00 0.15701520E+04</pdfrwt>
<totfact> 0.63527720E-01</totfact>
</mgrwt>
</event>
<event>
12    1  0.7781383E-008  0.7992223E+03  0.7818608E-02  0.9561144E-01
         -2   -1    0    0    0  501 -0.00000000000E+00  0.00000000000E+00  0.12196124235E+04  0.12196124235E+04  0.00000000000E+00 0.  1.
          2   -1    0    0  501    0  0.00000000000E+00 -0.00000000000E+00 -0.57225598802E+03  0.57225598802E+03  0.00000000000E+00 0. -1.
         23    2    1    2    0    0 -0.66890842497E+02  0.70415188351E+03  0.11420586016E+03  0.72205788498E+03  0.89556411863E+02 0.  0.
    5000000    2    1    2    0    0  0.66890842497E+02 -0.70415188351E+03  0.53315057537E+03  0.10698105266E+04  0.59995063709E+03 0.  0.
         23    2    4    4    0    0 -0.23468895891E+03 -0.37130881983E+03  0.15327355305E+03  0.47450162993E+03  0.93326671535E+02 0.  0.
         23    2    4    4    0    0  0.30157980141E+03 -0.33284306367E+03  0.37987702232E+03  0.59530889667E+03  0.91385166807E+02 0.  0.
          3    1    3    3  502    0 -0.21758100842E+02  0.43981536359E+03  0.10990625002E+03  0.45386160093E+03  0.00000000000E+00 0.  1.
         -3    1    3    3    0  502 -0.45132741655E+02  0.26433651992E+03  0.42996101413E+01  0.26819628405E+03  0.00000000000E+00 0. -1.
         15    1    5    5    0    0 -0.17080409518E+03 -0.26580438563E+03  0.64362588475E+02  0.32244644652E+03  0.17770000000E+01 0. -1.
        -15    1    5    5    0    0 -0.63884863724E+02 -0.10550443421E+03  0.88910964570E+02  0.15205518340E+03  0.17770000000E+01 0.  1.
          1    1    6    6  503    0  0.16138934153E+03 -0.20487292387E+03  0.16507795810E+03  0.30865865733E+03  0.00000000000E+00 0. -1.
         -1    1    6    6    0  503  0.14019045988E+03 -0.12797013980E+03  0.21479906422E+03  0.28665023934E+03  0.00000000000E+00 0.  1.
<mgrwt>
<rscale>  0 0.79922226E+03</rscale>
<asrwt>0</asrwt>
<pdfrwt beam="1">  1        2 0.88039383E-01 0.79922226E+03</pdfrwt>
<pdfrwt beam="2">  1       -2 0.18763268E+00 0.79922226E+03</pdfrwt>
<totfact> 0.85507882E+00</totfact>
</mgrwt>
</event>
<event>
12    1  0.7781383E-008  0.9355066E+03  0.7818608E-02  0.9382253E-01
          1   -1    0    0  501    0  0.00000000000E+00  0.00000000000E+00  0.24763300324E+04  0.24763300324E+04  0.00000000000E+00 0. -1.
         -1   -1    0    0    0  501 -0.00000000000E+00 -0.00000000000E+00 -0.10208150565E+04  0.10208150565E+04  0.00000000000E+00 0.  1.
         23    2    1    2    0    0 -0.18389485088E+03 -0.85492432268E+03  0.20857600563E+04  0.22634807879E+04  0.90759853253E+02 0.  0.
    5000000    2    1    2    0    0  0.18389485088E+03  0.85492432268E+03 -0.63024508041E+03  0.12336643010E+04  0.60000486047E+03 0.  0.
         23    2    4    4    0    0 -0.13495689260E+03  0.46487761069E+03 -0.11068527268E+03  0.50473652978E+03  0.90460925934E+02 0.  0.
         23    2    4    4    0    0  0.31885174348E+03  0.39004671198E+03 -0.51955980773E+03  0.72892777126E+03  0.87123074178E+02 0.  0.
          1    1    3    3  502    0 -0.56785998981E+02 -0.16523786703E+03  0.49715172313E+03  0.52696113537E+03  0.00000000000E+00 0. -1.
         -1    1    3    3    0  502 -0.12710885190E+03 -0.68968645565E+03  0.15886083332E+04  0.17365196525E+04  0.00000000000E+00 0.  1.
         15    1    5    5    0    0 -0.14849451057E+02  0.60372321686E+02  0.15894722770E+02  0.64195976225E+02  0.17770000000E+01 0. -1.
        -15    1    5    5    0    0 -0.12010744154E+03  0.40450528901E+03 -0.12657999545E+03  0.44054055355E+03  0.17770000000E+01 0.  1.
          3    1    6    6  503    0  0.53545609880E+02  0.23831578019E+02 -0.69593519386E+02  0.90985352606E+02  0.00000000000E+00 0. -1.
         -3    1    6    6    0  503  0.26530613360E+03  0.36621513396E+03 -0.44996628834E+03  0.63794241865E+03  0.00000000000E+00 0.  1.
<mgrwt>
<rscale>  0 0.93550656E+03</rscale>
<asrwt>0</asrwt>
<pdfrwt beam="1">  1        1 0.38097385E+00 0.93550656E+03</pdfrwt>
<pdfrwt beam="2">  1       -1 0.15704847E+00 0.93550656E+03</pdfrwt>
<totfact> 0.44615056E-01</totfact>
</mgrwt>
</event>
<event>
12    1  0.7781383E-008  0.5548277E+03  0.7818608E-02  0.1000383E+00
         -1   -1    0    0    0  501 -0.00000000000E+00  0.00000000000E+00  0.39682663580E+03  0.39682663580E+03  0.00000000000E+00 0.  1.
          1   -1    0    0  501    0  0.00000000000E+00 -0.00000000000E+00 -0.93359023919E+03  0.93359023919E+03  0.00000000000E+00 0. -1.
         23    2    1    2    0    0 -0.10798638592E+03 -0.44038496198E+03 -0.16655480653E+03  0.49204665123E+03  0.93645230123E+02 0.  0.
    5000000    2    1    2    0    0  0.10798638592E+03  0.44038496198E+03 -0.37020879686E+03  0.83837022376E+03  0.60017506158E+03 0.  0.
         23    2    4    4    0    0  0.27263778328E+03  0.35525296225E+03 -0.42611193044E+03  0.62532225749E+03  0.94448506550E+02 0.  0.
         23    2    4    4    0    0 -0.16465139736E+03  0.85131999735E+02  0.55903133578E+02  0.21304796628E+03  0.88919826578E+02 0.  0.
          3    1    3    3  502    0 -0.21560379140E+02 -0.20804452733E+03 -0.11556886800E+03  0.23896346698E+03  0.00000000000E+00 0. -1.
         -3    1    3    3    0  502 -0.86426006778E+02 -0.23234043465E+03 -0.50985938530E+02  0.25308318425E+03  0.00000000000E+00 0.  1.
         15    1    5    5    0    0  0.45893435651E+02  0.13061734668E+03 -0.12590885078E+03  0.18714511781E+03  0.17770000000E+01 0.  1.
        -15    1    5    5    0    0  0.22674434763E+03  0.22463561557E+03 -0.30020307966E+03  0.43817713967E+03  0.17770000000E+01 0. -1.
          4    1    6    6  503    0 -0.50745529312E+02 -0.31622324040E+01  0.46039879855E+02  0.68591391559E+02  0.00000000000E+00 0. -1.
         -4    1    6    6    0  503 -0.11390586805E+03  0.88294232139E+02  0.98632537234E+01  0.14445657472E+03  0.00000000000E+00 0.  1.
<mgrwt>
<rscale>  0 0.55482765E+03</rscale>
<asrwt>0</asrwt>
<pdfrwt beam="1">  1        1 0.14362927E+00 0.55482765E+03</pdfrwt>
<pdfrwt beam="2">  1       -1 0.61050252E-01 0.55482765E+03</pdfrwt>
<totfact> 0.48669538E+01</totfact>
</mgrwt>
</event>
<event>
12    1  0.7781383E-008  0.7669965E+03  0.7818608E-02  0.9609057E-01
          2   -1    0    0  501    0  0.00000000000E+00  0.00000000000E+00  0.79245434674E+03  0.79245434674E+03  0.00000000000E+00 0. -1.
         -2   -1    0    0    0  501 -0.00000000000E+00 -0.00000000000E+00 -0.78357084846E+03  0.78357084846E+03  0.00000000000E+00 0.  1.
         23    2    1    2    0    0 -0.44316062137E+03  0.50048283353E+03 -0.40666869278E+02  0.67615983050E+03  0.93080175834E+02 0.  0.
    5000000    2    1    2    0    0  0.44316062137E+03 -0.50048283353E+03  0.49550367558E+02  0.89986536470E+03  0.60035658793E+03 0.  0.
         23    2    4    4    0    0 -0.53300483989E+02  0.76216943592E+02  0.35522843642E+02  0.13327231597E+03  0.88598384290E+02 0.  0.
         23    2    4    4    0    0  0.49646110536E+03 -0.57669977712E+03  0.14027523915E+02  0.76659304873E+03  0.91716241046E+02 0.  0.
          3    1    3    3  502    0 -0.31768640201E+03  0.41616163413E+03 -0.38426782275E+02  0.52496835461E+03  0.00000000000E+00 0. -1.
         -3    1    3    3    0  502 -0.12547421936E+03  0.84321199393E+02 -0.22400870033E+01  0.15119147589E+03  0.00000000000E+00 0.  1.
         15    1    5    5    0    0 -0.26143606820E+02  0.35438197085E+02 -0.28610996498E+02  0.52546178165E+02  0.17770000000E+01 0. -1.
        -15    1    5    5    0    0 -0.27156877169E+02  0.40778746508E+02  0.64133840140E+02  0.80726137802E+02  0.17770000000E+01 0.  1.
          1    1    6    6  503    0  0.28406613963E+03 -0.26168266667E+03  0.17914768375E+02  0.38664237823E+03  0.00000000000E+00 0. -1.
         -1    1    6    6    0  503  0.21239496573E+03 -0.31501711044E+03 -0.38872444598E+01  0.37995067050E+03  0.00000000000E+00 0.  1.
<mgrwt>
<rscale>  0 0.76699646E+03</rscale>
<asrwt>0</asrwt>
<pdfrwt beam="1">  1        2 0.12191605E+00 0.76699646E+03</pdfrwt>
<pdfrwt beam="2">  1       -2 0.12054936E+00 0.76699646E+03</pdfrwt>
<totfact> 0.18550604E+01</totfact>
</mgrwt>
</event>
<event>
12    1  0.7781383E-008  0.9931668E+03  0.7818608E-02  0.9316071E-01
         -2   -1    0    0    0  501 -0.00000000000E+00  0.00000000000E+00  0.39872369395E+03  0.39872369395E+03  0.00000000000E+00 0.  1.
          2   -1    0    0  501    0  0.00000000000E+00 -0.00000000000E+00 -0.29667643232E+04  0.29667643232E+04  0.00000000000E+00 0. -1.
         23    2    1    2    0    0  0.41237161724E+03 -0.87671433699E+03 -0.78925986160E+03  0.12529727677E+04  0.91275671128E+02 0.  0.
    5000000    2    1    2    0    0 -0.41237161724E+03  0.87671433699E+03 -0.17787807677E+04  0.21125152495E+04  0.59998440008E+03 0.  0.
         23    2    4    4    0    0 -0.26745627700E+03  0.81102342980E+03 -0.17190985844E+04  0.19216109350E+04  0.89424711179E+02 0.  0.
         23    2    4    4    0    0 -0.14491534024E+03  0.65690907191E+02 -0.59682183278E+02  0.19090431442E+03  0.86987028576E+02 0.  0.
          3    1    3    3  502    0  0.23322707927E+03 -0.58327444463E+03 -0.48047477165E+03  0.79086026228E+03  0.00000000000E+00 0. -1.
         -3    1    3    3    0  502  0.17914453797E+03 -0.29343989236E+03 -0.30878508995E+03  0.46211250544E+03  0.00000000000E+00 0.  1.
         15    1    5    5    0    0 -0.28390511088E+02  0.86400985552E+02 -0.25256185627E+03  0.26844329083E+03  0.17770000000E+01 0.  1.
        -15    1    5    5    0    0 -0.23906576591E+03  0.72462244424E+03 -0.14665367281E+04  0.16531676442E+04  0.17770000000E+01 0. -1.
          4    1    6    6  503    0 -0.11726751785E+03  0.61410353153E+02 -0.85885686823E+01  0.13265242451E+03  0.00000000000E+00 0. -1.
         -4    1    6    6    0  503 -0.27647822391E+02  0.42805540380E+01 -0.51093614596E+02  0.58251889912E+02  0.00000000000E+00 0.  1.
<mgrwt>
<rscale>  0 0.99316683E+03</rscale>
<asrwt>0</asrwt>
<pdfrwt beam="1">  1        2 0.45642527E+00 0.99316683E+03</pdfrwt>
<pdfrwt beam="2">  1       -2 0.61342108E-01 0.99316683E+03</pdfrwt>
<totfact> 0.46167552E+00</totfact>
</mgrwt>
</event>
<event>
12    1  0.7781383E-008  0.3561142E+03  0.7818608E-02  0.1060133E+00
          4   -1    0    0  501    0  0.00000000000E+00  0.00000000000E+00  0.86588395771E+02  0.86588395771E+02  0.00000000000E+00 0. -1.
         -4   -1    0    0    0  501 -0.00000000000E+00 -0.00000000000E+00 -0.27652638817E+04  0.27652638817E+04  0.00000000000E+00 0.  1.
         23    2    1    2    0    0 -0.24398903815E+03  0.14461786718E+03 -0.10924235969E+04  0.11322050194E+04  0.89743593710E+02 0.  0.
    5000000    2    1    2    0    0  0.24398903815E+03 -0.14461786718E+03 -0.15862518890E+04  0.17196472581E+04  0.60045537598E+03 0.  0.
         23    2    4    4    0    0  0.71434084470E+02  0.10045033651E+03 -0.12566818093E+04  0.12652388554E+04  0.79919288402E+02 0.  0.
         23    2    4    4    0    0  0.17255495368E+03 -0.24506820369E+03 -0.32957007969E+03  0.45440840273E+03  0.89648884790E+02 0.  0.
          2    1    3    3  502    0 -0.84024487749E+02  0.65299438655E+02 -0.26167129342E+03  0.28248185256E+03  0.00000000000E+00 0.  1.
         -2    1    3    3    0  502 -0.15996455040E+03  0.79318428527E+02 -0.83075230346E+03  0.84972316679E+03  0.00000000000E+00 0. -1.
         15    1    5    5    0    0  0.20338378654E+02  0.36363127572E+02 -0.15503384752E+03  0.16054463024E+03  0.17770000000E+01 0.  1.
        -15    1    5    5    0    0  0.51095705816E+02  0.64087208933E+02 -0.11016479618E+04  0.11046942251E+04  0.17770000000E+01 0. -1.
          3    1    6    6  503    0  0.10454494974E+03 -0.18660264947E+03 -0.17790160312E+03  0.27820707342E+03  0.00000000000E+00 0. -1.
         -3    1    6    6    0  503  0.68010003941E+02 -0.58465554214E+02 -0.15166847657E+03  0.17620132931E+03  0.00000000000E+00 0.  1.
<mgrwt>
<rscale>  0 0.35611421E+03</rscale>
<asrwt>0</asrwt>
<pdfrwt beam="1">  1        4 0.13321291E-01 0.35611421E+03</pdfrwt>
<pdfrwt beam="2">  1       -4 0.42542522E+00 0.35611421E+03</pdfrwt>
<totfact> 0.47818360E-01</totfact>
</mgrwt>
</event>
<event>
12    1  0.7781383E-008  0.5367640E+03  0.7818608E-02  0.1004605E+00
          1   -1    0    0  501    0  0.00000000000E+00  0.00000000000E+00  0.14000407783E+04  0.14000407783E+04  0.00000000000E+00 0. -1.
         -1   -1    0    0    0  501 -0.00000000000E+00 -0.00000000000E+00 -0.34185814215E+03  0.34185814215E+03  0.00000000000E+00 0.  1.
         23    2    1    2    0    0  0.35270032992E+03  0.15319986097E+03 -0.77060777719E+02  0.40248589476E+03  0.90492054340E+02 0.  0.
    5000000    2    1    2    0    0 -0.35270032992E+03 -0.15319986097E+03  0.11352434139E+04  0.13394130257E+04  0.59781428936E+03 0.  0.
         23    2    4    4    0    0 -0.23967958939E+03 -0.36135392007E+03  0.58884210905E+03  0.73694607915E+03  0.91277231876E+02 0.  0.
         23    2    4    4    0    0 -0.11302074052E+03  0.20815405911E+03  0.54640130486E+03  0.60246694659E+03  0.91160493991E+02 0.  0.
          2    1    3    3  502    0  0.12016991819E+03  0.77674613580E+02 -0.66457197487E+02  0.15776791160E+03  0.00000000000E+00 0.  1.
         -2    1    3    3    0  502  0.23253041173E+03  0.75525247387E+02 -0.10603580231E+02  0.24471798317E+03  0.00000000000E+00 0. -1.
         15    1    5    5    0    0 -0.62205403185E+02 -0.73214930639E+02  0.76006230433E+02  0.12251548085E+03  0.17770000000E+01 0. -1.
        -15    1    5    5    0    0 -0.17747418621E+03 -0.28813898944E+03  0.51283587861E+03  0.61443059830E+03  0.17770000000E+01 0.  1.
          2    1    6    6  503    0  0.83303555932E+01  0.57017924934E+02  0.16242649894E+03  0.17234502066E+03  0.00000000000E+00 0. -1.
         -2    1    6    6    0  503 -0.12135109612E+03  0.15113613417E+03  0.38397480592E+03  0.43012192593E+03  0.00000000000E+00 0.  1.
<mgrwt>
<rscale>  0 0.53676399E+03</rscale>
<asrwt>0</asrwt>
<pdfrwt beam="1">  1        1 0.21539089E+00 0.53676399E+03</pdfrwt>
<pdfrwt beam="2">  1       -1 0.52593561E-01 0.53676399E+03</pdfrwt>
<totfact> 0.29752420E+01</totfact>
</mgrwt>
</event>
<event>
12    1  0.7781383E-008  0.1305096E+04  0.7818608E-02  0.9025534E-01
         -1   -1    0    0    0  501 -0.00000000000E+00  0.00000000000E+00  0.17320005422E+04  0.17320005422E+04  0.00000000000E+00 0.  1.
          1   -1    0    0  501    0  0.00000000000E+00 -0.00000000000E+00 -0.99544264365E+03  0.99544264365E+03  0.00000000000E+00 0. -1.
         23    2    1    2    0    0  0.12026526230E+04  0.30956582685E+03  0.30252711954E+03  0.12815647647E+04  0.93173254020E+02 0.  0.
    5000000    2    1    2    0    0 -0.12026526230E+04 -0.30956582685E+03  0.43403077898E+03  0.14458784211E+04  0.59998113203E+03 0.  0.
         23    2    4    4    0    0 -0.54324246780E+03 -0.42394155018E+03  0.30277091299E+03  0.75786825040E+03  0.88629805432E+02 0.  0.
         23    2    4    4    0    0 -0.65941015521E+03  0.11437572333E+03  0.13125986599E+03  0.68801017073E+03  0.90693349989E+02 0.  0.
          3    1    3    3  502    0  0.10182756433E+04  0.22838237083E+03  0.26412743379E+03  0.10764790264E+04  0.00000000000E+00 0. -1.
         -3    1    3    3    0  502  0.18437697972E+03  0.81183456015E+02  0.38399685758E+02  0.20508573828E+03  0.00000000000E+00 0.  1.
         15    1    5    5    0    0 -0.15753841323E+03 -0.93811153838E+02  0.46546988399E+02  0.18917892082E+03  0.17770000000E+01 0. -1.
        -15    1    5    5    0    0 -0.38570405457E+03 -0.33013039634E+03  0.25622392459E+03  0.56868932957E+03  0.17770000000E+01 0.  1.
          1    1    6    6  503    0 -0.40249383496E+03  0.10955981912E+03  0.10167522133E+03  0.42935124523E+03  0.00000000000E+00 0. -1.
         -1    1    6    6    0  503 -0.25691632024E+03  0.48159042111E+01  0.29584644656E+02  0.25865892550E+03  0.00000000000E+00 0.  1.
<mgrwt>
<rscale>  0 0.13050961E+04</rscale>
<asrwt>0</asrwt>
<pdfrwt beam="1">  1        1 0.15314502E+00 0.13050961E+04</pdfrwt>
<pdfrwt beam="2">  1       -1 0.26646162E+00 0.13050961E+04</pdfrwt>
<totfact> 0.80700672E-01</totfact>
</mgrwt>
</event>
<event>
12    1  0.7781383E-008  0.3720087E+03  0.7818608E-02  0.1053928E+00
          2   -1    0    0  501    0  0.00000000000E+00  0.00000000000E+00  0.11469276185E+04  0.11469276185E+04  0.00000000000E+00 0. -1.
         -2   -1    0    0    0  501 -0.00000000000E+00 -0.00000000000E+00 -0.20478907114E+03  0.20478907114E+03  0.00000000000E+00 0.  1.
         23    2    1    2    0    0 -0.24760286773E+03 -0.13264660089E+03  0.19798264474E+03  0.35563530620E+03  0.91526185113E+02 0.  0.
    5000000    2    1    2    0    0  0.24760286773E+03  0.13264660089E+03  0.74415590258E+03  0.99608138340E+03  0.59958970486E+03 0.  0.
         23    2    4    4    0    0 -0.62292634128E+01  0.19267515950E+03  0.10793519145E+02  0.21270726075E+03  0.89248853838E+02 0.  0.
         23    2    4    4    0    0  0.25383213115E+03 -0.60028558606E+02  0.73336238343E+03  0.78337412265E+03  0.88433319219E+02 0.  0.
          1    1    3    3  502    0 -0.93382230353E+02 -0.73857649033E+02  0.36005314706E+02  0.12438478988E+03  0.00000000000E+00 0. -1.
         -1    1    3    3    0  502 -0.15422063738E+03 -0.58788951858E+02  0.16197733003E+03  0.23125051632E+03  0.00000000000E+00 0.  1.
         15    1    5    5    0    0  0.16392589268E+02  0.14712041666E+03  0.40884865689E+02  0.15358341041E+03  0.17770000000E+01 0. -1.
        -15    1    5    5    0    0 -0.22621852681E+02  0.45554742836E+02 -0.30091346544E+02  0.59123850343E+02  0.17770000000E+01 0.  1.
          4    1    6    6  503    0  0.15490463896E+03 -0.32293251681E+02  0.31409222330E+03  0.35169905603E+03  0.00000000000E+00 0. -1.
         -4    1    6    6    0  503  0.98927492187E+02 -0.27735306925E+02  0.41927016013E+03  0.43167506661E+03  0.00000000000E+00 0.  1.
<mgrwt>
<rscale>  0 0.37200865E+03</rscale>
<asrwt>0</asrwt>
<pdfrwt beam="1">  1        2 0.17645040E+00 0.37200865E+03</pdfrwt>
<pdfrwt beam="2">  1       -2 0.31506012E-01 0.37200865E+03</pdfrwt>
<totfact> 0.19940183E+02</totfact>
</mgrwt>
</event>
<event>
12    1  0.7781383E-008  0.1901154E+04  0.7818608E-02  0.8654282E-01
          1   -1    0    0  501    0  0.00000000000E+00  0.00000000000E+00  0.16458610777E+04  0.16458610777E+04  0.00000000000E+00 0. -1.
         -1   -1    0    0    0  501 -0.00000000000E+00 -0.00000000000E+00 -0.27357728285E+04  0.27357728285E+04  0.00000000000E+00 0.  1.
         23    2    1    2    0    0  0.10385564885E+04  0.15852513852E+04  0.34692766083E+03  0.19289038109E+04  0.93217892017E+02 0.  0.
    5000000    2    1    2    0    0 -0.10385564885E+04 -0.15852513852E+04 -0.14368394116E+04  0.24527300954E+04  0.59979654202E+03 0.  0.
         23    2    4    4    0    0 -0.55374226511E+03 -0.71955033127E+03 -0.10315577113E+04  0.13770461906E+04  0.88100645814E+02 0.  0.
         23    2    4    4    0    0 -0.48481422342E+03 -0.86570105397E+03 -0.40528170028E+03  0.10756839048E+04  0.91430084880E+02 0.  0.
          3    1    3    3  502    0  0.53612329816E+03  0.79858064952E+03  0.12997924679E+03  0.97059458540E+03  0.00000000000E+00 0. -1.
         -3    1    3    3    0  502  0.50243319037E+03  0.78667073572E+03  0.21694841404E+03  0.95830922545E+03  0.00000000000E+00 0.  1.
         15    1    5    5    0    0 -0.34203926941E+03 -0.50267090696E+03 -0.65565113755E+03  0.89417586325E+03  0.17770000000E+01 0.  1.
        -15    1    5    5    0    0 -0.21170299570E+03 -0.21687942431E+03 -0.37590657375E+03  0.48287032731E+03  0.17770000000E+01 0. -1.
          2    1    6    6  503    0 -0.33282827447E+03 -0.50838118183E+03 -0.23103409092E+03  0.65007910096E+03  0.00000000000E+00 0. -1.
         -2    1    6    6    0  503 -0.15198594894E+03 -0.35731987213E+03 -0.17424760935E+03  0.42560480385E+03  0.00000000000E+00 0.  1.
<mgrwt>
<rscale>  0 0.19011544E+04</rscale>
<asrwt>0</asrwt>
<pdfrwt beam="1">  1        1 0.25320940E+00 0.19011544E+04</pdfrwt>
<pdfrwt beam="2">  1       -1 0.42088812E+00 0.19011544E+04</pdfrwt>
<totfact> 0.24014639E-02</totfact>
</mgrwt>
</event>
<event>
12    1  0.7781383E-008  0.5138114E+03  0.7818608E-02  0.1010236E+00
         -1   -1    0    0    0  501 -0.00000000000E+00  0.00000000000E+00  0.27779562699E+03  0.27779562699E+03  0.00000000000E+00 0.  1.
          1   -1    0    0  501    0  0.00000000000E+00 -0.00000000000E+00 -0.10881794892E+04  0.10881794892E+04  0.00000000000E+00 0. -1.
         23    2    1    2    0    0  0.34913438896E+03 -0.91130306538E+02 -0.14315041406E+03  0.39909432076E+03  0.92653556323E+02 0.  0.
    5000000    2    1    2    0    0 -0.34913438896E+03  0.91130306538E+02 -0.66723344817E+03  0.96688079545E+03  0.59954853343E+03 0.  0.
         23    2    4    4    0    0 -0.48444179431E+03  0.82948376911E+02 -0.35082847389E+03  0.61066659878E+03  0.90932895382E+02 0.  0.
         23    2    4    4    0    0  0.13530740536E+03  0.81819296267E+01 -0.31640497428E+03  0.35621419668E+03  0.91659196178E+02 0.  0.
          1    1    3    3  502    0  0.32959779395E+03 -0.10712818259E+03 -0.12693360978E+03  0.36908440034E+03  0.00000000000E+00 0. -1.
         -1    1    3    3    0  502  0.19536595006E+02  0.15997876057E+02 -0.16216804285E+02  0.30009920426E+02  0.00000000000E+00 0.  1.
         15    1    5    5    0    0 -0.42914611084E+03  0.46814510303E+02 -0.32207288301E+03  0.53860197041E+03  0.17770000000E+01 0. -1.
        -15    1    5    5    0    0 -0.55295683471E+02  0.36133866608E+02 -0.28755590877E+02  0.72064628371E+02  0.17770000000E+01 0.  1.
          2    1    6    6  503    0  0.30169379992E+02 -0.33360439513E+02 -0.13668977083E+03  0.14389997868E+03  0.00000000000E+00 0. -1.
         -2    1    6    6    0  503  0.10513802537E+03  0.41542369140E+02 -0.17971520345E+03  0.21231421800E+03  0.00000000000E+00 0.  1.
<mgrwt>
<rscale>  0 0.51381138E+03</rscale>
<asrwt>0</asrwt>
<pdfrwt beam="1">  1        1 0.16741223E+00 0.51381138E+03</pdfrwt>
<pdfrwt beam="2">  1       -1 0.42737788E-01 0.51381138E+03</pdfrwt>
<totfact> 0.73191095E+01</totfact>
</mgrwt>
</event>
<event>
12    1  0.7781383E-008  0.1324382E+04  0.7818608E-02  0.9010451E-01
         -2   -1    0    0    0  501 -0.00000000000E+00  0.00000000000E+00  0.38283443200E+03  0.38283443200E+03  0.00000000000E+00 0.  1.
          2   -1    0    0  501    0  0.00000000000E+00 -0.00000000000E+00 -0.48677505515E+04  0.48677505515E+04  0.00000000000E+00 0. -1.
         23    2    1    2    0    0 -0.48443301833E+03 -0.11977682809E+04 -0.23646724819E+04  0.26961820120E+04  0.91636734133E+02 0.  0.
    5000000    2    1    2    0    0  0.48443301833E+03  0.11977682809E+04 -0.21202436376E+04  0.25544029716E+04  0.60018101808E+03 0.  0.
         23    2    4    4    0    0 -0.38725574151E+01  0.45301387323E+03 -0.11227386115E+04  0.12136742883E+04  0.85010129960E+02 0.  0.
         23    2    4    4    0    0  0.48830557574E+03  0.74475440762E+03 -0.99750502607E+03  0.13407286833E+04  0.97137336447E+02 0.  0.
          1    1    3    3  502    0 -0.22003431475E+03 -0.43090986900E+03 -0.91039332600E+03  0.10309774114E+04  0.00000000000E+00 0. -1.
         -1    1    3    3    0  502 -0.26439870358E+03 -0.76685841185E+03 -0.14542791559E+04  0.16652046005E+04  0.00000000000E+00 0.  1.
         15    1    5    5    0    0  0.29151584919E+02  0.12228845777E+03 -0.37131217270E+03  0.39202062335E+03  0.17770000000E+01 0. -1.
        -15    1    5    5    0    0 -0.33024142334E+02  0.33072541547E+03 -0.75142643883E+03  0.82165366494E+03  0.17770000000E+01 0.  1.
          1    1    6    6  503    0  0.90795575438E+02  0.79429517074E+02 -0.12534388125E+03  0.17396543700E+03  0.00000000000E+00 0. -1.
         -1    1    6    6    0  503  0.39751000030E+03  0.66532489055E+03 -0.87216114482E+03  0.11667632463E+04  0.00000000000E+00 0.  1.
<mgrwt>
<rscale>  0 0.13243819E+04</rscale>
<asrwt>0</asrwt>
<pdfrwt beam="1">  1        2 0.74888473E+00 0.13243819E+04</pdfrwt>
<pdfrwt beam="2">  1       -2 0.58897603E-01 0.13243819E+04</pdfrwt>
<totfact> 0.13779868E-01</totfact>
</mgrwt>
</event>
<event>
12    1  0.7781383E-008  0.5714265E+03  0.7818608E-02  0.9966527E-01
          1   -1    0    0  501    0  0.00000000000E+00  0.00000000000E+00  0.25194031366E+03  0.25194031366E+03  0.00000000000E+00 0. -1.
         -1   -1    0    0    0  501 -0.00000000000E+00 -0.00000000000E+00 -0.14044122762E+04  0.14044122762E+04  0.00000000000E+00 0.  1.
         23    2    1    2    0    0 -0.41001825438E+03 -0.12138602784E+03 -0.56189450201E+03  0.71215826527E+03  0.92706131009E+02 0.  0.
    5000000    2    1    2    0    0  0.41001825438E+03  0.12138602784E+03 -0.59057746057E+03  0.94419432463E+03  0.59989303135E+03 0.  0.
         23    2    4    4    0    0  0.47969574969E+03  0.26154689450E+03 -0.42591362427E+03  0.69912641121E+03  0.94130405418E+02 0.  0.
         23    2    4    4    0    0 -0.69677495313E+02 -0.14016086666E+03 -0.16466383629E+03  0.24506791342E+03  0.91891682482E+02 0.  0.
          2    1    3    3  502    0 -0.22586128129E+03 -0.80297177923E+02 -0.38496283356E+03  0.45349458474E+03  0.00000000000E+00 0. -1.
         -2    1    3    3    0  502 -0.18415697309E+03 -0.41088849915E+02 -0.17693166845E+03  0.25866368053E+03  0.00000000000E+00 0.  1.
         15    1    5    5    0    0  0.14424288961E+03  0.51476560812E+02 -0.76723171338E+02  0.17130513788E+03  0.17770000000E+01 0.  1.
        -15    1    5    5    0    0  0.33545286008E+03  0.21007033368E+03 -0.34919045294E+03  0.52782127333E+03  0.17770000000E+01 0. -1.
          1    1    6    6  503    0 -0.71666614541E+02 -0.88897890568E+02 -0.61131304285E+02  0.12952210217E+03  0.00000000000E+00 0.  1.
         -1    1    6    6    0  503  0.19891192274E+01 -0.51262976090E+02 -0.10353253201E+03  0.11554581125E+03  0.00000000000E+00 0. -1.
<mgrwt>
<rscale>  0 0.57142650E+03</rscale>
<asrwt>0</asrwt>
<pdfrwt beam="1">  1        1 0.38760049E-01 0.57142650E+03</pdfrwt>
<pdfrwt beam="2">  1       -1 0.21606343E+00 0.57142650E+03</pdfrwt>
<totfact> 0.13570477E+01</totfact>
</mgrwt>
</event>
<event>
12    1  0.7781383E-008  0.1278104E+04  0.7818608E-02  0.9047112E-01
          2   -1    0    0  501    0  0.00000000000E+00  0.00000000000E+00  0.13036598433E+04  0.13036598433E+04  0.00000000000E+00 0. -1.
         -2   -1    0    0    0  501 -0.00000000000E+00 -0.00000000000E+00 -0.17355548029E+04  0.17355548029E+04  0.00000000000E+00 0.  1.
         23    2    1    2    0    0 -0.11295411367E+04  0.43181377637E+03  0.58771856500E+03  0.13475278239E+04  0.89954475222E+02 0.  0.
    5000000    2    1    2    0    0  0.11295411367E+04 -0.43181377637E+03 -0.10196135246E+04  0.16916868223E+04  0.59988852977E+03 0.  0.
         23    2    4    4    0    0  0.66492047109E+03 -0.53794010233E+03 -0.71755446561E+03  0.11200852312E+04  0.90596509015E+02 0.  0.
         23    2    4    4    0    0  0.46462066565E+03  0.10612632597E+03 -0.30205905900E+03  0.57160159111E+03  0.91397723314E+02 0.  0.
          1    1    3    3  502    0 -0.48114843690E+03  0.22857850978E+03  0.27602306207E+03  0.59995056818E+03  0.00000000000E+00 0. -1.
         -1    1    3    3    0  502 -0.64839269984E+03  0.20323526658E+03  0.31169550293E+03  0.74757725577E+03  0.00000000000E+00 0.  1.
         15    1    5    5    0    0  0.15633225614E+03 -0.17505142619E+03 -0.17790935387E+03  0.29451260083E+03  0.17770000000E+01 0.  1.
        -15    1    5    5    0    0  0.50858821494E+03 -0.36288867614E+03 -0.53964511174E+03  0.82557263036E+03  0.17770000000E+01 0. -1.
          2    1    6    6  503    0  0.39033059109E+03  0.54604384519E+02 -0.25765862158E+03  0.47087957529E+03  0.00000000000E+00 0. -1.
         -2    1    6    6    0  503  0.74290074554E+02  0.51521941447E+02 -0.44400437422E+02  0.10072201582E+03  0.00000000000E+00 0.  1.
<mgrwt>
<rscale>  0 0.12781037E+04</rscale>
<asrwt>0</asrwt>
<pdfrwt beam="1">  1        2 0.20056305E+00 0.12781037E+04</pdfrwt>
<pdfrwt beam="2">  1       -2 0.26700843E+00 0.12781037E+04</pdfrwt>
<totfact> 0.80202627E-01</totfact>
</mgrwt>
</event>
<event>
12    1  0.7781383E-008  0.6790165E+03  0.7818608E-02  0.9753805E-01
         -2   -1    0    0    0  501 -0.00000000000E+00  0.00000000000E+00  0.41941733299E+03  0.41941733299E+03  0.00000000000E+00 0.  1.
          2   -1    0    0  501    0  0.00000000000E+00 -0.00000000000E+00 -0.22488022132E+04  0.22488022132E+04  0.00000000000E+00 0. -1.
         23    2    1    2    0    0  0.51806939400E+03  0.36996198381E+03 -0.30343106125E+01  0.64326489957E+03  0.92264605940E+02 0.  0.
    5000000    2    1    2    0    0 -0.51806939400E+03 -0.36996198381E+03 -0.18263505696E+04  0.20249546466E+04  0.59968087462E+03 0.  0.
         23    2    4    4    0    0  0.19115703035E+02 -0.40847270914E+02 -0.87848263351E+03  0.88317780033E+03  0.78977085086E+02 0.  0.
         23    2    4    4    0    0 -0.53718509704E+03 -0.32911471289E+03 -0.94786793609E+03  0.11417768463E+04  0.91194406480E+02 0.  0.
          3    1    3    3  502    0  0.28711736544E+03  0.18568384479E+03  0.41607259604E+02  0.34445033867E+03  0.00000000000E+00 0. -1.
         -3    1    3    3    0  502  0.23095202856E+03  0.18427813901E+03 -0.44641570217E+02  0.29881456090E+03  0.00000000000E+00 0.  1.
         15    1    5    5    0    0  0.42214385523E+02 -0.43679590080E+02 -0.45335225164E+03  0.45740723948E+03  0.17770000000E+01 0. -1.
        -15    1    5    5    0    0 -0.23098682488E+02  0.28323191654E+01 -0.42513038187E+03  0.42577056085E+03  0.17770000000E+01 0.  1.
          3    1    6    6  503    0 -0.35395363737E+02  0.18196542439E+01 -0.54911560503E+02  0.65356119779E+02  0.00000000000E+00 0. -1.
         -3    1    6    6    0  503 -0.50178973330E+03 -0.33093436714E+03 -0.89295637558E+03  0.10764207265E+04  0.00000000000E+00 0.  1.
<mgrwt>
<rscale>  0 0.67901647E+03</rscale>
<asrwt>0</asrwt>
<pdfrwt beam="1">  1        2 0.34596957E+00 0.67901647E+03</pdfrwt>
<pdfrwt beam="2">  1       -2 0.64525743E-01 0.67901647E+03</pdfrwt>
<totfact> 0.11327048E+01</totfact>
</mgrwt>
</event>
<event>
12    1  0.7781383E-008  0.9616757E+03  0.7818608E-02  0.9351607E-01
          1   -1    0    0  501    0  0.00000000000E+00  0.00000000000E+00  0.17720925953E+04  0.17720925953E+04  0.00000000000E+00 0. -1.
         -1   -1    0    0    0  501 -0.00000000000E+00 -0.00000000000E+00 -0.61359205250E+03  0.61359205250E+03  0.00000000000E+00 0.  1.
         23    2    1    2    0    0 -0.38079307294E+03 -0.87427839302E+03  0.56750293916E+03  0.11134308377E+04  0.91118447726E+02 0.  0.
    5000000    2    1    2    0    0  0.38079307294E+03  0.87427839302E+03  0.59099760366E+03  0.12722538101E+04  0.59998793061E+03 0.  0.
         23    2    4    4    0    0  0.21499151890E+03  0.34744293394E+03  0.57393740399E+03  0.71037730974E+03  0.91070483390E+02 0.  0.
         23    2    4    4    0    0  0.16580155405E+03  0.52683545907E+03  0.17060199668E+02  0.56187650036E+03  0.10182531602E+03 0.  0.
          3    1    3    3  502    0 -0.11318927254E+03 -0.23520599629E+03  0.20224840177E+03  0.33020915815E+03  0.00000000000E+00 0. -1.
         -3    1    3    3    0  502 -0.26760380040E+03 -0.63907239673E+03  0.36525453739E+03  0.78322167956E+03  0.00000000000E+00 0.  1.
         15    1    5    5    0    0  0.16417802667E+03  0.26695955849E+03  0.49884285994E+03  0.58912578195E+03  0.17770000000E+01 0.  1.
        -15    1    5    5    0    0  0.50813492230E+02  0.80483375450E+02  0.75094544050E+02  0.12125152779E+03  0.17770000000E+01 0. -1.
          1    1    6    6  503    0  0.29525909002E+02  0.19074903120E+02  0.80885121665E+01  0.36070143616E+02  0.00000000000E+00 0. -1.
         -1    1    6    6    0  503  0.13627564504E+03  0.50776055596E+03  0.89716875014E+01  0.52580635674E+03  0.00000000000E+00 0.  1.
<mgrwt>
<rscale>  0 0.96167566E+03</rscale>
<asrwt>0</asrwt>
<pdfrwt beam="1">  1        1 0.27262963E+00 0.96167566E+03</pdfrwt>
<pdfrwt beam="2">  1       -1 0.94398778E-01 0.96167566E+03</pdfrwt>
<totfact> 0.46849420E+00</totfact>
</mgrwt>
</event>
<event>
12    1  0.7781383E-008  0.1576749E+04  0.7818608E-02  0.8834961E-01
          1   -1    0    0  501    0  0.00000000000E+00  0.00000000000E+00  0.12976903291E+04  0.12976903291E+04  0.00000000000E+00 0. -1.
         -1   -1    0    0    0  501 -0.00000000000E+00 -0.00000000000E+00 -0.19896593593E+04  0.19896593593E+04  0.00000000000E+00 0.  1.
         23    2    1    2    0    0  0.15495715854E+04  0.23005709831E+02 -0.35126453496E+03  0.15909422771E+04  0.77518995102E+02 0.  0.
    5000000    2    1    2    0    0 -0.15495715854E+04 -0.23005709831E+02 -0.34070449524E+03  0.16964074112E+04  0.60001432546E+03 0.  0.
         23    2    4    4    0    0 -0.79984874703E+03 -0.20724723827E+03  0.36299511456E+02  0.83223918989E+03  0.92709108256E+02 0.  0.
         23    2    4    4    0    0 -0.74972283837E+03  0.18424152844E+03 -0.37700400669E+03  0.86416822132E+03  0.92873131213E+02 0.  0.
          1    1    3    3  502    0  0.12560097951E+04  0.16875721177E+02 -0.25332230555E+03  0.12814123403E+04  0.00000000000E+00 0. -1.
         -1    1    3    3    0  502  0.29356179027E+03  0.61299886543E+01 -0.97942229408E+02  0.30952993679E+03  0.00000000000E+00 0.  1.
         15    1    5    5    0    0 -0.17941193943E+02 -0.20948299678E+02  0.41474159294E+00  0.27641408051E+02  0.17770000000E+01 0. -1.
        -15    1    5    5    0    0 -0.78190755309E+03 -0.18629893859E+03  0.35884769863E+02  0.80459778183E+03  0.17770000000E+01 0.  1.
          1    1    6    6  503    0 -0.22746976860E+03  0.65851289551E+02 -0.16300344464E+03  0.28748741003E+03  0.00000000000E+00 0. -1.
         -1    1    6    6    0  503 -0.52225306977E+03  0.11839023889E+03 -0.21400056205E+03  0.57668081129E+03  0.00000000000E+00 0.  1.
<mgrwt>
<rscale>  0 0.15767491E+04</rscale>
<asrwt>0</asrwt>
<pdfrwt beam="1">  1        1 0.19964467E+00 0.15767491E+04</pdfrwt>
<pdfrwt beam="2">  1       -1 0.30610144E+00 0.15767491E+04</pdfrwt>
<totfact> 0.25721347E-01</totfact>
</mgrwt>
</event>
<event>
12    1  0.7781383E-008  0.8513967E+03  0.7818608E-02  0.9488464E-01
          1   -1    0    0  501    0  0.00000000000E+00  0.00000000000E+00  0.41226892162E+04  0.41226892162E+04  0.00000000000E+00 0. -1.
         -1   -1    0    0    0  501 -0.00000000000E+00 -0.00000000000E+00 -0.20053106365E+03  0.20053106365E+03  0.00000000000E+00 0.  1.
         23    2    1    2    0    0 -0.26511241072E+03  0.76050326306E+03  0.18879801736E+04  0.20546220393E+04  0.91393573007E+02 0.  0.
    5000000    2    1    2    0    0  0.26511241072E+03 -0.76050326306E+03  0.20341779789E+04  0.22685982405E+04  0.60000676941E+03 0.  0.
         23    2    4    4    0    0  0.30319942315E+03 -0.75168212878E+03  0.20134360811E+04  0.21723848414E+04  0.91515755427E+02 0.  0.
         23    2    4    4    0    0 -0.38087012426E+02 -0.88211342720E+01  0.20741897796E+02  0.96213399068E+02  0.85430433164E+02 0.  0.
          3    1    3    3  502    0 -0.22708060753E+03  0.60189943380E+03  0.14167869831E+04  0.15559993208E+04  0.00000000000E+00 0. -1.
         -3    1    3    3    0  502 -0.38031803186E+02  0.15860382926E+03  0.47119319047E+03  0.49862271855E+03  0.00000000000E+00 0.  1.
         15    1    5    5    0    0  0.83648014612E+02 -0.32029087083E+03  0.77743619404E+03  0.84498131684E+03  0.17770000000E+01 0.  1.
        -15    1    5    5    0    0  0.21955140853E+03 -0.43139125795E+03  0.12359998871E+04  0.13274035246E+04  0.17770000000E+01 0. -1.
          4    1    6    6  503    0 -0.20403696413E+02  0.31349099390E+02 -0.14305956133E+02  0.40046688262E+02  0.00000000000E+00 0. -1.
         -4    1    6    6    0  503 -0.17683316014E+02 -0.40170233662E+02  0.35047853929E+02  0.56166710806E+02  0.00000000000E+00 0.  1.
<mgrwt>
<rscale>  0 0.85139665E+03</rscale>
<asrwt>0</asrwt>
<pdfrwt beam="1">  1        1 0.63425982E+00 0.85139665E+03</pdfrwt>
<pdfrwt beam="2">  1       -1 0.30850936E-01 0.85139665E+03</pdfrwt>
<totfact> 0.78621236E-01</totfact>
</mgrwt>
</event>
<event>
12    1  0.7781383E-008  0.5272762E+03  0.7818608E-02  0.1006895E+00
          2   -1    0    0  501    0  0.00000000000E+00  0.00000000000E+00  0.15597571605E+04  0.15597571605E+04  0.00000000000E+00 0. -1.
         -2   -1    0    0    0  501 -0.00000000000E+00 -0.00000000000E+00 -0.56516326713E+03  0.56516326713E+03  0.00000000000E+00 0.  1.
         23    2    1    2    0    0  0.35842519600E+03  0.28338922158E+03  0.12460518346E+04  0.13301270431E+04  0.88400814530E+02 0.  0.
    5000000    2    1    2    0    0 -0.35842519600E+03 -0.28338922158E+03 -0.25145794126E+03  0.79479338459E+03  0.59973940668E+03 0.  0.
         23    2    4    4    0    0  0.40783707950E+02 -0.11453667521E+03 -0.31049208652E+03  0.34801671042E+03  0.99641026355E+02 0.  0.
         23    2    4    4    0    0 -0.39920890395E+03 -0.16885254637E+03  0.59034145266E+02  0.44677667417E+03  0.90804376938E+02 0.  0.
          2    1    3    3  502    0  0.17516930038E+03  0.19420898873E+03  0.69013868992E+03  0.73803307949E+03  0.00000000000E+00 0. -1.
         -2    1    3    3    0  502  0.18325589562E+03  0.89180232852E+02  0.55591314473E+03  0.59209396356E+03  0.00000000000E+00 0.  1.
         15    1    5    5    0    0 -0.28569835590E+02 -0.61354087341E+02 -0.10806809054E+03  0.12752423088E+03  0.17770000000E+01 0.  1.
        -15    1    5    5    0    0  0.69353543541E+02 -0.53182587871E+02 -0.20242399599E+03  0.22049247954E+03  0.17770000000E+01 0. -1.
          1    1    6    6  503    0 -0.15233259166E+03 -0.52039162625E+02  0.64974709595E+02  0.17359437150E+03  0.00000000000E+00 0. -1.
         -1    1    6    6    0  503 -0.24687631229E+03 -0.11681338375E+03 -0.59405643288E+01  0.27318230268E+03  0.00000000000E+00 0.  1.
<mgrwt>
<rscale>  0 0.52727622E+03</rscale>
<asrwt>0</asrwt>
<pdfrwt beam="1">  1        2 0.23996264E+00 0.52727622E+03</pdfrwt>
<pdfrwt beam="2">  1       -2 0.86948195E-01 0.52727622E+03</pdfrwt>
<totfact> 0.14272628E+01</totfact>
</mgrwt>
</event>
<event>
12    1  0.7781383E-008  0.2877773E+03  0.7818608E-02  0.1091515E+00
          2   -1    0    0  501    0  0.00000000000E+00  0.00000000000E+00  0.20687035391E+04  0.20687035391E+04  0.00000000000E+00 0. -1.
         -2   -1    0    0    0  501 -0.00000000000E+00 -0.00000000000E+00 -0.16176551722E+03  0.16176551722E+03  0.00000000000E+00 0.  1.
         23    2    1    2    0    0  0.15972869506E+03  0.90063656485E+02  0.14240990503E+04  0.14388386975E+04  0.92595755481E+02 0.  0.
    5000000    2    1    2    0    0 -0.15972869506E+03 -0.90063656485E+02  0.48283897156E+03  0.79163035887E+03  0.59993369165E+03 0.  0.
         23    2    4    4    0    0  0.14825586078E+02 -0.15619477523E+03  0.54570500262E+03  0.57521071421E+03  0.91960915862E+02 0.  0.
         23    2    4    4    0    0 -0.17455428114E+03  0.66131118743E+02 -0.62866031057E+02  0.21641964466E+03  0.89681674845E+02 0.  0.
          3    1    3    3  502    0  0.28574878416E+02  0.66215441746E+02  0.49805406356E+03  0.50324830713E+03  0.00000000000E+00 0. -1.
         -3    1    3    3    0  502  0.13115381664E+03  0.23848214739E+02  0.92604498678E+03  0.93559039035E+03  0.00000000000E+00 0.  1.
         15    1    5    5    0    0  0.18703274118E+02 -0.16374241439E+02  0.22323367442E+02  0.33457715230E+02  0.17770000000E+01 0. -1.
        -15    1    5    5    0    0 -0.38776880395E+01 -0.13982053379E+03  0.52338163518E+03  0.54175299898E+03  0.17770000000E+01 0.  1.
          1    1    6    6  503    0 -0.17802988470E+02 -0.19749520197E+02  0.10218606446E+01  0.26608911020E+02  0.00000000000E+00 0. -1.
         -1    1    6    6    0  503 -0.15675129267E+03  0.85880638941E+02 -0.63887891702E+02  0.18981073364E+03  0.00000000000E+00 0.  1.
<mgrwt>
<rscale>  0 0.28777729E+03</rscale>
<asrwt>0</asrwt>
<pdfrwt beam="1">  1        2 0.31826206E+00 0.28777729E+03</pdfrwt>
<pdfrwt beam="2">  1       -2 0.24887004E-01 0.28777729E+03</pdfrwt>
<totfact> 0.98332419E+01</totfact>
</mgrwt>
</event>
<event>
12    1  0.7781383E-008  0.8492619E+03  0.7818608E-02  0.9491328E-01
         -1   -1    0    0    0  501 -0.00000000000E+00  0.00000000000E+00  0.48276347000E+03  0.48276347000E+03  0.00000000000E+00 0.  1.
          1   -1    0    0  501    0  0.00000000000E+00 -0.00000000000E+00 -0.23452678978E+04  0.23452678978E+04  0.00000000000E+00 0. -1.
         23    2    1    2    0    0  0.72846098921E+03  0.22635452509E+03 -0.51335327195E+02  0.77322028413E+03  0.11550977510E+03 0.  0.
    5000000    2    1    2    0    0 -0.72846098921E+03 -0.22635452509E+03 -0.18111691006E+04  0.20548110837E+04  0.60001941199E+03 0.  0.
         23    2    4    4    0    0 -0.59627833555E+03  0.55926725435E+02 -0.14394885595E+04  0.15618038157E+04  0.91805194725E+02 0.  0.
         23    2    4    4    0    0 -0.13218265366E+03 -0.28228125053E+03 -0.37168054109E+03  0.49300726795E+03  0.88061247405E+02 0.  0.
          4    1    3    3  502    0  0.80377508510E+02 -0.10530029027E+02 -0.13350922497E+02  0.82156390604E+02  0.00000000000E+00 0. -1.
         -4    1    3    3    0  502  0.64808348070E+03  0.23688455412E+03 -0.37984404698E+02  0.69106389353E+03  0.00000000000E+00 0.  1.
         15    1    5    5    0    0 -0.29283235717E+03  0.72286675358E+02 -0.68972154985E+03  0.75279155607E+03  0.17770000000E+01 0. -1.
        -15    1    5    5    0    0 -0.30344597838E+03 -0.16359949923E+02 -0.74976700968E+03  0.80901225967E+03  0.17770000000E+01 0.  1.
          1    1    6    6  503    0 -0.97068443336E+02 -0.11269042036E+03 -0.19901166133E+03  0.24844930042E+03  0.00000000000E+00 0. -1.
         -1    1    6    6    0  503 -0.35114210326E+02 -0.16959083017E+03 -0.17266887975E+03  0.24455796753E+03  0.00000000000E+00 0.  1.
<mgrwt>
<rscale>  0 0.84926189E+03</rscale>
<asrwt>0</asrwt>
<pdfrwt beam="1">  1        1 0.36081044E+00 0.84926189E+03</pdfrwt>
<pdfrwt beam="2">  1       -1 0.74271304E-01 0.84926189E+03</pdfrwt>
<totfact> 0.32876929E+00</totfact>
</mgrwt>
</event>
<event>
12    1  0.7781383E-008  0.3103315E+03  0.7818608E-02  0.1080187E+00
          2   -1    0    0  501    0  0.00000000000E+00  0.00000000000E+00  0.99738195230E+03  0.99738195230E+03  0.00000000000E+00 0. -1.
         -2   -1    0    0    0  501 -0.00000000000E+00 -0.00000000000E+00 -0.24923721720E+03  0.24923721720E+03  0.00000000000E+00 0.  1.
         23    2    1    2    0    0 -0.12233649102E+03  0.23225561606E+03  0.44498480605E+03  0.52488248877E+03  0.92635096898E+02 0.  0.
    5000000    2    1    2    0    0  0.12233649102E+03 -0.23225561606E+03  0.30315992905E+03  0.72173668074E+03  0.60007416668E+03 0.  0.
         23    2    4    4    0    0 -0.36652202087E+02 -0.83067905191E+02  0.43372031230E+03  0.45118347040E+03  0.84909091786E+02 0.  0.
         23    2    4    4    0    0  0.15898869311E+03 -0.14918771087E+03 -0.13056038325E+03  0.27055321034E+03  0.92836675617E+02 0.  0.
          1    1    3    3  502    0 -0.95787695912E+02  0.12550549814E+03  0.32960970594E+03  0.36547157345E+03  0.00000000000E+00 0. -1.
         -1    1    3    3    0  502 -0.26548795107E+02  0.10675011792E+03  0.11537510011E+03  0.15941091531E+03  0.00000000000E+00 0.  1.
         15    1    5    5    0    0  0.19878390299E+02  0.40284508328E+01  0.78091302032E+02  0.80701846317E+02  0.17770000000E+01 0. -1.
        -15    1    5    5    0    0 -0.56530592385E+02 -0.87096356023E+02  0.35562901027E+03  0.37048162408E+03  0.17770000000E+01 0.  1.
          2    1    6    6  503    0  0.96377561506E+02 -0.43526767154E+02 -0.25145181549E+02  0.10869909832E+03  0.00000000000E+00 0. -1.
         -2    1    6    6    0  503  0.62611131600E+02 -0.10566094371E+03 -0.10541520170E+03  0.16185411202E+03  0.00000000000E+00 0.  1.
<mgrwt>
<rscale>  0 0.31033153E+03</rscale>
<asrwt>0</asrwt>
<pdfrwt beam="1">  1        2 0.15344338E+00 0.31033153E+03</pdfrwt>
<pdfrwt beam="2">  1       -2 0.38344188E-01 0.31033153E+03</pdfrwt>
<totfact> 0.17106688E+02</totfact>
</mgrwt>
</event>
<event>
12    1  0.7781383E-008  0.1389763E+04  0.7818608E-02  0.8961262E-01
         -1   -1    0    0    0  501 -0.00000000000E+00  0.00000000000E+00  0.12148299741E+04  0.12148299741E+04  0.00000000000E+00 0.  1.
          1   -1    0    0  501    0  0.00000000000E+00 -0.00000000000E+00 -0.16114455447E+04  0.16114455447E+04  0.00000000000E+00 0. -1.
         23    2    1    2    0    0 -0.62861663429E+03 -0.11671687516E+04 -0.50229642911E+02  0.13305006378E+04  0.10132700788E+03 0.  0.
    5000000    2    1    2    0    0  0.62861663429E+03  0.11671687516E+04 -0.34638592766E+03  0.14957748810E+04  0.59993125952E+03 0.  0.
         23    2    4    4    0    0 -0.25343964184E+02  0.52734333742E+03 -0.12836856933E+03  0.55109759749E+03  0.92177873326E+02 0.  0.
         23    2    4    4    0    0  0.65396059848E+03  0.63982541422E+03 -0.21801735833E+03  0.94467728355E+03  0.88558322425E+02 0.  0.
          1    1    3    3  502    0 -0.40880658124E+03 -0.66762359206E+03 -0.49615698235E+01  0.78285930965E+03  0.00000000000E+00 0. -1.
         -1    1    3    3    0  502 -0.21981005305E+03 -0.49954515958E+03 -0.45268073087E+02  0.54764132818E+03  0.00000000000E+00 0.  1.
         15    1    5    5    0    0  0.52551972925E+01  0.42977769410E+03 -0.12925139504E+03  0.44882687564E+03  0.17770000000E+01 0.  1.
        -15    1    5    5    0    0 -0.30599161477E+02  0.97565643315E+02  0.88282570532E+00  0.10227072186E+03  0.17770000000E+01 0. -1.
          1    1    6    6  503    0  0.20364448373E+03  0.14635901846E+03 -0.48087027544E+02  0.25535152292E+03  0.00000000000E+00 0. -1.
         -1    1    6    6    0  503  0.45031611475E+03  0.49346639576E+03 -0.16993033079E+03  0.68932576063E+03  0.00000000000E+00 0.  1.
<mgrwt>
<rscale>  0 0.13897631E+04</rscale>
<asrwt>0</asrwt>
<pdfrwt beam="1">  1        1 0.24791470E+00 0.13897631E+04</pdfrwt>
<pdfrwt beam="2">  1       -1 0.18689692E+00 0.13897631E+04</pdfrwt>
<totfact> 0.97639804E-01</totfact>
</mgrwt>
</event>
<event>
12    1  0.7781383E-008  0.3053875E+03  0.7818608E-02  0.1082578E+00
         -2   -1    0    0    0  501 -0.00000000000E+00  0.00000000000E+00  0.27152031019E+03  0.27152031019E+03  0.00000000000E+00 0.  1.
          2   -1    0    0  501    0  0.00000000000E+00 -0.00000000000E+00 -0.10805253818E+04  0.10805253818E+04  0.00000000000E+00 0. -1.
         23    2    1    2    0    0 -0.28778413728E+03  0.66094027257E+02 -0.81900810692E+01  0.30876110973E+03  0.89878892651E+02 0.  0.
    5000000    2    1    2    0    0  0.28778413728E+03 -0.66094027257E+02 -0.80081499059E+03  0.10432845823E+04  0.59995828225E+03 0.  0.
         23    2    4    4    0    0  0.24137210818E+03 -0.11049278105E+02 -0.26562670875E+02  0.26011443216E+03  0.92581646014E+02 0.  0.
         23    2    4    4    0    0  0.46412029098E+02 -0.55044749151E+02 -0.77425231971E+03  0.78317015015E+03  0.93299671265E+02 0.  0.
          2    1    3    3  502    0 -0.15892819975E+03  0.50174893543E+02 -0.47158024331E+02  0.17320384486E+03  0.00000000000E+00 0.  1.
         -2    1    3    3    0  502 -0.12885593753E+03  0.15919133714E+02  0.38967943262E+02  0.13555726487E+03  0.00000000000E+00 0. -1.
         15    1    5    5    0    0  0.67187944349E+02  0.31511809567E+01  0.33690444170E+02  0.75248611712E+02  0.17770000000E+01 0. -1.
        -15    1    5    5    0    0  0.17418416384E+03 -0.14200459062E+02 -0.60253115046E+02  0.18486582045E+03  0.17770000000E+01 0.  1.
          4    1    6    6  503    0  0.43802327264E+01 -0.81180190869E+01 -0.55422099583E+03  0.55429775472E+03  0.00000000000E+00 0. -1.
         -4    1    6    6    0  503  0.42031796371E+02 -0.46926730064E+02 -0.22003132388E+03  0.22887239543E+03  0.00000000000E+00 0.  1.
<mgrwt>
<rscale>  0 0.30538751E+03</rscale>
<asrwt>0</asrwt>
<pdfrwt beam="1">  1        2 0.16623468E+00 0.30538751E+03</pdfrwt>
<pdfrwt beam="2">  1       -2 0.41772355E-01 0.30538751E+03</pdfrwt>
<totfact> 0.12927843E+02</totfact>
</mgrwt>
</event>
<event>
12    1  0.7781383E-008  0.1088069E+04  0.7818608E-02  0.9216899E-01
          1   -1    0    0  501    0  0.00000000000E+00  0.00000000000E+00  0.28987193449E+04  0.28987193449E+04  0.00000000000E+00 0. -1.
         -1   -1    0    0    0  501 -0.00000000000E+00 -0.00000000000E+00 -0.46533215766E+03  0.46533215766E+03  0.00000000000E+00 0.  1.
         23    2    1    2    0    0  0.57427661660E+02  0.10802302280E+04  0.11653413108E+04  0.15926287298E+04  0.90832915091E+02 0.  0.
    5000000    2    1    2    0    0 -0.57427661660E+02 -0.10802302280E+04  0.12680458764E+04  0.17714227728E+04  0.59983582203E+03 0.  0.
         23    2    4    4    0    0  0.22510031369E+02 -0.45169530049E+03  0.95197767626E+03  0.10575147544E+04  0.86836707085E+02 0.  0.
         23    2    4    4    0    0 -0.79937693029E+02 -0.62853492750E+03  0.31606820017E+03  0.71390801837E+03  0.91210534901E+02 0.  0.
          4    1    3    3  502    0 -0.13646495682E+02  0.58327634854E+03  0.61476925638E+03  0.84754867955E+03  0.00000000000E+00 0. -1.
         -4    1    3    3    0  502  0.71074157342E+02  0.49695387945E+03  0.55057205442E+03  0.74508005023E+03  0.00000000000E+00 0.  1.
         15    1    5    5    0    0  0.39724443330E+02 -0.40994060479E+03  0.81302611927E+03  0.91139670791E+03  0.17770000000E+01 0.  1.
        -15    1    5    5    0    0 -0.17214411961E+02 -0.41754695699E+02  0.13895155699E+03  0.14611804650E+03  0.17770000000E+01 0. -1.
          3    1    6    6  503    0 -0.63141645169E+02 -0.47566255351E+03  0.28138040716E+03  0.55625233995E+03  0.00000000000E+00 0. -1.
         -3    1    6    6    0  503 -0.16796047860E+02 -0.15287237399E+03  0.34687793007E+02  0.15765567842E+03  0.00000000000E+00 0.  1.
<mgrwt>
<rscale>  0 0.10880688E+04</rscale>
<asrwt>0</asrwt>
<pdfrwt beam="1">  1        1 0.44595681E+00 0.10880688E+04</pdfrwt>
<pdfrwt beam="2">  1       -1 0.71589564E-01 0.10880688E+04</pdfrwt>
<totfact> 0.14122891E+00</totfact>
</mgrwt>
</event>
<event>
12    1  0.8302129E-008  0.5149276E+03  0.7818608E-02  0.1009954E+00
          2   -1    0    0  501    0  0.00000000000E+00  0.00000000000E+00  0.24159546642E+04  0.24159546642E+04  0.00000000000E+00 0. -1.
         -2   -1    0    0    0  501 -0.00000000000E+00 -0.00000000000E+00 -0.23500461814E+03  0.23500461814E+03  0.00000000000E+00 0.  1.
         23    2    1    2    0    0 -0.29354034965E+03 -0.39378316157E+03  0.22684732850E+03  0.54864699862E+03  0.91228852008E+02 0.  0.
    5000000    2    1    2    0    0  0.29354034965E+03  0.39378316157E+03  0.19541027176E+04  0.21023122837E+04  0.59997365969E+03 0.  0.
         23    2    4    4    0    0  0.21586780690E+03  0.20669898444E+03  0.18117397616E+04  0.18385545103E+04  0.92511314468E+02 0.  0.
         23    2    4    4    0    0  0.77672542751E+02  0.18708417713E+03  0.14236295595E+03  0.26375777343E+03  0.90925456211E+02 0.  0.
          1    1    3    3  502    0 -0.12417362699E+03 -0.24228601431E+03  0.11926362229E+03  0.29722956444E+03  0.00000000000E+00 0. -1.
         -1    1    3    3    0  502 -0.16936672266E+03 -0.15149714726E+03  0.10758370621E+03  0.25141743419E+03  0.00000000000E+00 0.  1.
         15    1    5    5    0    0  0.79383505217E+02  0.23339482425E+02  0.56553385031E+03  0.57155766631E+03  0.17770000000E+01 0. -1.
        -15    1    5    5    0    0  0.13648430169E+03  0.18335950202E+03  0.12462059113E+04  0.12669968440E+04  0.17770000000E+01 0.  1.
          4    1    6    6  503    0 -0.51081310327E+01  0.95221298985E+02  0.40727090511E+02  0.10369129512E+03  0.00000000000E+00 0. -1.
         -4    1    6    6    0  503  0.82780673784E+02  0.91862878146E+02  0.10163586544E+03  0.16006647830E+03  0.00000000000E+00 0.  1.
<mgrwt>
<rscale>  0 0.51492762E+03</rscale>
<asrwt>0</asrwt>
<pdfrwt beam="1">  1        2 0.37168532E+00 0.51492762E+03</pdfrwt>
<pdfrwt beam="2">  1       -2 0.36154558E-01 0.51492762E+03</pdfrwt>
<totfact> 0.30390165E+01</totfact>
</mgrwt>
</event>
<event>
12    1  0.7781383E-008  0.9243048E+03  0.7818608E-02  0.9395699E-01
          2   -1    0    0  501    0  0.00000000000E+00  0.00000000000E+00  0.23181043053E+04  0.23181043053E+04  0.00000000000E+00 0. -1.
         -2   -1    0    0    0  501 -0.00000000000E+00 -0.00000000000E+00 -0.56249812360E+03  0.56249812360E+03  0.00000000000E+00 0.  1.
         23    2    1    2    0    0 -0.88944427625E+03 -0.85213541319E+02  0.96842800899E+02  0.90325575410E+03  0.90110826505E+02 0.  0.
    5000000    2    1    2    0    0  0.88944427625E+03  0.85213541319E+02  0.16587633808E+04  0.19773466748E+04  0.60002620836E+03 0.  0.
         23    2    4    4    0    0 -0.79601274420E+01  0.18049718798E+02  0.49342552338E+03  0.50230823151E+03  0.91954642821E+02 0.  0.
         23    2    4    4    0    0  0.89740440369E+03  0.67163822521E+02  0.11653378574E+04  0.14750384433E+04  0.88771867564E+02 0.  0.
          1    1    3    3  502    0 -0.47751212256E+03 -0.19282487206E+02  0.88318659578E+02  0.48599364927E+03  0.00000000000E+00 0. -1.
         -1    1    3    3    0  502 -0.41193215369E+03 -0.65931054113E+02  0.85241413209E+01  0.41726210483E+03  0.00000000000E+00 0.  1.
         15    1    5    5    0    0 -0.20968057366E+02 -0.69727982630E+01  0.44970341622E+03  0.45024948599E+03  0.17770000000E+01 0.  1.
        -15    1    5    5    0    0  0.13007929924E+02  0.25022517061E+02  0.43722107160E+02  0.52058745514E+02  0.17770000000E+01 0. -1.
          1    1    6    6  503    0  0.42496473142E+03  0.69808493240E+02  0.59331982530E+03  0.73314163964E+03  0.00000000000E+00 0. -1.
         -1    1    6    6    0  503  0.47243967227E+03 -0.26446707193E+01  0.57201803214E+03  0.74189680368E+03  0.00000000000E+00 0.  1.
<mgrwt>
<rscale>  0 0.92430479E+03</rscale>
<asrwt>0</asrwt>
<pdfrwt beam="1">  1        2 0.35663143E+00 0.92430479E+03</pdfrwt>
<pdfrwt beam="2">  1       -2 0.86538174E-01 0.92430479E+03</pdfrwt>
<totfact> 0.52057975E+00</totfact>
</mgrwt>
</event>
<event>
12    1  0.7781383E-008  0.6001178E+03  0.7818608E-02  0.9905162E-01
         -2   -1    0    0    0  501 -0.00000000000E+00  0.00000000000E+00  0.40833925598E+03  0.40833925598E+03  0.00000000000E+00 0.  1.
          2   -1    0    0  501    0  0.00000000000E+00 -0.00000000000E+00 -0.13733709954E+04  0.13733709954E+04  0.00000000000E+00 0. -1.
         23    2    1    2    0    0 -0.27161954639E+03  0.51176340794E+03 -0.68554872092E+03  0.90204129546E+03  0.89568332922E+02 0.  0.
    5000000    2    1    2    0    0  0.27161954639E+03 -0.51176340794E+03 -0.27948301850E+03  0.87966895593E+03  0.60002312514E+03 0.  0.
         23    2    4    4    0    0  0.96106861041E+02 -0.30366362484E+03 -0.43944460873E+03  0.55093919365E+03  0.94732809353E+02 0.  0.
         23    2    4    4    0    0  0.17551268535E+03 -0.20809978310E+03  0.15996159023E+03  0.32872976228E+03  0.91462144144E+02 0.  0.
          3    1    3    3  502    0 -0.64838151097E+02  0.21495248558E+03 -0.26118055011E+03  0.34441811312E+03  0.00000000000E+00 0. -1.
         -3    1    3    3    0  502 -0.20678139530E+03  0.29681092237E+03 -0.42436817081E+03  0.55762318233E+03  0.00000000000E+00 0.  1.
         15    1    5    5    0    0  0.22321324465E+02 -0.18969519940E+03 -0.20639247102E+03  0.28121792266E+03  0.17770000000E+01 0.  1.
        -15    1    5    5    0    0  0.73785536577E+02 -0.11396842544E+03 -0.23305213771E+03  0.26972127099E+03  0.17770000000E+01 0. -1.
          1    1    6    6  503    0  0.18076960923E+03 -0.16812890676E+03  0.13741016795E+03  0.28253590067E+03  0.00000000000E+00 0. -1.
         -1    1    6    6    0  503 -0.52569238718E+01 -0.39970876337E+02  0.22551422278E+02  0.46193861610E+02  0.00000000000E+00 0.  1.
<mgrwt>
<rscale>  0 0.60011781E+03</rscale>
<asrwt>0</asrwt>
<pdfrwt beam="1">  1        2 0.21128784E+00 0.60011781E+03</pdfrwt>
<pdfrwt beam="2">  1       -2 0.62821425E-01 0.60011781E+03</pdfrwt>
<totfact> 0.36588589E+01</totfact>
</mgrwt>
</event>
<event>
12    1  0.7781383E-008  0.5192306E+03  0.7818608E-02  0.1008878E+00
          2   -1    0    0  501    0  0.00000000000E+00  0.00000000000E+00  0.40655519376E+03  0.40655519376E+03  0.00000000000E+00 0. -1.
         -2   -1    0    0    0  501 -0.00000000000E+00 -0.00000000000E+00 -0.79429730030E+03  0.79429730030E+03  0.00000000000E+00 0.  1.
         23    2    1    2    0    0  0.15430304724E+03  0.33871795292E+03 -0.30592720713E+03  0.49012211780E+03  0.89938602799E+02 0.  0.
    5000000    2    1    2    0    0 -0.15430304724E+03 -0.33871795292E+03 -0.81814899404E+02  0.71073037626E+03  0.59992058471E+03 0.  0.
         23    2    4    4    0    0 -0.12437209369E+03  0.12922183906E+03  0.67107761972E+02  0.21032390307E+03  0.86982705776E+02 0.  0.
         23    2    4    4    0    0 -0.29930953548E+02 -0.46793979198E+03 -0.14892266138E+03  0.50040647320E+03  0.91461294796E+02 0.  0.
          1    1    3    3  502    0  0.11310956978E+03  0.14002542675E+03 -0.14345419541E+03  0.23017384972E+03  0.00000000000E+00 0. -1.
         -1    1    3    3    0  502  0.41193477461E+02  0.19869252617E+03 -0.16247301172E+03  0.25994826808E+03  0.00000000000E+00 0.  1.
         15    1    5    5    0    0 -0.32541993554E+02  0.60760149352E+02  0.66463024468E+02  0.95766739760E+02  0.17770000000E+01 0. -1.
        -15    1    5    5    0    0 -0.91830100140E+02  0.68461689708E+02  0.64473750426E+00  0.11455716331E+03  0.17770000000E+01 0.  1.
          4    1    6    6  503    0  0.15948318146E+02 -0.10375155152E+03 -0.66303416106E+02  0.12415666024E+03  0.00000000000E+00 0. -1.
         -4    1    6    6    0  503 -0.45879271694E+02 -0.36418824046E+03 -0.82619245270E+02  0.37624981296E+03  0.00000000000E+00 0.  1.
<mgrwt>
<rscale>  0 0.51923064E+03</rscale>
<asrwt>0</asrwt>
<pdfrwt beam="1">  1        2 0.62546953E-01 0.51923064E+03</pdfrwt>
<pdfrwt beam="2">  1       -2 0.12219958E+00 0.51923064E+03</pdfrwt>
<totfact> 0.40822923E+01</totfact>
</mgrwt>
</event>
<event>
12    1  0.7781383E-008  0.7573171E+03  0.7818608E-02  0.9623940E-01
         -2   -1    0    0    0  501 -0.00000000000E+00  0.00000000000E+00  0.12505354178E+04  0.12505354178E+04  0.00000000000E+00 0.  1.
          2   -1    0    0  501    0  0.00000000000E+00 -0.00000000000E+00 -0.58149535402E+03  0.58149535402E+03  0.00000000000E+00 0. -1.
         23    2    1    2    0    0 -0.57113830400E+03  0.31836365897E+03 -0.85989493544E+02  0.66693284349E+03  0.99251413454E+02 0.  0.
    5000000    2    1    2    0    0  0.57113830400E+03 -0.31836365897E+03  0.75502955737E+03  0.11650979284E+04  0.59985762356E+03 0.  0.
         23    2    4    4    0    0  0.62743470081E+03 -0.37542971610E+03  0.73841434168E+03  0.10433966243E+04  0.93802985161E+02 0.  0.
         23    2    4    4    0    0 -0.56296396803E+02  0.57066057129E+02  0.16615215690E+02  0.12170130411E+03  0.90051778769E+02 0.  0.
          2    1    3    3  502    0 -0.26455477078E+03  0.96157932198E+02 -0.16524098840E+02  0.28197273008E+03  0.00000000000E+00 0.  1.
         -2    1    3    3    0  502 -0.30658353322E+03  0.22220572677E+03 -0.69465394704E+02  0.38496011341E+03  0.00000000000E+00 0. -1.
         15    1    5    5    0    0  0.47315574673E+03 -0.32699034799E+03  0.56382067672E+03  0.80541663850E+03  0.17770000000E+01 0. -1.
        -15    1    5    5    0    0  0.15427895408E+03 -0.48439368112E+02  0.17459366496E+03  0.23797998577E+03  0.17770000000E+01 0.  1.
          4    1    6    6  503    0 -0.48628164201E+02 -0.10407197425E+02  0.20255262435E+02  0.53696217447E+02  0.00000000000E+00 0. -1.
         -4    1    6    6    0  503 -0.76682326021E+01  0.67473254553E+02 -0.36400467450E+01  0.68005086660E+02  0.00000000000E+00 0.  1.
<mgrwt>
<rscale>  0 0.75731714E+03</rscale>
<asrwt>0</asrwt>
<pdfrwt beam="1">  1        2 0.89460824E-01 0.75731714E+03</pdfrwt>
<pdfrwt beam="2">  1       -2 0.19239006E+00 0.75731714E+03</pdfrwt>
<totfact> 0.78332986E+00</totfact>
</mgrwt>
</event>
<event>
12    1  0.7781383E-008  0.9416826E+03  0.7818608E-02  0.9374925E-01
          1   -1    0    0  501    0  0.00000000000E+00  0.00000000000E+00  0.88573190552E+03  0.88573190552E+03  0.00000000000E+00 0. -1.
         -1   -1    0    0    0  501 -0.00000000000E+00 -0.00000000000E+00 -0.11433672383E+04  0.11433672383E+04  0.00000000000E+00 0.  1.
         23    2    1    2    0    0  0.22693463759E+03  0.87364987159E+03  0.30312679090E+02  0.90754135484E+03  0.89157301293E+02 0.  0.
    5000000    2    1    2    0    0 -0.22693463759E+03 -0.87364987159E+03 -0.28794801182E+03  0.11215577889E+04  0.60017863053E+03 0.  0.
         23    2    4    4    0    0 -0.19510715751E+03 -0.15097168854E+03 -0.29417545742E+03  0.39241694923E+03  0.81194880634E+02 0.  0.
         23    2    4    4    0    0 -0.31827480076E+02 -0.72267818305E+03  0.62274456007E+01  0.72914083970E+03  0.91273426022E+02 0.  0.
          2    1    3    3  502    0  0.19001309465E+03  0.59955457053E+03  0.45231417020E+02  0.63056842631E+03  0.00000000000E+00 0. -1.
         -2    1    3    3    0  502  0.36921542938E+02  0.27409530106E+03 -0.14918737930E+02  0.27697292853E+03  0.00000000000E+00 0.  1.
         15    1    5    5    0    0 -0.13366967111E+03 -0.65703858527E+02 -0.13126460980E+03  0.19854000482E+03  0.17770000000E+01 0. -1.
        -15    1    5    5    0    0 -0.61437486398E+02 -0.85267830012E+02 -0.16291084762E+03  0.19387694441E+03  0.17770000000E+01 0.  1.
          1    1    6    6  503    0 -0.28378211000E+02 -0.36927393897E+03 -0.40805768756E+02  0.37260391252E+03  0.00000000000E+00 0. -1.
         -1    1    6    6    0  503 -0.34492690757E+01 -0.35340424408E+03  0.47033214357E+02  0.35653692718E+03  0.00000000000E+00 0.  1.
<mgrwt>
<rscale>  0 0.94168263E+03</rscale>
<asrwt>0</asrwt>
<pdfrwt beam="1">  1        1 0.13626645E+00 0.94168263E+03</pdfrwt>
<pdfrwt beam="2">  1       -1 0.17590265E+00 0.94168263E+03</pdfrwt>
<totfact> 0.42070952E+00</totfact>
</mgrwt>
</event>
<event>
12    1  0.7781383E-008  0.3190183E+03  0.7818608E-02  0.1076102E+00
         -2   -1    0    0    0  501 -0.00000000000E+00  0.00000000000E+00  0.31852597106E+03  0.31852597106E+03  0.00000000000E+00 0.  1.
          2   -1    0    0  501    0  0.00000000000E+00 -0.00000000000E+00 -0.72925488462E+03  0.72925488462E+03  0.00000000000E+00 0. -1.
         23    2    1    2    0    0 -0.17309439574E+03  0.22356372052E+03 -0.97926913307E+02  0.31435717405E+03  0.96376063196E+02 0.  0.
    5000000    2    1    2    0    0  0.17309439574E+03 -0.22356372052E+03 -0.31280200025E+03  0.73342368163E+03  0.60010232332E+03 0.  0.
         23    2    4    4    0    0  0.10285371860E+03 -0.35920361655E+02  0.15872602118E+03  0.21260573148E+03  0.90211348776E+02 0.  0.
         23    2    4    4    0    0  0.70240677141E+02 -0.18764335886E+03 -0.47152802143E+03  0.52081795015E+03  0.93642294714E+02 0.  0.
          4    1    3    3  502    0 -0.10371610076E+03  0.63439430743E+02 -0.19892349212E+02  0.12319617074E+03  0.00000000000E+00 0. -1.
         -4    1    3    3    0  502 -0.69378294987E+02  0.16012428977E+03 -0.78034564096E+02  0.19116100330E+03  0.00000000000E+00 0.  1.
         15    1    5    5    0    0  0.11678164340E+03 -0.44351471658E+02  0.14320718997E+03  0.19004331680E+03  0.17770000000E+01 0.  1.
        -15    1    5    5    0    0 -0.13927924798E+02  0.84311100034E+01  0.15518831210E+02  0.22562414680E+02  0.17770000000E+01 0. -1.
          3    1    6    6  503    0  0.87387133681E+00 -0.83282825771E+01 -0.11878757364E+03  0.11908237314E+03  0.00000000000E+00 0. -1.
         -3    1    6    6    0  503  0.69366805804E+02 -0.17931507628E+03 -0.35274044778E+03  0.40173557701E+03  0.00000000000E+00 0.  1.
<mgrwt>
<rscale>  0 0.31901834E+03</rscale>
<asrwt>0</asrwt>
<pdfrwt beam="1">  1        2 0.11219306E+00 0.31901834E+03</pdfrwt>
<pdfrwt beam="2">  1       -2 0.49003996E-01 0.31901834E+03</pdfrwt>
<totfact> 0.16023348E+02</totfact>
</mgrwt>
</event>
<event>
12    1  0.7781383E-008  0.4910213E+03  0.7818608E-02  0.1016149E+00
          1   -1    0    0  501    0  0.00000000000E+00  0.00000000000E+00  0.24481462285E+04  0.24481462285E+04  0.00000000000E+00 0. -1.
         -1   -1    0    0    0  501 -0.00000000000E+00 -0.00000000000E+00 -0.12328116167E+03  0.12328116167E+03  0.00000000000E+00 0.  1.
         23    2    1    2    0    0 -0.28232345345E+03 -0.23344825500E+03  0.59916603650E+03  0.70812708689E+03  0.90771205581E+02 0.  0.
    5000000    2    1    2    0    0  0.28232345345E+03  0.23344825500E+03  0.17256990303E+04  0.18633003033E+04  0.59970514151E+03 0.  0.
         23    2    4    4    0    0  0.81247217874E+02  0.35317310192E+03  0.14176545583E+04  0.14659497136E+04  0.89060461039E+02 0.  0.
         23    2    4    4    0    0  0.20107623557E+03 -0.11972484692E+03  0.30804447197E+03  0.39735058964E+03  0.90721567974E+02 0.  0.
          4    1    3    3  502    0 -0.12736747502E+03 -0.14863390029E+03  0.37206196737E+03  0.42041005884E+03  0.00000000000E+00 0. -1.
         -4    1    3    3    0  502 -0.15495597843E+03 -0.84814354707E+02  0.22710406912E+03  0.28771702805E+03  0.00000000000E+00 0.  1.
         15    1    5    5    0    0  0.73022056680E+02  0.28152289896E+03  0.97501881984E+03  0.10174734494E+04  0.17770000000E+01 0. -1.
        -15    1    5    5    0    0  0.82251611942E+01  0.71650202957E+02  0.44263573850E+03  0.44847626424E+03  0.17770000000E+01 0.  1.
          4    1    6    6  503    0  0.69923881016E+02 -0.86767391193E+02  0.17622852105E+03  0.20850520603E+03  0.00000000000E+00 0.  1.
         -4    1    6    6    0  503  0.13115235456E+03 -0.32957455724E+02  0.13181595092E+03  0.18884538361E+03  0.00000000000E+00 0. -1.
<mgrwt>
<rscale>  0 0.49102133E+03</rscale>
<asrwt>0</asrwt>
<pdfrwt beam="1">  1        1 0.37663785E+00 0.49102133E+03</pdfrwt>
<pdfrwt beam="2">  1       -1 0.18966334E-01 0.49102133E+03</pdfrwt>
<totfact> 0.35791402E+01</totfact>
</mgrwt>
</event>
<event>
12    1  0.7781383E-008  0.7600593E+03  0.7818608E-02  0.9619700E-01
         -1   -1    0    0    0  501 -0.00000000000E+00  0.00000000000E+00  0.68549429868E+03  0.68549429868E+03  0.00000000000E+00 0.  1.
          1   -1    0    0  501    0  0.00000000000E+00 -0.00000000000E+00 -0.11355827746E+04  0.11355827746E+04  0.00000000000E+00 0. -1.
         23    2    1    2    0    0 -0.14379260723E+03  0.72888748583E+03  0.36102135467E+02  0.74945641369E+03  0.91805614922E+02 0.  0.
    5000000    2    1    2    0    0  0.14379260723E+03 -0.72888748583E+03 -0.48619061135E+03  0.10716206595E+04  0.60003020466E+03 0.  0.
         23    2    4    4    0    0  0.69637332699E+02 -0.20261276933E+03 -0.47811194590E+03  0.53198093460E+03  0.92257192449E+02 0.  0.
         23    2    4    4    0    0  0.74155274532E+02 -0.52627471651E+03 -0.80786654424E+01  0.53963972495E+03  0.93175565102E+02 0.  0.
          1    1    3    3  502    0  0.65097625624E+01  0.13962491472E+03 -0.56943817760E+01  0.13989252947E+03  0.00000000000E+00 0. -1.
         -1    1    3    3    0  502 -0.15030236979E+03  0.58926257111E+03  0.41796517243E+02  0.60956388421E+03  0.00000000000E+00 0.  1.
         15    1    5    5    0    0  0.53153118816E+02 -0.32504914947E+02 -0.12457398141E+03  0.13929701400E+03  0.17770000000E+01 0. -1.
        -15    1    5    5    0    0  0.16484213883E+02 -0.17010785438E+03 -0.35353796450E+03  0.39268392060E+03  0.17770000000E+01 0.  1.
          1    1    6    6  503    0  0.92932133834E+02 -0.36665714560E+03 -0.17403966070E+02  0.37865121412E+03  0.00000000000E+00 0. -1.
         -1    1    6    6    0  503 -0.18776859303E+02 -0.15961757091E+03  0.93253006277E+01  0.16098851083E+03  0.00000000000E+00 0.  1.
<mgrwt>
<rscale>  0 0.76005930E+03</rscale>
<asrwt>0</asrwt>
<pdfrwt beam="1">  1        1 0.17470504E+00 0.76005930E+03</pdfrwt>
<pdfrwt beam="2">  1       -1 0.10546066E+00 0.76005930E+03</pdfrwt>
<totfact> 0.10372384E+01</totfact>
</mgrwt>
</event>
<event>
12    1  0.7781383E-008  0.1858402E+04  0.7818608E-02  0.8675844E-01
          1   -1    0    0  501    0  0.00000000000E+00  0.00000000000E+00  0.32480575877E+04  0.32480575877E+04  0.00000000000E+00 0. -1.
         -1   -1    0    0    0  501 -0.00000000000E+00 -0.00000000000E+00 -0.16541257495E+04  0.16541257495E+04  0.00000000000E+00 0.  1.
         23    2    1    2    0    0  0.10505155573E+04  0.15264281247E+04  0.21852073994E+04  0.28666498366E+04  0.94784761138E+02 0.  0.
    5000000    2    1    2    0    0 -0.10505155573E+04 -0.15264281247E+04 -0.59127556118E+03  0.20355335006E+04  0.60018670985E+03 0.  0.
         23    2    4    4    0    0 -0.30280212477E+03 -0.36784659205E+03  0.91807817374E+02  0.49409659230E+03  0.93287325710E+02 0.  0.
         23    2    4    4    0    0 -0.74771343255E+03 -0.11585815327E+04 -0.68308337855E+03  0.15414369083E+04  0.89656539930E+02 0.  0.
          3    1    3    3  502    0  0.63684256822E+03  0.96435806656E+03  0.14240935975E+04  0.18340113172E+04  0.00000000000E+00 0. -1.
         -3    1    3    3    0  502  0.41367298910E+03  0.56207005819E+03  0.76111380193E+03  0.10326385194E+04  0.00000000000E+00 0.  1.
         15    1    5    5    0    0 -0.17942172728E+03 -0.28057320615E+03  0.79893311607E+02  0.34249026147E+03  0.17770000000E+01 0. -1.
        -15    1    5    5    0    0 -0.12338039749E+03 -0.87273385897E+02  0.11914505766E+02  0.15160633082E+03  0.17770000000E+01 0.  1.
          1    1    6    6  503    0 -0.70972617277E+03 -0.11080035429E+04 -0.67102312246E+03  0.14770426948E+04  0.00000000000E+00 0. -1.
         -1    1    6    6    0  503 -0.37987259782E+02 -0.50577989798E+02 -0.12060256096E+02  0.64394213520E+02  0.00000000000E+00 0.  1.
<mgrwt>
<rscale>  0 0.18584022E+04</rscale>
<asrwt>0</asrwt>
<pdfrwt beam="1">  1        1 0.49970117E+00 0.18584022E+04</pdfrwt>
<pdfrwt beam="2">  1       -1 0.25448088E+00 0.18584022E+04</pdfrwt>
<totfact> 0.23015257E-02</totfact>
</mgrwt>
</event>
<event>
12    1  0.7781383E-008  0.6054881E+03  0.7818608E-02  0.9894085E-01
          2   -1    0    0  501    0  0.00000000000E+00  0.00000000000E+00  0.17749540656E+04  0.17749540656E+04  0.00000000000E+00 0. -1.
         -2   -1    0    0    0  501 -0.00000000000E+00 -0.00000000000E+00 -0.29499070480E+03  0.29499070480E+03  0.00000000000E+00 0.  1.
         23    2    1    2    0    0 -0.47148550893E+03  0.28177260948E+03  0.28783129666E+03  0.62673776153E+03  0.90878918445E+02 0.  0.
    5000000    2    1    2    0    0  0.47148550893E+03 -0.28177260948E+03  0.11921320641E+04  0.14432070088E+04  0.59997768583E+03 0.  0.
         23    2    4    4    0    0  0.45903139871E+03 -0.11598473867E+03  0.39289482353E+03  0.62197202073E+03  0.91217145380E+02 0.  0.
         23    2    4    4    0    0  0.12454110218E+02 -0.16578787081E+03  0.79923724059E+03  0.82123498811E+03  0.89476343141E+02 0.  0.
          4    1    3    3  502    0 -0.12299173225E+03  0.11944366489E+03  0.10486221158E+03  0.20097223366E+03  0.00000000000E+00 0. -1.
         -4    1    3    3    0  502 -0.34849377667E+03  0.16232894458E+03  0.18296908508E+03  0.42576552788E+03  0.00000000000E+00 0.  1.
         15    1    5    5    0    0  0.33361441273E+03 -0.94033658845E+02  0.33516299754E+03  0.48216003362E+03  0.17770000000E+01 0. -1.
        -15    1    5    5    0    0  0.12541698598E+03 -0.21951079823E+02  0.57731825991E+02  0.13981198711E+03  0.17770000000E+01 0.  1.
          4    1    6    6  503    0 -0.29884603114E+02 -0.81502140559E+02  0.26858271673E+03  0.28226293441E+03  0.00000000000E+00 0. -1.
         -4    1    6    6    0  503  0.42338713331E+02 -0.84285730249E+02  0.53065452387E+03  0.53897205370E+03  0.00000000000E+00 0.  1.
<mgrwt>
<rscale>  0 0.60548811E+03</rscale>
<asrwt>0</asrwt>
<pdfrwt beam="1">  1        2 0.27306985E+00 0.60548811E+03</pdfrwt>
<pdfrwt beam="2">  1       -2 0.45383186E-01 0.60548811E+03</pdfrwt>
<totfact> 0.42920193E+01</totfact>
</mgrwt>
</event>
<event>
12    1  0.7781383E-008  0.4342904E+03  0.7818608E-02  0.1032513E+00
          1   -1    0    0  501    0  0.00000000000E+00  0.00000000000E+00  0.14873058152E+04  0.14873058152E+04  0.00000000000E+00 0. -1.
         -1   -1    0    0    0  501 -0.00000000000E+00 -0.00000000000E+00 -0.34386053190E+03  0.34386053190E+03  0.00000000000E+00 0.  1.
         23    2    1    2    0    0 -0.28250910921E+03  0.71508918710E+02  0.11223079002E+04  0.11634920188E+04  0.95988190679E+02 0.  0.
    5000000    2    1    2    0    0  0.28250910921E+03 -0.71508918710E+02  0.21137383158E+02  0.66767432834E+03  0.60034764721E+03 0.  0.
         23    2    4    4    0    0 -0.12581029543E+03 -0.35291862547E+02  0.15940774194E+03  0.22564452226E+03  0.91819803076E+02 0.  0.
         23    2    4    4    0    0  0.40831940464E+03 -0.36217056163E+02 -0.13827035878E+03  0.44202980608E+03  0.90748256073E+02 0.  0.
          3    1    3    3  502    0 -0.18485352452E+03  0.60035210787E+02  0.89446611118E+03  0.91533855819E+03  0.00000000000E+00 0. -1.
         -3    1    3    3    0  502 -0.97655584690E+02  0.11473707923E+02  0.22784178900E+03  0.24815346060E+03  0.00000000000E+00 0.  1.
         15    1    5    5    0    0 -0.50659675541E+02 -0.58480167362E+02  0.10304176833E+03  0.12886852389E+03  0.17770000000E+01 0. -1.
        -15    1    5    5    0    0 -0.75150619887E+02  0.23188304815E+02  0.56365973609E+02  0.96775998365E+02  0.17770000000E+01 0.  1.
          2    1    6    6  503    0  0.28780010974E+03 -0.66899323001E+02 -0.98729712507E+02  0.31153166567E+03  0.00000000000E+00 0. -1.
         -2    1    6    6    0  503  0.12051929490E+03  0.30682266838E+02 -0.39540646278E+02  0.13049814041E+03  0.00000000000E+00 0.  1.
<mgrwt>
<rscale>  0 0.43429040E+03</rscale>
<asrwt>0</asrwt>
<pdfrwt beam="1">  1        1 0.22881628E+00 0.43429040E+03</pdfrwt>
<pdfrwt beam="2">  1       -1 0.52901621E-01 0.43429040E+03</pdfrwt>
<totfact> 0.26178575E+01</totfact>
</mgrwt>
</event>
<event>
12    1  0.7781383E-008  0.7221285E+03  0.7818608E-02  0.9680120E-01
         -1   -1    0    0    0  501 -0.00000000000E+00  0.00000000000E+00  0.47909226179E+03  0.47909226179E+03  0.00000000000E+00 0.  1.
          1   -1    0    0  501    0  0.00000000000E+00 -0.00000000000E+00 -0.12783751419E+04  0.12783751419E+04  0.00000000000E+00 0. -1.
         23    2    1    2    0    0 -0.16180702644E+03  0.61360941077E+03 -0.12228786964E+03  0.65253386465E+03  0.90266819315E+02 0.  0.
    5000000    2    1    2    0    0  0.16180702644E+03 -0.61360941077E+03 -0.67699501046E+03  0.11049335390E+04  0.59988153721E+03 0.  0.
         23    2    4    4    0    0 -0.14243003456E+03 -0.38946724593E+03 -0.55324297360E+03  0.69754056364E+03  0.92271337325E+02 0.  0.
         23    2    4    4    0    0  0.30423706100E+03 -0.22414216484E+03 -0.12375203686E+03  0.40739297538E+03  0.88626014347E+02 0.  0.
          1    1    3    3  502    0 -0.31925910028E+02  0.19220739042E+03  0.32497230018E+00  0.19484108979E+03  0.00000000000E+00 0. -1.
         -1    1    3    3    0  502 -0.12988111641E+03  0.42140202035E+03 -0.12261284194E+03  0.45769277487E+03  0.00000000000E+00 0.  1.
         15    1    5    5    0    0 -0.57337863705E+02 -0.56519912227E+02 -0.12070500309E+03  0.14510336520E+03  0.17770000000E+01 0.  1.
        -15    1    5    5    0    0 -0.85092170855E+02 -0.33294733370E+03 -0.43253797051E+03  0.55243719844E+03  0.17770000000E+01 0. -1.
          4    1    6    6  503    0  0.12077724470E+03 -0.13218059306E+03 -0.29102113226E+02  0.18139951768E+03  0.00000000000E+00 0. -1.
         -4    1    6    6    0  503  0.18345981630E+03 -0.91961571775E+02 -0.94649923636E+02  0.22599345771E+03  0.00000000000E+00 0.  1.
<mgrwt>
<rscale>  0 0.72212849E+03</rscale>
<asrwt>0</asrwt>
<pdfrwt beam="1">  1        1 0.19667309E+00 0.72212849E+03</pdfrwt>
<pdfrwt beam="2">  1       -1 0.73706504E-01 0.72212849E+03</pdfrwt>
<totfact> 0.18013692E+01</totfact>
</mgrwt>
</event>
<event>
12    1  0.7781383E-008  0.6010813E+03  0.7818608E-02  0.9903165E-01
         -1   -1    0    0    0  501 -0.00000000000E+00  0.00000000000E+00  0.85050138759E+03  0.85050138759E+03  0.00000000000E+00 0.  1.
          1   -1    0    0  501    0  0.00000000000E+00 -0.00000000000E+00 -0.58579913557E+03  0.58579913557E+03  0.00000000000E+00 0. -1.
         23    2    1    2    0    0  0.31374186399E+02 -0.47123107794E+03  0.44141423922E+03  0.65271057294E+03  0.90230222476E+02 0.  0.
    5000000    2    1    2    0    0 -0.31374186399E+02  0.47123107794E+03 -0.17671198720E+03  0.78358995022E+03  0.59978580783E+03 0.  0.
         23    2    4    4    0    0  0.18313084594E+03 -0.90934041653E+01  0.30560668612E+02  0.21049750327E+03  0.98770682306E+02 0.  0.
         23    2    4    4    0    0 -0.21450503234E+03  0.48032448211E+03 -0.20727265581E+03  0.57309244695E+03  0.93535992507E+02 0.  0.
          3    1    3    3  502    0  0.14208604296E+02 -0.41952769307E+03  0.42105415689E+03  0.59455190919E+03  0.00000000000E+00 0. -1.
         -3    1    3    3    0  502  0.17165582103E+02 -0.51703384876E+02  0.20360082329E+02  0.58158663749E+02  0.00000000000E+00 0.  1.
         15    1    5    5    0    0  0.17010349510E+03 -0.33441855026E+02  0.59590976526E+01  0.17347110793E+03  0.17770000000E+01 0. -1.
        -15    1    5    5    0    0  0.13027350840E+02  0.24348450861E+02  0.24601570959E+02  0.37026395340E+02  0.17770000000E+01 0.  1.
          3    1    6    6  503    0 -0.15396524398E+02  0.57346759274E+02  0.51425718419E+01  0.59599914496E+02  0.00000000000E+00 0.  1.
         -3    1    6    6    0  503 -0.19910850794E+03  0.42297772283E+03 -0.21241522765E+03  0.51349253245E+03  0.00000000000E+00 0. -1.
<mgrwt>
<rscale>  0 0.60108128E+03</rscale>
<asrwt>0</asrwt>
<pdfrwt beam="1">  1        1 0.90122944E-01 0.60108128E+03</pdfrwt>
<pdfrwt beam="2">  1       -1 0.13084637E+00 0.60108128E+03</pdfrwt>
<totfact> 0.18503054E+01</totfact>
</mgrwt>
</event>
<event>
12    1  0.7781383E-008  0.4316306E+03  0.7818608E-02  0.1033346E+00
         -2   -1    0    0    0  501 -0.00000000000E+00  0.00000000000E+00  0.24641152358E+03  0.24641152358E+03  0.00000000000E+00 0.  1.
          2   -1    0    0  501    0  0.00000000000E+00 -0.00000000000E+00 -0.12352641956E+04  0.12352641956E+04  0.00000000000E+00 0. -1.
         23    2    1    2    0    0  0.23764545986E+03  0.19279378985E+03 -0.65750892620E+03  0.73104070386E+03  0.91965823381E+02 0.  0.
    5000000    2    1    2    0    0 -0.23764545986E+03 -0.19279378985E+03 -0.33134374584E+03  0.75063501533E+03  0.60001619840E+03 0.  0.
         23    2    4    4    0    0 -0.29324112505E+03  0.35267436680E+02  0.29674784844E+02  0.31029631020E+03  0.90382839955E+02 0.  0.
         23    2    4    4    0    0  0.55595665185E+02 -0.22806122653E+03 -0.36101853068E+03  0.44033870513E+03  0.91983665444E+02 0.  0.
          3    1    3    3  502    0  0.97019234557E+02  0.12927524322E+03 -0.39088372008E+03  0.42298333656E+03  0.00000000000E+00 0. -1.
         -3    1    3    3    0  502  0.14062622531E+03  0.63518546634E+02 -0.26662520611E+03  0.30805736730E+03  0.00000000000E+00 0.  1.
         15    1    5    5    0    0 -0.15682033111E+03  0.25936760334E+02 -0.28833799622E+02  0.16155456514E+03  0.17770000000E+01 0.  1.
        -15    1    5    5    0    0 -0.13642079393E+03  0.93306763456E+01  0.58508584466E+02  0.14874174506E+03  0.17770000000E+01 0. -1.
          2    1    6    6  503    0  0.80083910779E+02 -0.15354223332E+03 -0.23526806977E+03  0.29212961991E+03  0.00000000000E+00 0. -1.
         -2    1    6    6    0  503 -0.24488245594E+02 -0.74518993207E+02 -0.12575046092E+03  0.14820908522E+03  0.00000000000E+00 0.  1.
<mgrwt>
<rscale>  0 0.43163063E+03</rscale>
<asrwt>0</asrwt>
<pdfrwt beam="1">  1        2 0.19004065E+00 0.43163063E+03</pdfrwt>
<pdfrwt beam="2">  1       -2 0.37909465E-01 0.43163063E+03</pdfrwt>
<totfact> 0.12415024E+02</totfact>
</mgrwt>
</event>
<event>
12    1  0.7781383E-008  0.1306631E+04  0.7818608E-02  0.9024323E-01
         -1   -1    0    0    0  501 -0.00000000000E+00  0.00000000000E+00  0.14684852494E+04  0.14684852494E+04  0.00000000000E+00 0.  1.
          1   -1    0    0  501    0  0.00000000000E+00 -0.00000000000E+00 -0.11829907276E+04  0.11829907276E+04  0.00000000000E+00 0. -1.
         23    2    1    2    0    0 -0.21245726871E+03 -0.12225227503E+04  0.26951158894E+03  0.12730802414E+04  0.91634265101E+02 0.  0.
    5000000    2    1    2    0    0  0.21245726871E+03  0.12225227503E+04  0.15982932861E+02  0.13783957355E+04  0.60001615276E+03 0.  0.
         23    2    4    4    0    0 -0.15862183749E+03  0.73472744674E+03 -0.26324745702E+02  0.75760272486E+03  0.91014219489E+02 0.  0.
         23    2    4    4    0    0  0.37107910620E+03  0.48779530353E+03  0.42307678563E+02  0.62079301065E+03  0.89163115747E+02 0.  0.
          1    1    3    3  502    0 -0.93365221395E+02 -0.68202357820E+03  0.11024471726E+03  0.69715645552E+03  0.00000000000E+00 0. -1.
         -1    1    3    3    0  502 -0.11909204731E+03 -0.54049917207E+03  0.15926687168E+03  0.57592378589E+03  0.00000000000E+00 0.  1.
         15    1    5    5    0    0 -0.99802786857E+02  0.38184786576E+03 -0.55952883843E+02  0.39862547810E+03  0.17770000000E+01 0.  1.
        -15    1    5    5    0    0 -0.58819050634E+02  0.35287958098E+03  0.29628138141E+02  0.35897724676E+03  0.17770000000E+01 0. -1.
          1    1    6    6  503    0  0.19465089797E+03  0.32549036759E+03  0.15494077337E+02  0.37956951657E+03  0.00000000000E+00 0. -1.
         -1    1    6    6    0  503  0.17642820823E+03  0.16230493594E+03  0.26813601226E+02  0.24122349409E+03  0.00000000000E+00 0.  1.
<mgrwt>
<rscale>  0 0.13066308E+04</rscale>
<asrwt>0</asrwt>
<pdfrwt beam="1">  1        1 0.18199857E+00 0.13066308E+04</pdfrwt>
<pdfrwt beam="2">  1       -1 0.22592081E+00 0.13066308E+04</pdfrwt>
<totfact> 0.10702152E+00</totfact>
</mgrwt>
</event>
<event>
12    1  0.7781383E-008  0.5142572E+03  0.7818608E-02  0.1010123E+00
          1   -1    0    0  501    0  0.00000000000E+00  0.00000000000E+00  0.25631855139E+04  0.25631855139E+04  0.00000000000E+00 0. -1.
         -1   -1    0    0    0  501 -0.00000000000E+00 -0.00000000000E+00 -0.15207174592E+03  0.15207174592E+03  0.00000000000E+00 0.  1.
         23    2    1    2    0    0  0.16654146104E+03  0.44176834082E+03  0.82092782444E+03  0.95126024171E+03  0.89878970327E+02 0.  0.
    5000000    2    1    2    0    0 -0.16654146104E+03 -0.44176834082E+03  0.15901859435E+04  0.17639970181E+04  0.60008234410E+03 0.  0.
         23    2    4    4    0    0  0.51821190718E+02 -0.20207107254E+03  0.12992324772E+04  0.13189806801E+04  0.90481216522E+02 0.  0.
         23    2    4    4    0    0 -0.21836265176E+03 -0.23969726829E+03  0.29095346633E+03  0.44501633800E+03  0.90821767252E+02 0.  0.
          4    1    3    3  502    0  0.66709406993E+01  0.10346521354E+03  0.13882942332E+03  0.17327192687E+03  0.00000000000E+00 0.  1.
         -4    1    3    3    0  502  0.15987052034E+03  0.33830312729E+03  0.68209840112E+03  0.77798831484E+03  0.00000000000E+00 0. -1.
         15    1    5    5    0    0  0.56697677897E+02 -0.13127643218E+03  0.63173379253E+03  0.64771820314E+03  0.17770000000E+01 0.  1.
        -15    1    5    5    0    0 -0.48764871788E+01 -0.70794640353E+02  0.66749868467E+03  0.67126247698E+03  0.17770000000E+01 0. -1.
          1    1    6    6  503    0 -0.22161939114E+03 -0.20524724918E+03  0.26359928348E+03  0.40090668500E+03  0.00000000000E+00 0. -1.
         -1    1    6    6    0  503  0.32567393858E+01 -0.34450019111E+02  0.27354182853E+02  0.44109653000E+02  0.00000000000E+00 0.  1.
<mgrwt>
<rscale>  0 0.51425720E+03</rscale>
<asrwt>0</asrwt>
<pdfrwt beam="1">  1        1 0.39433620E+00 0.51425720E+03</pdfrwt>
<pdfrwt beam="2">  1       -1 0.23395655E-01 0.51425720E+03</pdfrwt>
<totfact> 0.21004658E+01</totfact>
</mgrwt>
</event>
<event>
12    1  0.7781383E-008  0.1011325E+04  0.7818608E-02  0.9296210E-01
         -2   -1    0    0    0  501 -0.00000000000E+00  0.00000000000E+00  0.26303432653E+03  0.26303432653E+03  0.00000000000E+00 0. -1.
          2   -1    0    0  501    0  0.00000000000E+00 -0.00000000000E+00 -0.45937038160E+04  0.45937038160E+04  0.00000000000E+00 0.  1.
         23    2    1    2    0    0  0.88772078645E+03 -0.36814137640E+03 -0.27310555058E+04  0.28965713687E+04  0.88798932912E+02 0.  0.
    5000000    2    1    2    0    0 -0.88772078645E+03  0.36814137640E+03 -0.15996139837E+04  0.19601667739E+04  0.59992717620E+03 0.  0.
         23    2    4    4    0    0 -0.79695545504E+03  0.45771805027E+03 -0.10976679839E+04  0.14345274578E+04  0.91379501221E+02 0.  0.
         23    2    4    4    0    0 -0.90765331414E+02 -0.89576673869E+02 -0.50194599978E+03  0.52563931611E+03  0.89914281703E+02 0.  0.
          3    1    3    3  502    0  0.25843797161E+02  0.36961661087E+01 -0.62157608559E+02  0.67417592640E+02  0.00000000000E+00 0. -1.
         -3    1    3    3    0  502  0.86187698929E+03 -0.37183754251E+03 -0.26688978972E+04  0.28291537760E+04  0.00000000000E+00 0.  1.
         15    1    5    5    0    0 -0.53162877910E+03  0.28858827348E+03 -0.78398869875E+03  0.99022915926E+03  0.17770000000E+01 0.  1.
        -15    1    5    5    0    0 -0.26532667594E+03  0.16912977679E+03 -0.31367928519E+03  0.44429829850E+03  0.17770000000E+01 0. -1.
          2    1    6    6  503    0 -0.12137646990E+02 -0.47721801132E+02 -0.76564487510E+02  0.91031936843E+02  0.00000000000E+00 0. -1.
         -2    1    6    6    0  503 -0.78627684424E+02 -0.41854872738E+02 -0.42538151227E+03  0.43460737926E+03  0.00000000000E+00 0.  1.
<mgrwt>
<rscale>  0 0.10113253E+04</rscale>
<asrwt>0</asrwt>
<pdfrwt beam="1">  1        2 0.70672361E+00 0.10113253E+04</pdfrwt>
<pdfrwt beam="2">  1       -2 0.40466822E-01 0.10113253E+04</pdfrwt>
<totfact> 0.61847238E-01</totfact>
</mgrwt>
</event>
<event>
12    1  0.7781383E-008  0.5945618E+03  0.7818608E-02  0.9916753E-01
         -2   -1    0    0    0  501 -0.00000000000E+00  0.00000000000E+00  0.25709587154E+03  0.25709587154E+03  0.00000000000E+00 0.  1.
          2   -1    0    0  501    0  0.00000000000E+00 -0.00000000000E+00 -0.29113159813E+04  0.29113159813E+04  0.00000000000E+00 0. -1.
         23    2    1    2    0    0 -0.42452446358E+03 -0.25684586509E+03 -0.12195888842E+03  0.51935421012E+03  0.93080645193E+02 0.  0.
    5000000    2    1    2    0    0  0.42452446358E+03  0.25684586509E+03 -0.25322612214E+04  0.26490576427E+04  0.59913995251E+03 0.  0.
         23    2    4    4    0    0  0.47035714830E+03  0.81638911791E+02 -0.22471563296E+04  0.22991827921E+04  0.92893395697E+02 0.  0.
         23    2    4    4    0    0 -0.45832684715E+02  0.17520695330E+03 -0.28510489172E+03  0.34987485058E+03  0.91266096200E+02 0.  0.
          3    1    3    3  502    0 -0.13940978483E+03 -0.13729543011E+03 -0.46732410667E+02  0.20116918612E+03  0.00000000000E+00 0. -1.
         -3    1    3    3    0  502 -0.28511467876E+03 -0.11955043498E+03 -0.75226477749E+02  0.31818502400E+03  0.00000000000E+00 0.  1.
         15    1    5    5    0    0  0.32339142964E+02  0.22657872014E+02 -0.29392996669E+03  0.29657576162E+03  0.17770000000E+01 0. -1.
        -15    1    5    5    0    0  0.43801800533E+03  0.58981039776E+02 -0.19532263629E+04  0.20026070305E+04  0.17770000000E+01 0.  1.
          4    1    6    6  503    0 -0.25361429849E+02 -0.10178856543E+01 -0.36701872448E+02  0.44623599769E+02  0.00000000000E+00 0. -1.
         -4    1    6    6    0  503 -0.20471254866E+02  0.17622483896E+03 -0.24840301927E+03  0.30525125082E+03  0.00000000000E+00 0.  1.
<mgrwt>
<rscale>  0 0.59456175E+03</rscale>
<asrwt>0</asrwt>
<pdfrwt beam="1">  1        2 0.44789474E+00 0.59456175E+03</pdfrwt>
<pdfrwt beam="2">  1       -2 0.39553214E-01 0.59456175E+03</pdfrwt>
<totfact> 0.13049604E+01</totfact>
</mgrwt>
</event>
<event>
12    1  0.7781383E-008  0.3202478E+03  0.7818608E-02  0.1075535E+00
         -2   -1    0    0    0  501 -0.00000000000E+00  0.00000000000E+00  0.33892270704E+03  0.33892270704E+03  0.00000000000E+00 0.  1.
          2   -1    0    0  501    0  0.00000000000E+00 -0.00000000000E+00 -0.74924926154E+03  0.74924926154E+03  0.00000000000E+00 0. -1.
         23    2    1    2    0    0  0.99397548054E+02  0.11004068116E+03  0.16795461263E+03  0.24185280369E+03  0.91078003291E+02 0.  0.
    5000000    2    1    2    0    0 -0.99397548054E+02 -0.11004068116E+03 -0.57828116713E+03  0.84631916488E+03  0.59988181880E+03 0.  0.
         23    2    4    4    0    0  0.61412741761E+02 -0.25141276381E+03 -0.63968271203E+02  0.28157834122E+03  0.90633988474E+02 0.  0.
         23    2    4    4    0    0 -0.16081028981E+03  0.14137208265E+03 -0.51431289592E+03  0.56474082366E+03  0.92565803264E+02 0.  0.
          3    1    3    3  502    0  0.96490864703E+02  0.54485031367E+02  0.75965104292E+02  0.13434955409E+03  0.00000000000E+00 0. -1.
         -3    1    3    3    0  502  0.29066833509E+01  0.55555649794E+02  0.91989508334E+02  0.10750324960E+03  0.00000000000E+00 0.  1.
         15    1    5    5    0    0  0.58480889997E+02 -0.20143977370E+03 -0.86188025797E+02  0.22678079823E+03  0.17770000000E+01 0. -1.
        -15    1    5    5    0    0  0.29318517636E+01 -0.49972990109E+02  0.22219754594E+02  0.54797542996E+02  0.17770000000E+01 0.  1.
          4    1    6    6  503    0 -0.13550713907E+02  0.98088047982E+01 -0.14488879772E+03  0.14585128797E+03  0.00000000000E+00 0. -1.
         -4    1    6    6    0  503 -0.14725957591E+03  0.13156327785E+03 -0.36942409821E+03  0.41888953569E+03  0.00000000000E+00 0.  1.
<mgrwt>
<rscale>  0 0.32024784E+03</rscale>
<asrwt>0</asrwt>
<pdfrwt beam="1">  1        2 0.11526912E+00 0.32024784E+03</pdfrwt>
<pdfrwt beam="2">  1       -2 0.52141955E-01 0.32024784E+03</pdfrwt>
<totfact> 0.13669613E+02</totfact>
</mgrwt>
</event>
<event>
12    1  0.7781383E-008  0.7922059E+03  0.7818608E-02  0.9571368E-01
         -1   -1    0    0    0  501 -0.00000000000E+00  0.00000000000E+00  0.13871855897E+04  0.13871855897E+04  0.00000000000E+00 0.  1.
          1   -1    0    0  501    0  0.00000000000E+00 -0.00000000000E+00 -0.57409019212E+03  0.57409019212E+03  0.00000000000E+00 0. -1.
         23    2    1    2    0    0 -0.24754798305E+02  0.75488593850E+03  0.61044791603E+03  0.97575025246E+03  0.94743426258E+02 0.  0.
    5000000    2    1    2    0    0  0.24754798305E+02 -0.75488593850E+03  0.20264748153E+03  0.98552552933E+03  0.59977411332E+03 0.  0.
         23    2    4    4    0    0  0.38619184507E+01 -0.72865605159E+03 -0.28444201053E+02  0.73467594051E+03  0.89359437447E+02 0.  0.
         23    2    4    4    0    0  0.20892879855E+02 -0.26229886908E+02  0.23109168258E+03  0.25084958882E+03  0.91638589339E+02 0.  0.
          2    1    3    3  502    0 -0.54001095447E+02  0.46822182632E+03  0.34656799657E+03  0.58502749781E+03  0.00000000000E+00 0.  1.
         -2    1    3    3    0  502  0.29246297141E+02  0.28666411217E+03  0.26387991947E+03  0.39072275465E+03  0.00000000000E+00 0. -1.
         15    1    5    5    0    0 -0.28408842065E+02 -0.17619067182E+03 -0.31633227854E+02  0.18125681774E+03  0.17770000000E+01 0. -1.
        -15    1    5    5    0    0  0.32270760515E+02 -0.55246537977E+03  0.31890268006E+01  0.55341912277E+03  0.17770000000E+01 0.  1.
          1    1    6    6  503    0  0.37448761545E+02  0.21046408416E+02  0.14517164455E+03  0.15139407991E+03  0.00000000000E+00 0. -1.
         -1    1    6    6    0  503 -0.16555881691E+02 -0.47276295324E+02  0.85920038029E+02  0.99455508913E+02  0.00000000000E+00 0.  1.
<mgrwt>
<rscale>  0 0.79220591E+03</rscale>
<asrwt>0</asrwt>
<pdfrwt beam="1">  1        1 0.88321569E-01 0.79220591E+03</pdfrwt>
<pdfrwt beam="2">  1       -1 0.21341317E+00 0.79220591E+03</pdfrwt>
<totfact> 0.45869231E+00</totfact>
</mgrwt>
</event>
<event>
12    1  0.7781383E-008  0.5332358E+03  0.7818608E-02  0.1005450E+00
          2   -1    0    0  501    0  0.00000000000E+00  0.00000000000E+00  0.24197751515E+04  0.24197751515E+04  0.00000000000E+00 0. -1.
         -2   -1    0    0    0  501 -0.00000000000E+00 -0.00000000000E+00 -0.18253121531E+03  0.18253121531E+03  0.00000000000E+00 0.  1.
         23    2    1    2    0    0  0.26343421666E+02  0.46964092990E+03  0.13505614105E+04  0.14329413154E+04  0.89711265114E+02 0.  0.
    5000000    2    1    2    0    0 -0.26343421666E+02 -0.46964092990E+03  0.88668252572E+03  0.11693650514E+04  0.59996011790E+03 0.  0.
         23    2    4    4    0    0  0.14624235891E+03 -0.17070308843E+03  0.74742751145E+03  0.78563973805E+03  0.89752666770E+02 0.  0.
         23    2    4    4    0    0 -0.17258578057E+03 -0.29893784147E+03  0.13925501427E+03  0.38372531333E+03  0.93292402545E+02 0.  0.
          1    1    3    3  502    0  0.59614330027E+02  0.28442506655E+03  0.80757010776E+03  0.85826625576E+03  0.00000000000E+00 0. -1.
         -1    1    3    3    0  502 -0.33270908361E+02  0.18521586335E+03  0.54299130271E+03  0.57467505966E+03  0.00000000000E+00 0.  1.
         15    1    5    5    0    0  0.11605148683E+03 -0.99599984349E+02  0.36963503633E+03  0.40002665197E+03  0.17770000000E+01 0. -1.
        -15    1    5    5    0    0  0.30190872077E+02 -0.71103104081E+02  0.37779247512E+03  0.38561308607E+03  0.17770000000E+01 0.  1.
          3    1    6    6  503    0 -0.60357530650E+02 -0.19637736965E+03  0.75778977881E+02  0.21897387128E+03  0.00000000000E+00 0. -1.
         -3    1    6    6    0  503 -0.11222824992E+03 -0.10256047182E+03  0.63476036387E+02  0.16475144205E+03  0.00000000000E+00 0.  1.
<mgrwt>
<rscale>  0 0.53323576E+03</rscale>
<asrwt>0</asrwt>
<pdfrwt beam="1">  1        2 0.37227308E+00 0.53323576E+03</pdfrwt>
<pdfrwt beam="2">  1       -2 0.28081727E-01 0.53323576E+03</pdfrwt>
<totfact> 0.48259600E+01</totfact>
</mgrwt>
</event>
<event>
12    1  0.7781383E-008  0.4548339E+03  0.7818608E-02  0.1026290E+00
         -3   -1    0    0    0  501 -0.00000000000E+00  0.00000000000E+00  0.14789353489E+03  0.14789353489E+03  0.00000000000E+00 0.  1.
          3   -1    0    0  501    0  0.00000000000E+00 -0.00000000000E+00 -0.14480857096E+04  0.14480857096E+04  0.00000000000E+00 0. -1.
         23    2    1    2    0    0  0.24290795443E+03 -0.70243710571E+02 -0.46523750643E+03  0.53713405164E+03  0.90158742505E+02 0.  0.
    5000000    2    1    2    0    0 -0.24290795443E+03  0.70243710571E+02 -0.83495466830E+03  0.10588451929E+04  0.60005449012E+03 0.  0.
         23    2    4    4    0    0  0.69299895604E+02  0.25335702919E+03 -0.36114023902E+03  0.45558213417E+03  0.90224990796E+02 0.  0.
         23    2    4    4    0    0 -0.31220785003E+03 -0.18311331862E+03 -0.47381442928E+03  0.60326305868E+03  0.91771321782E+02 0.  0.
          2    1    3    3  502    0  0.72487268520E+02 -0.65564257683E+02 -0.18029739816E+03  0.20508590338E+03  0.00000000000E+00 0. -1.
         -2    1    3    3    0  502  0.17042068591E+03 -0.46794528881E+01 -0.28494010827E+03  0.33204814826E+03  0.00000000000E+00 0.  1.
         15    1    5    5    0    0  0.59608178255E+02  0.74944286869E+02 -0.16055183789E+03  0.18694874011E+03  0.17770000000E+01 0.  1.
        -15    1    5    5    0    0  0.96917173487E+01  0.17841274232E+03 -0.20058840112E+03  0.26863339406E+03  0.17770000000E+01 0. -1.
          2    1    6    6  503    0 -0.17790750162E+03 -0.13851338183E+03 -0.34350682947E+03  0.41089412015E+03  0.00000000000E+00 0. -1.
         -2    1    6    6    0  503 -0.13430034842E+03 -0.44599936789E+02 -0.13030759981E+03  0.19236893854E+03  0.00000000000E+00 0.  1.
<mgrwt>
<rscale>  0 0.45483393E+03</rscale>
<asrwt>0</asrwt>
<pdfrwt beam="1">  1        3 0.22278241E+00 0.45483393E+03</pdfrwt>
<pdfrwt beam="2">  1       -3 0.22752852E-01 0.45483393E+03</pdfrwt>
<totfact> 0.51684112E+00</totfact>
</mgrwt>
</event>
<event>
12    1  0.7781383E-008  0.5885308E+03  0.7818608E-02  0.9929491E-01
          2   -1    0    0  501    0  0.00000000000E+00  0.00000000000E+00  0.49236042686E+03  0.49236042686E+03  0.00000000000E+00 0. -1.
         -2   -1    0    0    0  501 -0.00000000000E+00 -0.00000000000E+00 -0.16018715688E+04  0.16018715688E+04  0.00000000000E+00 0.  1.
         23    2    1    2    0    0 -0.34138275182E+03 -0.34789272230E+03 -0.12165951437E+04  0.13137728757E+04  0.91235386432E+02 0.  0.
    5000000    2    1    2    0    0  0.34138275182E+03  0.34789272230E+03  0.10708400175E+03  0.78045911999E+03  0.60006493405E+03 0.  0.
         23    2    4    4    0    0  0.20494798565E+02  0.33673607559E+03 -0.12809303974E+03  0.37193346918E+03  0.90085832940E+02 0.  0.
         23    2    4    4    0    0  0.32088795326E+03  0.11156646705E+02  0.23517704149E+03  0.40852565081E+03  0.92148886108E+02 0.  0.
          1    1    3    3  502    0 -0.29519847964E+03 -0.33404867816E+03 -0.10600906490E+04  0.11500099329E+04  0.00000000000E+00 0. -1.
         -1    1    3    3    0  502 -0.46184272184E+02 -0.13844044140E+02 -0.15650449468E+03  0.16376294273E+03  0.00000000000E+00 0.  1.
         15    1    5    5    0    0 -0.31282777083E+02  0.20661216606E+03 -0.81975668002E+02  0.22447798819E+03  0.17770000000E+01 0.  1.
        -15    1    5    5    0    0  0.51777575648E+02  0.13012390953E+03 -0.46117371737E+02  0.14745548099E+03  0.17770000000E+01 0. -1.
          4    1    6    6  503    0  0.27021239547E+03  0.43804966741E+02  0.19449723639E+03  0.33580171045E+03  0.00000000000E+00 0. -1.
         -4    1    6    6    0  503  0.50675557793E+02 -0.32648320036E+02  0.40679805100E+02  0.72723940362E+02  0.00000000000E+00 0.  1.
<mgrwt>
<rscale>  0 0.58853080E+03</rscale>
<asrwt>0</asrwt>
<pdfrwt beam="1">  1        2 0.75747758E-01 0.58853080E+03</pdfrwt>
<pdfrwt beam="2">  1       -2 0.24644178E+00 0.58853080E+03</pdfrwt>
<totfact> 0.44630270E+00</totfact>
</mgrwt>
</event>
<event>
12    1  0.7781383E-008  0.2902903E+03  0.7818608E-02  0.1090198E+00
          1   -1    0    0  501    0  0.00000000000E+00  0.00000000000E+00  0.49585579472E+03  0.49585579472E+03  0.00000000000E+00 0. -1.
         -1   -1    0    0    0  501 -0.00000000000E+00 -0.00000000000E+00 -0.30363188242E+03  0.30363188242E+03  0.00000000000E+00 0.  1.
         23    2    1    2    0    0  0.65984908022E+02 -0.11219667381E+03  0.13423599610E+02  0.16001093629E+03  0.92093457985E+02 0.  0.
    5000000    2    1    2    0    0 -0.65984908022E+02  0.11219667381E+03  0.17880031269E+03  0.63947674086E+03  0.60001570695E+03 0.  0.
         23    2    4    4    0    0 -0.21147435497E+03 -0.23523880474E+02 -0.12667455654E+03  0.26370436886E+03  0.90657460345E+02 0.  0.
         23    2    4    4    0    0  0.14548944695E+03  0.13572055428E+03  0.30547486923E+03  0.37577237200E+03  0.91119327274E+02 0.  0.
          1    1    3    3  502    0 -0.67320697727E+00 -0.17572103451E+02  0.37832188125E+02  0.41719377820E+02  0.00000000000E+00 0. -1.
         -1    1    3    3    0  502  0.66658115000E+02 -0.94624570359E+02 -0.24408588515E+02  0.11829155847E+03  0.00000000000E+00 0.  1.
         15    1    5    5    0    0 -0.12371126374E+03  0.30632787520E+02 -0.80053435692E+02  0.15051430079E+03  0.17770000000E+01 0. -1.
        -15    1    5    5    0    0 -0.87763091233E+02 -0.54156667993E+02 -0.46621120847E+02  0.11319006807E+03  0.17770000000E+01 0.  1.
          2    1    6    6  503    0  0.53947817928E+01  0.54387659467E+02  0.10168107960E+03  0.11543900174E+03  0.00000000000E+00 0. -1.
         -2    1    6    6    0  503  0.14009466516E+03  0.81332894817E+02  0.20379378962E+03  0.26033337027E+03  0.00000000000E+00 0.  1.
<mgrwt>
<rscale>  0 0.29029032E+03</rscale>
<asrwt>0</asrwt>
<pdfrwt beam="1">  1        1 0.76285507E-01 0.29029032E+03</pdfrwt>
<pdfrwt beam="2">  1       -1 0.46712597E-01 0.29029032E+03</pdfrwt>
<totfact> 0.21432190E+02</totfact>
</mgrwt>
</event>
<event>
12    1  0.7781383E-008  0.1689790E+04  0.7818608E-02  0.8767209E-01
         -2   -1    0    0    0  501 -0.00000000000E+00  0.00000000000E+00  0.16071469769E+04  0.16071469769E+04  0.00000000000E+00 0. -1.
          2   -1    0    0  501    0  0.00000000000E+00 -0.00000000000E+00 -0.19502122529E+04  0.19502122529E+04  0.00000000000E+00 0.  1.
         23    2    1    2    0    0 -0.56432324457E+03  0.15790095138E+04 -0.54656209341E+03  0.17648128980E+04  0.64052116840E+02 0.  0.
    5000000    2    1    2    0    0  0.56432324457E+03 -0.15790095138E+04  0.20349681733E+03  0.17925463319E+04  0.60006635306E+03 0.  0.
         23    2    4    4    0    0  0.41839903232E+03 -0.77811536165E+03  0.35908706318E+03  0.95806037127E+03  0.91732708341E+02 0.  0.
         23    2    4    4    0    0  0.14592421225E+03 -0.80089415219E+03 -0.15559024585E+03  0.83448596059E+03  0.97124533945E+02 0.  0.
          1    1    3    3  502    0 -0.29378950734E+03  0.72741558900E+03 -0.25270121935E+03  0.82419877457E+03  0.00000000000E+00 0. -1.
         -1    1    3    3    0  502 -0.27053373723E+03  0.85159392484E+03 -0.29386087406E+03  0.94061412338E+03  0.00000000000E+00 0.  1.
         15    1    5    5    0    0  0.21515897694E+03 -0.31354120737E+03  0.17482907943E+03  0.41853296025E+03  0.17770000000E+01 0. -1.
        -15    1    5    5    0    0  0.20324005538E+03 -0.46457415428E+03  0.18425798375E+03  0.53952741102E+03  0.17770000000E+01 0.  1.
          4    1    6    6  503    0  0.10260433453E+03 -0.59516988526E+03 -0.15785502486E+03  0.62423797599E+03  0.00000000000E+00 0. -1.
         -4    1    6    6    0  503  0.43319877719E+02 -0.20572426693E+03  0.22647790144E+01  0.21024798461E+03  0.00000000000E+00 0.  1.
<mgrwt>
<rscale>  0 0.16897895E+04</rscale>
<asrwt>0</asrwt>
<pdfrwt beam="1">  1        2 0.30003265E+00 0.16897895E+04</pdfrwt>
<pdfrwt beam="2">  1       -2 0.24725338E+00 0.16897895E+04</pdfrwt>
<totfact> 0.43769700E-01</totfact>
</mgrwt>
</event>
<event>
12    1  0.7781383E-008  0.6497541E+03  0.7818608E-02  0.9807241E-01
         -1   -1    0    0    0  501 -0.00000000000E+00  0.00000000000E+00  0.13380722429E+04  0.13380722429E+04  0.00000000000E+00 0.  1.
          1   -1    0    0  501    0  0.00000000000E+00 -0.00000000000E+00 -0.39843739674E+03  0.39843739674E+03  0.00000000000E+00 0. -1.
         23    2    1    2    0    0  0.54531408106E+03 -0.80726566478E+02  0.10228859824E+03  0.56816379764E+03  0.91994119818E+02 0.  0.
    5000000    2    1    2    0    0 -0.54531408106E+03  0.80726566478E+02  0.83734624792E+03  0.11683458420E+04  0.59999920172E+03 0.  0.
         23    2    4    4    0    0 -0.51614856290E+03 -0.10951810159E+03  0.78411857236E+03  0.94934804424E+03  0.89533345879E+02 0.  0.
         23    2    4    4    0    0 -0.29165518158E+02  0.19024466807E+03  0.53227675558E+02  0.21899779775E+03  0.89906555911E+02 0.  0.
          2    1    3    3  502    0  0.27277207275E+03  0.60883224687E+01  0.51177809520E+02  0.27759834209E+03  0.00000000000E+00 0. -1.
         -2    1    3    3    0  502  0.27254200831E+03 -0.86814888946E+02  0.51110788724E+02  0.29056545555E+03  0.00000000000E+00 0.  1.
         15    1    5    5    0    0 -0.35041248763E+03 -0.62796276087E+02  0.59670093722E+03  0.69482907970E+03  0.17770000000E+01 0.  1.
        -15    1    5    5    0    0 -0.16573607527E+03 -0.46721825505E+02  0.18741763514E+03  0.25451896455E+03  0.17770000000E+01 0. -1.
          4    1    6    6  503    0 -0.59689111811E+02  0.15327445049E+03  0.41576454439E+02  0.16965980316E+03  0.00000000000E+00 0. -1.
         -4    1    6    6    0  503  0.30523593653E+02  0.36970217575E+02  0.11651221119E+02  0.49337994594E+02  0.00000000000E+00 0.  1.
<mgrwt>
<rscale>  0 0.64975410E+03</rscale>
<asrwt>0</asrwt>
<pdfrwt beam="1">  1        1 0.61298061E-01 0.64975410E+03</pdfrwt>
<pdfrwt beam="2">  1       -1 0.20585727E+00 0.64975410E+03</pdfrwt>
<totfact> 0.86624255E+00</totfact>
</mgrwt>
</event>
<event>
12    1  0.7781383E-008  0.1116957E+04  0.7818608E-02  0.9188820E-01
          2   -1    0    0  501    0  0.00000000000E+00  0.00000000000E+00  0.23237024338E+04  0.23237024338E+04  0.00000000000E+00 0.  1.
         -2   -1    0    0    0  501 -0.00000000000E+00 -0.00000000000E+00 -0.79565021050E+03  0.79565021050E+03  0.00000000000E+00 0. -1.
         23    2    1    2    0    0  0.42613620126E+03  0.10106792708E+04  0.15106721840E+04  0.18690558393E+04  0.90413675042E+02 0.  0.
    5000000    2    1    2    0    0 -0.42613620126E+03 -0.10106792708E+04  0.17380039332E+02  0.12502968050E+04  0.59989614473E+03 0.  0.
         23    2    4    4    0    0 -0.40416559006E+03 -0.66875757476E+03 -0.22733650017E+03  0.81920690993E+03  0.93976374581E+02 0.  0.
         23    2    4    4    0    0 -0.21970611202E+02 -0.34192169600E+03  0.24471653950E+03  0.43108989507E+03  0.92515722887E+02 0.  0.
          4    1    3    3  502    0  0.34070357735E+03  0.80320607908E+03  0.12606088746E+04  0.15330863211E+04  0.00000000000E+00 0. -1.
         -4    1    3    3    0  502  0.85432623909E+02  0.20747319168E+03  0.25006330934E+03  0.33596951822E+03  0.00000000000E+00 0.  1.
         15    1    5    5    0    0 -0.11038870156E+03 -0.12162429061E+03 -0.70103100734E+02  0.17859377358E+03  0.17770000000E+01 0. -1.
        -15    1    5    5    0    0 -0.29377688849E+03 -0.54713328415E+03 -0.15723339943E+03  0.64061313635E+03  0.17770000000E+01 0.  1.
          2    1    6    6  503    0  0.16527324699E+02 -0.14144820964E+02  0.31121811914E+02  0.37970983641E+02  0.00000000000E+00 0. -1.
         -2    1    6    6    0  503 -0.38497935901E+02 -0.32777687503E+03  0.21359472758E+03  0.39311891143E+03  0.00000000000E+00 0.  1.
<mgrwt>
<rscale>  0 0.11169571E+04</rscale>
<asrwt>0</asrwt>
<pdfrwt beam="1">  1        2 0.35749268E+00 0.11169571E+04</pdfrwt>
<pdfrwt beam="2">  1       -2 0.12240773E+00 0.11169571E+04</pdfrwt>
<totfact> 0.21952335E+00</totfact>
</mgrwt>
</event>
<event>
12    1  0.7781383E-008  0.1189962E+04  0.7818608E-02  0.9121688E-01
          2   -1    0    0  501    0  0.00000000000E+00  0.00000000000E+00  0.24183389612E+04  0.24183389612E+04  0.00000000000E+00 0.  1.
         -2   -1    0    0    0  501 -0.00000000000E+00 -0.00000000000E+00 -0.25962921330E+04  0.25962921330E+04  0.00000000000E+00 0. -1.
         23    2    1    2    0    0  0.11299874926E+04 -0.14255380088E+03 -0.22796880535E+04  0.25500140457E+04  0.91655289539E+02 0.  0.
    5000000    2    1    2    0    0 -0.11299874926E+04  0.14255380088E+03  0.21017348817E+04  0.24646170485E+04  0.59987862376E+03 0.  0.
         23    2    4    4    0    0 -0.98787995022E+03 -0.52735068694E+02  0.18704512422E+04  0.21179373472E+04  0.91558581525E+02 0.  0.
         23    2    4    4    0    0 -0.14210754240E+03  0.19528886957E+03  0.23128363951E+03  0.34667970129E+03  0.91446143681E+02 0.  0.
          3    1    3    3  502    0  0.10152883221E+04 -0.12030539389E+03 -0.19805882540E+04  0.22289041246E+04  0.00000000000E+00 0. -1.
         -3    1    3    3    0  502  0.11469917054E+03 -0.22248406993E+02 -0.29909979954E+03  0.32110992109E+03  0.00000000000E+00 0.  1.
         15    1    5    5    0    0 -0.11597428107E+03 -0.30757549333E+02  0.26394643364E+03  0.28994299142E+03  0.17770000000E+01 0. -1.
        -15    1    5    5    0    0 -0.87190566915E+03 -0.21977519360E+02  0.16065048085E+04  0.18279943558E+04  0.17770000000E+01 0.  1.
          1    1    6    6  503    0 -0.23891632391E+02  0.79605975705E+02  0.35490393449E+02  0.90374163860E+02  0.00000000000E+00 0. -1.
         -1    1    6    6    0  503 -0.11821591001E+03  0.11568289387E+03  0.19579324606E+03  0.25630553743E+03  0.00000000000E+00 0.  1.
<mgrwt>
<rscale>  0 0.11899622E+04</rscale>
<asrwt>0</asrwt>
<pdfrwt beam="1">  1        2 0.37205215E+00 0.11899622E+04</pdfrwt>
<pdfrwt beam="2">  1       -2 0.39942956E+00 0.11899622E+04</pdfrwt>
<totfact> 0.28762217E-02</totfact>
</mgrwt>
</event>
<event>
12    1  0.7781383E-008  0.9104364E+03  0.7818608E-02  0.9412629E-01
         -2   -1    0    0    0  501 -0.00000000000E+00  0.00000000000E+00  0.17454256430E+03  0.17454256430E+03  0.00000000000E+00 0.  1.
          2   -1    0    0  501    0  0.00000000000E+00 -0.00000000000E+00 -0.51083289695E+04  0.51083289695E+04  0.00000000000E+00 0. -1.
         23    2    1    2    0    0  0.53040443419E+03 -0.63026646475E+03 -0.16847864001E+04  0.18776192427E+04  0.91564873308E+02 0.  0.
    5000000    2    1    2    0    0 -0.53040443419E+03  0.63026646475E+03 -0.32490000050E+04  0.34052522911E+04  0.60098040974E+03 0.  0.
         23    2    4    4    0    0  0.14123182731E+02 -0.78157650013E+02 -0.35490382477E+03  0.37499249448E+03  0.91403301584E+02 0.  0.
         23    2    4    4    0    0 -0.54452761692E+03  0.70842411476E+03 -0.28940961803E+04  0.30302597966E+04  0.91141002503E+02 0.  0.
          2    1    3    3  502    0  0.50553079256E+03 -0.58520579737E+03 -0.16179413805E+04  0.17932544488E+04  0.00000000000E+00 0. -1.
         -2    1    3    3    0  502  0.24873641635E+02 -0.45060667377E+02 -0.66845019626E+02  0.84364793850E+02  0.00000000000E+00 0.  1.
         15    1    5    5    0    0 -0.22820183760E+02 -0.19594575974E+02 -0.29034950697E+02  0.41843688717E+02  0.17770000000E+01 0.  1.
        -15    1    5    5    0    0  0.36943366491E+02 -0.58563074038E+02 -0.32586887407E+03  0.33314880577E+03  0.17770000000E+01 0. -1.
          2    1    6    6  503    0 -0.44619411897E+03  0.62379793290E+03 -0.25330646526E+04  0.26466260762E+04  0.00000000000E+00 0. -1.
         -2    1    6    6    0  503 -0.98333497951E+02  0.84626181856E+02 -0.36103152768E+03  0.38363372044E+03  0.00000000000E+00 0.  1.
<mgrwt>
<rscale>  0 0.91043642E+03</rscale>
<asrwt>0</asrwt>
<pdfrwt beam="1">  1        2 0.78589682E+00 0.91043642E+03</pdfrwt>
<pdfrwt beam="2">  1       -2 0.26852700E-01 0.91043642E+03</pdfrwt>
<totfact> 0.35388672E-01</totfact>
</mgrwt>
</event>
<event>
12    1  0.7781383E-008  0.5771119E+03  0.7818608E-02  0.9954063E-01
         -1   -1    0    0    0  501 -0.00000000000E+00  0.00000000000E+00  0.27792834409E+03  0.27792834409E+03  0.00000000000E+00 0.  1.
          1   -1    0    0  501    0  0.00000000000E+00 -0.00000000000E+00 -0.13169802901E+04  0.13169802901E+04  0.00000000000E+00 0. -1.
         23    2    1    2    0    0 -0.19774106545E+03 -0.37776683216E+03 -0.58656027376E+03  0.73097199999E+03  0.91966306724E+02 0.  0.
    5000000    2    1    2    0    0  0.19774106545E+03  0.37776683216E+03 -0.45249167221E+03  0.86393663415E+03  0.59985705461E+03 0.  0.
         23    2    4    4    0    0  0.17835006346E+03  0.52517348721E+03 -0.34191497913E+03  0.65761763349E+03  0.89101975926E+02 0.  0.
         23    2    4    4    0    0  0.19391001987E+02 -0.14740665506E+03 -0.11057669308E+03  0.20631900066E+03  0.90750162911E+02 0.  0.
          4    1    3    3  502    0 -0.43785187710E+02 -0.16165822530E+03 -0.27220308818E+03  0.31960138561E+03  0.00000000000E+00 0. -1.
         -4    1    3    3    0  502 -0.15395587774E+03 -0.21610860686E+03 -0.31435718558E+03  0.41137061438E+03  0.00000000000E+00 0.  1.
         15    1    5    5    0    0  0.83445326302E+02  0.32370127642E+03 -0.24640831012E+03  0.41529008159E+03  0.17770000000E+01 0. -1.
        -15    1    5    5    0    0  0.94904737161E+02  0.20147221079E+03 -0.95506669005E+02  0.24232755190E+03  0.17770000000E+01 0.  1.
          1    1    6    6  503    0 -0.26501516191E+02 -0.62431005998E+02 -0.80296369958E+02  0.10510693554E+03  0.00000000000E+00 0. -1.
         -1    1    6    6    0  503  0.45892518178E+02 -0.84975649058E+02 -0.30280323123E+02  0.10121206512E+03  0.00000000000E+00 0.  1.
<mgrwt>
<rscale>  0 0.57711193E+03</rscale>
<asrwt>0</asrwt>
<pdfrwt beam="1">  1        1 0.20261235E+00 0.57711193E+03</pdfrwt>
<pdfrwt beam="2">  1       -1 0.42758207E-01 0.57711193E+03</pdfrwt>
<totfact> 0.49668491E+01</totfact>
</mgrwt>
</event>
<event>
12    1  0.7781383E-008  0.1106533E+04  0.7818608E-02  0.9198848E-01
          1   -1    0    0  501    0  0.00000000000E+00  0.00000000000E+00  0.32373993903E+04  0.32373993903E+04  0.00000000000E+00 0. -1.
         -1   -1    0    0    0  501 -0.00000000000E+00 -0.00000000000E+00 -0.46538827291E+03  0.46538827291E+03  0.00000000000E+00 0.  1.
         23    2    1    2    0    0  0.54412306754E+03  0.96096053193E+03  0.17999129923E+04  0.21139601234E+04  0.98109973252E+02 0.  0.
    5000000    2    1    2    0    0 -0.54412306754E+03 -0.96096053193E+03  0.97209812511E+03  0.15888275398E+04  0.59990260040E+03 0.  0.
         23    2    4    4    0    0 -0.26384186271E+03 -0.48140138701E+03  0.84463968656E+03  0.10118230505E+04  0.94920290289E+02 0.  0.
         23    2    4    4    0    0 -0.28028120482E+03 -0.47955914492E+03  0.12745843855E+03  0.57700448932E+03  0.90299501039E+02 0.  0.
          1    1    3    3  502    0  0.10285188673E+03  0.21016484081E+03  0.45644381848E+03  0.51292175850E+03  0.00000000000E+00 0. -1.
         -1    1    3    3    0  502  0.44127118081E+03  0.75079569112E+03  0.13434691738E+04  0.16010383649E+04  0.00000000000E+00 0.  1.
         15    1    5    5    0    0 -0.69061637122E+02 -0.14445218772E+03  0.32791950121E+03  0.36492506253E+03  0.17770000000E+01 0.  1.
        -15    1    5    5    0    0 -0.19478022559E+03 -0.33694919930E+03  0.51672018535E+03  0.64689798799E+03  0.17770000000E+01 0. -1.
          4    1    6    6  503    0 -0.24365705331E+03 -0.45037415484E+03  0.97073407736E+02  0.52118028116E+03  0.00000000000E+00 0. -1.
         -4    1    6    6    0  503 -0.36624151513E+02 -0.29184990077E+02  0.30385030810E+02  0.55824208164E+02  0.00000000000E+00 0.  1.
<mgrwt>
<rscale>  0 0.11065330E+04</rscale>
<asrwt>0</asrwt>
<pdfrwt beam="1">  1        1 0.49806143E+00 0.11065330E+04</pdfrwt>
<pdfrwt beam="2">  1       -1 0.71598198E-01 0.11065330E+04</pdfrwt>
<totfact> 0.79712206E-01</totfact>
</mgrwt>
</event>
<event>
12    1  0.7781383E-008  0.5314108E+03  0.7818608E-02  0.1005891E+00
          2   -1    0    0  501    0  0.00000000000E+00  0.00000000000E+00  0.28356186606E+04  0.28356186606E+04  0.00000000000E+00 0. -1.
         -2   -1    0    0    0  501 -0.00000000000E+00 -0.00000000000E+00 -0.22460510152E+03  0.22460510152E+03  0.00000000000E+00 0.  1.
         23    2    1    2    0    0 -0.98270231643E+02 -0.40218441047E+03  0.86531651199E+02  0.43259776096E+03  0.90795141230E+02 0.  0.
    5000000    2    1    2    0    0  0.98270231643E+02  0.40218441047E+03  0.25244819079E+04  0.26276260012E+04  0.60000013356E+03 0.  0.
         23    2    4    4    0    0  0.28619679694E+03  0.29396124485E+03  0.98954296186E+03  0.10747012672E+04  0.86404400193E+02 0.  0.
         23    2    4    4    0    0 -0.18792656530E+03  0.10822316562E+03  0.15349389461E+04  0.15529247339E+04  0.92244315210E+02 0.  0.
          1    1    3    3  502    0 -0.70556753209E+02 -0.18120060805E+03  0.78612213265E+02  0.20974221286E+03  0.00000000000E+00 0. -1.
         -1    1    3    3    0  502 -0.27713478435E+02 -0.22098380242E+03  0.79194379335E+01  0.22285554810E+03  0.00000000000E+00 0.  1.
         15    1    5    5    0    0  0.12385963410E+03  0.18626385625E+03  0.49660055406E+03  0.54465649828E+03  0.17770000000E+01 0.  1.
        -15    1    5    5    0    0  0.16233716284E+03  0.10769738860E+03  0.49294240781E+03  0.53004476895E+03  0.17770000000E+01 0. -1.
          1    1    6    6  503    0 -0.99652421902E+02  0.95369768564E+02  0.11228985548E+04  0.11313386594E+04  0.00000000000E+00 0. -1.
         -1    1    6    6    0  503 -0.88274143396E+02  0.12853397059E+02  0.41204039127E+03  0.42158607454E+03  0.00000000000E+00 0.  1.
<mgrwt>
<rscale>  0 0.53141077E+03</rscale>
<asrwt>0</asrwt>
<pdfrwt beam="1">  1        2 0.43624900E+00 0.53141077E+03</pdfrwt>
<pdfrwt beam="2">  1       -2 0.34554633E-01 0.53141077E+03</pdfrwt>
<totfact> 0.19014054E+01</totfact>
</mgrwt>
</event>
<event>
12    1  0.7781383E-008  0.1362891E+04  0.7818608E-02  0.8981127E-01
         -1   -1    0    0    0  501 -0.00000000000E+00  0.00000000000E+00  0.21437396461E+04  0.21437396461E+04  0.00000000000E+00 0.  1.
          1   -1    0    0  501    0  0.00000000000E+00 -0.00000000000E+00 -0.91501170524E+03  0.91501170524E+03  0.00000000000E+00 0. -1.
         23    2    1    2    0    0  0.12815699384E+04  0.29695150398E+03  0.83293180876E+03  0.15596508653E+04  0.90187143618E+02 0.  0.
    5000000    2    1    2    0    0 -0.12815699384E+04 -0.29695150398E+03  0.39579613213E+03  0.14991004861E+04  0.60003832075E+03 0.  0.
         23    2    4    4    0    0  0.37180194419E+00  0.63229375343E+02  0.43243721771E+02  0.11852028515E+03  0.90437527484E+02 0.  0.
         23    2    4    4    0    0 -0.12819417404E+04 -0.36018087933E+03  0.35255241036E+03  0.13805802009E+04  0.92755579985E+02 0.  0.
          3    1    3    3  502    0  0.96514844960E+03  0.26170364582E+03  0.61917781819E+03  0.11761723932E+04  0.00000000000E+00 0. -1.
         -3    1    3    3    0  502  0.31642148880E+03  0.35247858167E+02  0.21375399056E+03  0.38347847210E+03  0.00000000000E+00 0.  1.
         15    1    5    5    0    0 -0.46671035336E+01  0.66991211442E+02  0.66402887069E+02  0.94456897080E+02  0.17770000000E+01 0. -1.
        -15    1    5    5    0    0  0.50389054778E+01 -0.37618360994E+01 -0.23159165298E+02  0.24063388073E+02  0.17770000000E+01 0.  1.
          1    1    6    6  503    0 -0.24974566711E+03 -0.39655039401E+02  0.44900373846E+02  0.25682963996E+03  0.00000000000E+00 0. -1.
         -1    1    6    6    0  503 -0.10321960732E+04 -0.32052583992E+03  0.30765203651E+03  0.11237505610E+04  0.00000000000E+00 0.  1.
<mgrwt>
<rscale>  0 0.13628909E+04</rscale>
<asrwt>0</asrwt>
<pdfrwt beam="1">  1        1 0.14077103E+00 0.13628909E+04</pdfrwt>
<pdfrwt beam="2">  1       -1 0.32980610E+00 0.13628909E+04</pdfrwt>
<totfact> 0.36161622E-01</totfact>
</mgrwt>
</event>
<event>
12    1  0.7781383E-008  0.6652308E+03  0.7818608E-02  0.9778612E-01
          1   -1    0    0  501    0  0.00000000000E+00  0.00000000000E+00  0.96321660968E+03  0.96321660968E+03  0.00000000000E+00 0. -1.
         -1   -1    0    0    0  501 -0.00000000000E+00 -0.00000000000E+00 -0.52533416366E+03  0.52533416366E+03  0.00000000000E+00 0.  1.
         23    2    1    2    0    0 -0.51735990870E+03  0.19240050029E+03 -0.68860552964E+01  0.55959325619E+03  0.91749479386E+02 0.  0.
    5000000    2    1    2    0    0  0.51735990870E+03 -0.19240050029E+03  0.44476850132E+03  0.92895751715E+03  0.60038639330E+03 0.  0.
         23    2    4    4    0    0  0.16895620615E+03  0.18746550723E+03  0.25609395848E+03  0.37134453392E+03  0.92860816825E+02 0.  0.
         23    2    4    4    0    0  0.34840370255E+03 -0.37986600752E+03  0.18867454284E+03  0.55761298324E+03  0.98238649919E+02 0.  0.
          3    1    3    3  502    0 -0.43535019127E+03  0.13886096217E+03 -0.33249895028E+02  0.45816777644E+03  0.00000000000E+00 0. -1.
         -3    1    3    3    0  502 -0.82009717435E+02  0.53539538119E+02  0.26363839731E+02  0.10142547974E+03  0.00000000000E+00 0.  1.
         15    1    5    5    0    0  0.10741562637E+03  0.11501083113E+03  0.93695113976E+02  0.18315987600E+03  0.17770000000E+01 0.  1.
        -15    1    5    5    0    0  0.61540579783E+02  0.72454676099E+02  0.16239884451E+03  0.18818465791E+03  0.17770000000E+01 0. -1.
          4    1    6    6  503    0  0.87639736884E+02 -0.15820497419E+03  0.44578955741E+02  0.18627082605E+03  0.00000000000E+00 0. -1.
         -4    1    6    6    0  503  0.26076396567E+03 -0.22166103332E+03  0.14409558709E+03  0.37134215719E+03  0.00000000000E+00 0.  1.
<mgrwt>
<rscale>  0 0.66523082E+03</rscale>
<asrwt>0</asrwt>
<pdfrwt beam="1">  1        1 0.14818717E+00 0.66523082E+03</pdfrwt>
<pdfrwt beam="2">  1       -1 0.80820641E-01 0.66523082E+03</pdfrwt>
<totfact> 0.25634171E+01</totfact>
</mgrwt>
</event>
<event>
12    1  0.8681619E-008  0.7244012E+03  0.7818608E-02  0.9676389E-01
         -1   -1    0    0    0  501 -0.00000000000E+00  0.00000000000E+00  0.39299828424E+03  0.39299828424E+03  0.00000000000E+00 0.  1.
          1   -1    0    0  501    0  0.00000000000E+00 -0.00000000000E+00 -0.16281874466E+04  0.16281874466E+04  0.00000000000E+00 0. -1.
         23    2    1    2    0    0  0.12904097040E+03  0.62715586178E+03 -0.83701250767E+03  0.10576414842E+04  0.89663393435E+02 0.  0.
    5000000    2    1    2    0    0 -0.12904097040E+03 -0.62715586178E+03 -0.39817665467E+03  0.96354424661E+03  0.59991401038E+03 0.  0.
         23    2    4    4    0    0 -0.15506949513E+03 -0.69730375499E+03 -0.43405514706E+03  0.84063761572E+03  0.89379277366E+02 0.  0.
         23    2    4    4    0    0  0.26028524727E+02  0.70147893219E+02  0.35878492388E+02  0.12290663089E+03  0.90667318692E+02 0.  0.
          4    1    3    3  502    0  0.74499421493E+02  0.44945656838E+03 -0.53164243736E+03  0.70014645030E+03  0.00000000000E+00 0. -1.
         -4    1    3    3    0  502  0.54541548905E+02  0.17769929340E+03 -0.30537007031E+03  0.35749503391E+03  0.00000000000E+00 0.  1.
         15    1    5    5    0    0 -0.32062630320E+02 -0.33722969945E+03 -0.22219495411E+03  0.40512422516E+03  0.17770000000E+01 0.  1.
        -15    1    5    5    0    0 -0.12300686481E+03 -0.36007405555E+03 -0.21186019295E+03  0.43551339055E+03  0.17770000000E+01 0. -1.
          3    1    6    6  503    0  0.17360026130E+02 -0.26667429461E-01  0.48112034581E+02  0.51148207104E+02  0.00000000000E+00 0. -1.
         -3    1    6    6    0  503  0.86684985968E+01  0.70174560648E+02 -0.12233542193E+02  0.71758423789E+02  0.00000000000E+00 0.  1.
<mgrwt>
<rscale>  0 0.72440122E+03</rscale>
<asrwt>0</asrwt>
<pdfrwt beam="1">  1        1 0.25049037E+00 0.72440122E+03</pdfrwt>
<pdfrwt beam="2">  1       -1 0.60461276E-01 0.72440122E+03</pdfrwt>
<totfact> 0.15421005E+01</totfact>
</mgrwt>
</event>
<event>
12    1  0.7781383E-008  0.1596799E+04  0.7818608E-02  0.8822517E-01
          2   -1    0    0  501    0  0.00000000000E+00  0.00000000000E+00  0.38651551521E+04  0.38651551521E+04  0.00000000000E+00 0. -1.
         -2   -1    0    0    0  501 -0.00000000000E+00 -0.00000000000E+00 -0.74035574190E+03  0.74035574190E+03  0.00000000000E+00 0.  1.
         23    2    1    2    0    0 -0.71382415482E+03  0.14102357143E+04  0.93337254417E+03  0.18376795053E+04  0.87017034567E+02 0.  0.
    5000000    2    1    2    0    0  0.71382415482E+03 -0.14102357143E+04  0.21914268660E+04  0.27678313886E+04  0.60019096381E+03 0.  0.
         23    2    4    4    0    0  0.87161016619E+02 -0.57341651350E+02  0.30199454827E+02  0.14059887785E+03  0.89280062624E+02 0.  0.
         23    2    4    4    0    0  0.62666313820E+03 -0.13528940629E+04  0.21612274112E+04  0.26272325108E+04  0.91748071564E+02 0.  0.
          4    1    3    3  502    0 -0.15274611743E+03  0.35536069478E+03  0.26179137203E+03  0.46706243935E+03  0.00000000000E+00 0.  1.
         -4    1    3    3    0  502 -0.56107803739E+03  0.10548750195E+04  0.67158117214E+03  0.13706170660E+04  0.00000000000E+00 0. -1.
         15    1    5    5    0    0  0.76987512100E+02 -0.17096418024E+02  0.51201632420E+02  0.94043231655E+02  0.17770000000E+01 0. -1.
        -15    1    5    5    0    0  0.10173504519E+02 -0.40245233326E+02 -0.21002177593E+02  0.46555646191E+02  0.17770000000E+01 0.  1.
          2    1    6    6  503    0  0.18603683858E+03 -0.44780149872E+03  0.77120752107E+03  0.91098678812E+03  0.00000000000E+00 0.  1.
         -2    1    6    6    0  503  0.44062629962E+03 -0.90509256420E+03  0.13900198901E+04  0.17162457227E+04  0.00000000000E+00 0. -1.
<mgrwt>
<rscale>  0 0.15967988E+04</rscale>
<asrwt>0</asrwt>
<pdfrwt beam="1">  1        2 0.59463924E+00 0.15967988E+04</pdfrwt>
<pdfrwt beam="2">  1       -2 0.11390089E+00 0.15967988E+04</pdfrwt>
<totfact> 0.25182058E-01</totfact>
</mgrwt>
</event>
<event>
12    1  0.7781383E-008  0.1049765E+04  0.7818608E-02  0.9255587E-01
         -2   -1    0    0    0  501 -0.00000000000E+00  0.00000000000E+00  0.32605137381E+03  0.32605137381E+03  0.00000000000E+00 0.  1.
          2   -1    0    0  501    0  0.00000000000E+00 -0.00000000000E+00 -0.36777654225E+04  0.36777654225E+04  0.00000000000E+00 0. -1.
         23    2    1    2    0    0  0.26869565934E+03  0.94649783297E+03 -0.19758621629E+04  0.22090760943E+04  0.89052786462E+02 0.  0.
    5000000    2    1    2    0    0 -0.26869565934E+03 -0.94649783297E+03 -0.13758518859E+04  0.17947407020E+04  0.60005855587E+03 0.  0.
         23    2    4    4    0    0 -0.36332389379E+03 -0.37209339834E+03 -0.43353063053E+03  0.68337755256E+03  0.92727141883E+02 0.  0.
         23    2    4    4    0    0  0.94628234456E+02 -0.57440443463E+03 -0.94232125535E+03  0.11113631495E+04  0.90905139763E+02 0.  0.
          3    1    3    3  502    0  0.69792002990E+01  0.12233121031E+03 -0.27300806697E+03  0.29924411253E+03  0.00000000000E+00 0. -1.
         -3    1    3    3    0  502  0.26171645904E+03  0.82416662267E+03 -0.17028540959E+04  0.19098319818E+04  0.00000000000E+00 0.  1.
         15    1    5    5    0    0 -0.98848752692E+02 -0.60394526471E+02 -0.13061147001E+03  0.17458834028E+03  0.17770000000E+01 0. -1.
        -15    1    5    5    0    0 -0.26447514110E+03 -0.31169887187E+03 -0.30291916052E+03  0.50878921227E+03  0.17770000000E+01 0.  1.
          3    1    6    6  503    0  0.77019296227E+02 -0.22551374425E+03 -0.34287561468E+03  0.41755491612E+03  0.00000000000E+00 0. -1.
         -3    1    6    6    0  503  0.17608938228E+02 -0.34889069038E+03 -0.59944564067E+03  0.69380823335E+03  0.00000000000E+00 0.  1.
<mgrwt>
<rscale>  0 0.10497650E+04</rscale>
<asrwt>0</asrwt>
<pdfrwt beam="1">  1        2 0.56581005E+00 0.10497650E+04</pdfrwt>
<pdfrwt beam="2">  1       -2 0.50161751E-01 0.10497650E+04</pdfrwt>
<totfact> 0.23573843E+00</totfact>
</mgrwt>
</event>
<event>
12    1  0.7781383E-008  0.4097736E+03  0.7818608E-02  0.1040447E+00
         -2   -1    0    0    0  501 -0.00000000000E+00  0.00000000000E+00  0.10316325001E+04  0.10316325001E+04  0.00000000000E+00 0.  1.
          2   -1    0    0  501    0  0.00000000000E+00 -0.00000000000E+00 -0.42290291306E+03  0.42290291306E+03  0.00000000000E+00 0. -1.
         23    2    1    2    0    0 -0.39245735745E+03  0.24544189282E+02 -0.13114816045E+03  0.42396377548E+03  0.88995776783E+02 0.  0.
    5000000    2    1    2    0    0  0.39245735745E+03 -0.24544189282E+02  0.73987774749E+03  0.10305716377E+04  0.60002801977E+03 0.  0.
         23    2    4    4    0    0  0.18449052200E+03  0.72033774760E+01 -0.47670043712E+02  0.21036013265E+03  0.88827422483E+02 0.  0.
         23    2    4    4    0    0  0.20796683545E+03 -0.31747566758E+02  0.78754779120E+03  0.82021150503E+03  0.90869559909E+02 0.  0.
          1    1    3    3  502    0 -0.14868949898E+03  0.50904860822E+02 -0.38112374279E+02  0.16171711424E+03  0.00000000000E+00 0.  1.
         -1    1    3    3    0  502 -0.24376785846E+03 -0.26360671541E+02 -0.93035786174E+02  0.26224666124E+03  0.00000000000E+00 0. -1.
         15    1    5    5    0    0  0.11584599523E+03 -0.14695015159E+02 -0.68425097578E+02  0.13535652843E+03  0.17770000000E+01 0.  1.
        -15    1    5    5    0    0  0.68644526771E+02  0.21898392635E+02  0.20755053866E+02  0.75003604217E+02  0.17770000000E+01 0. -1.
          1    1    6    6  503    0  0.51046133128E+02  0.30560852314E+02  0.17594381096E+03  0.18573071372E+03  0.00000000000E+00 0. -1.
         -1    1    6    6    0  503  0.15692070232E+03 -0.62308419072E+02  0.61160398023E+03  0.63448079131E+03  0.00000000000E+00 0.  1.
<mgrwt>
<rscale>  0 0.40977359E+03</rscale>
<asrwt>0</asrwt>
<pdfrwt beam="1">  1        2 0.65061987E-01 0.40977359E+03</pdfrwt>
<pdfrwt beam="2">  1       -2 0.15871269E+00 0.40977359E+03</pdfrwt>
<totfact> 0.20250184E+01</totfact>
</mgrwt>
</event>
<event>
12    1  0.7781383E-008  0.3565219E+03  0.7818608E-02  0.1059970E+00
          1   -1    0    0  501    0  0.00000000000E+00  0.00000000000E+00  0.72651528580E+03  0.72651528580E+03  0.00000000000E+00 0. -1.
         -1   -1    0    0    0  501 -0.00000000000E+00 -0.00000000000E+00 -0.36291509728E+03  0.36291509728E+03  0.00000000000E+00 0.  1.
         23    2    1    2    0    0 -0.17988058895E+03  0.12683780632E+03 -0.13905540629E+03  0.27620032633E+03  0.92224502435E+02 0.  0.
    5000000    2    1    2    0    0  0.17988058895E+03 -0.12683780632E+03  0.50265559481E+03  0.81323005675E+03  0.60019632023E+03 0.  0.
         23    2    4    4    0    0  0.30719759626E+03 -0.18075453465E+02  0.53928720552E+02  0.32548257499E+03  0.91288085509E+02 0.  0.
         23    2    4    4    0    0 -0.12731700730E+03 -0.10876235286E+03  0.44872687426E+03  0.48774748177E+03  0.92211325449E+02 0.  0.
          1    1    3    3  502    0 -0.13193107798E+03  0.10782826089E+03 -0.57743713632E+02  0.17990853133E+03  0.00000000000E+00 0. -1.
         -1    1    3    3    0  502 -0.47949510974E+02  0.19009545440E+02 -0.81311692657E+02  0.96291794994E+02  0.00000000000E+00 0.  1.
         15    1    5    5    0    0  0.28065099028E+03 -0.10099966277E+02  0.74928333632E+02  0.29066200401E+03  0.17770000000E+01 0. -1.
        -15    1    5    5    0    0  0.26546605972E+02 -0.79754871876E+01 -0.20999613080E+02  0.34820570974E+02  0.17770000000E+01 0.  1.
          1    1    6    6  503    0 -0.52151553487E+02 -0.91528931008E+02  0.32792261988E+03  0.34442789430E+03  0.00000000000E+00 0. -1.
         -1    1    6    6    0  503 -0.75165453817E+02 -0.17233421853E+02  0.12080425437E+03  0.14331958746E+03  0.00000000000E+00 0.  1.
<mgrwt>
<rscale>  0 0.35652188E+03</rscale>
<asrwt>0</asrwt>
<pdfrwt beam="1">  1        1 0.11177158E+00 0.35652188E+03</pdfrwt>
<pdfrwt beam="2">  1       -1 0.55833092E-01 0.35652188E+03</pdfrwt>
<totfact> 0.88854863E+01</totfact>
</mgrwt>
</event>
<event>
12    1  0.7781383E-008  0.1125324E+04  0.7818608E-02  0.9180855E-01
          1   -1    0    0  501    0  0.00000000000E+00  0.00000000000E+00  0.14576794713E+04  0.14576794713E+04  0.00000000000E+00 0. -1.
         -1   -1    0    0    0  501 -0.00000000000E+00 -0.00000000000E+00 -0.14364710533E+04  0.14364710533E+04  0.00000000000E+00 0.  1.
         23    2    1    2    0    0  0.14070344566E+03  0.10775691105E+04  0.86603777795E+03  0.13926047755E+04  0.91509454650E+02 0.  0.
    5000000    2    1    2    0    0 -0.14070344566E+03 -0.10775691105E+04 -0.84482935996E+03  0.15015457491E+04  0.59995861674E+03 0.  0.
         23    2    4    4    0    0 -0.17089442546E+03 -0.10611646529E+04 -0.59131921243E+03  0.12300945762E+04  0.90547944246E+02 0.  0.
         23    2    4    4    0    0  0.30190979793E+02 -0.16404457551E+02 -0.25351014754E+03  0.27145117290E+03  0.90762012309E+02 0.  0.
          4    1    3    3  502    0  0.64080261618E+02  0.61919515348E+03  0.44170094497E+03  0.76328804708E+03  0.00000000000E+00 0. -1.
         -4    1    3    3    0  502  0.76623184047E+02  0.45837395700E+03  0.42433683298E+03  0.62931672838E+03  0.00000000000E+00 0.  1.
         15    1    5    5    0    0 -0.48374296064E+02 -0.58140536982E+03 -0.31298075980E+03  0.66206675668E+03  0.17770000000E+01 0. -1.
        -15    1    5    5    0    0 -0.12252012939E+03 -0.47975928311E+03 -0.27833845263E+03  0.56802781955E+03  0.17770000000E+01 0.  1.
          4    1    6    6  503    0  0.25524846251E+02 -0.47214554784E+02 -0.88336363283E+02  0.10336365434E+03  0.00000000000E+00 0. -1.
         -4    1    6    6    0  503  0.46661335419E+01  0.30810097232E+02 -0.16517378425E+03  0.16808751857E+03  0.00000000000E+00 0.  1.
<mgrwt>
<rscale>  0 0.11253235E+04</rscale>
<asrwt>0</asrwt>
<pdfrwt beam="1">  1        1 0.22425838E+00 0.11253235E+04</pdfrwt>
<pdfrwt beam="2">  1       -1 0.22099555E+00 0.11253235E+04</pdfrwt>
<totfact> 0.75098837E-01</totfact>
</mgrwt>
</event>
<event>
12    1  0.7781383E-008  0.5194790E+03  0.7818608E-02  0.1008816E+00
          1   -1    0    0  501    0  0.00000000000E+00  0.00000000000E+00  0.17481595625E+04  0.17481595625E+04  0.00000000000E+00 0. -1.
         -1   -1    0    0    0  501 -0.00000000000E+00 -0.00000000000E+00 -0.25473066936E+03  0.25473066936E+03  0.00000000000E+00 0.  1.
         23    2    1    2    0    0  0.76621799165E+02 -0.35247755150E+03  0.21393247563E+02  0.37288979044E+03  0.92074971394E+02 0.  0.
    5000000    2    1    2    0    0 -0.76621799165E+02  0.35247755150E+03  0.14720356455E+04  0.16300004414E+04  0.59991763830E+03 0.  0.
         23    2    4    4    0    0 -0.28861383389E+03  0.35117817572E+03  0.88229460089E+03  0.99686540251E+03  0.93127932121E+02 0.  0.
         23    2    4    4    0    0  0.21199203473E+03  0.12993757837E+01  0.58974104464E+03  0.63313503886E+03  0.90128611107E+02 0.  0.
          4    1    3    3  502    0 -0.51877303000E+01 -0.15026432359E+03  0.34849885814E+02  0.15433986533E+03  0.00000000000E+00 0. -1.
         -4    1    3    3    0  502  0.81809529465E+02 -0.20221322791E+03 -0.13456638251E+02  0.21854992511E+03  0.00000000000E+00 0.  1.
         15    1    5    5    0    0 -0.13361518966E+03  0.18677497616E+03  0.53895649628E+03  0.58584569064E+03  0.17770000000E+01 0. -1.
        -15    1    5    5    0    0 -0.15499864424E+03  0.16440319956E+03  0.34333810461E+03  0.41101971187E+03  0.17770000000E+01 0.  1.
          4    1    6    6  503    0  0.15857050812E+03  0.16205273714E+02  0.52084149692E+03  0.54468622330E+03  0.00000000000E+00 0. -1.
         -4    1    6    6    0  503  0.53421526610E+02 -0.14905897930E+02  0.68899547716E+02  0.88448815560E+02  0.00000000000E+00 0.  1.
<mgrwt>
<rscale>  0 0.51947897E+03</rscale>
<asrwt>0</asrwt>
<pdfrwt beam="1">  1        1 0.26894762E+00 0.51947897E+03</pdfrwt>
<pdfrwt beam="2">  1       -1 0.39189335E-01 0.51947897E+03</pdfrwt>
<totfact> 0.29955112E+01</totfact>
</mgrwt>
</event>
<event>
12    1  0.7781383E-008  0.7732098E+03  0.7818608E-02  0.9599625E-01
         -1   -1    0    0    0  501 -0.00000000000E+00  0.00000000000E+00  0.37301113351E+03  0.37301113351E+03  0.00000000000E+00 0.  1.
          1   -1    0    0  501    0  0.00000000000E+00 -0.00000000000E+00 -0.18790244324E+04  0.18790244324E+04  0.00000000000E+00 0. -1.
         23    2    1    2    0    0 -0.67061775286E+03 -0.17526102177E+02 -0.28334066508E+03  0.73385022353E+03  0.90658057424E+02 0.  0.
    5000000    2    1    2    0    0  0.67061775286E+03  0.17526102177E+02 -0.12226726338E+04  0.15181853424E+04  0.59993585461E+03 0.  0.
         23    2    4    4    0    0  0.59698435834E+03 -0.20565930706E+03 -0.75405487049E+03  0.98756021016E+03  0.89388736991E+02 0.  0.
         23    2    4    4    0    0  0.73633394520E+02  0.22318540924E+03 -0.46861776333E+03  0.53062513223E+03  0.82017188180E+02 0.  0.
          4    1    3    3  502    0 -0.53795909911E+03  0.18793018143E+02 -0.24238086391E+03  0.59034028580E+03  0.00000000000E+00 0. -1.
         -4    1    3    3    0  502 -0.13265865375E+03 -0.36319120320E+02 -0.40959801173E+02  0.14350993773E+03  0.00000000000E+00 0.  1.
         15    1    5    5    0    0  0.43644994861E+03 -0.15389644291E+03 -0.48807863242E+03  0.67260432792E+03  0.17770000000E+01 0. -1.
        -15    1    5    5    0    0  0.16053440973E+03 -0.51762864158E+02 -0.26597623806E+03  0.31495588224E+03  0.17770000000E+01 0.  1.
          2    1    6    6  503    0 -0.53064059706E+01  0.29329437767E+02 -0.20922529582E+02  0.36416014446E+02  0.00000000000E+00 0. -1.
         -2    1    6    6    0  503  0.78939800491E+02  0.19385597147E+03 -0.44769523375E+03  0.49420911778E+03  0.00000000000E+00 0.  1.
<mgrwt>
<rscale>  0 0.77320985E+03</rscale>
<asrwt>0</asrwt>
<pdfrwt beam="1">  1        1 0.28908068E+00 0.77320985E+03</pdfrwt>
<pdfrwt beam="2">  1       -1 0.57386328E-01 0.77320985E+03</pdfrwt>
<totfact> 0.11509121E+01</totfact>
</mgrwt>
</event>
<event>
12    1  0.7781383E-008  0.3553219E+03  0.7818608E-02  0.1060452E+00
          2   -1    0    0  501    0  0.00000000000E+00  0.00000000000E+00  0.55433409103E+03  0.55433409103E+03  0.00000000000E+00 0. -1.
         -2   -1    0    0    0  501 -0.00000000000E+00 -0.00000000000E+00 -0.28937156088E+03  0.28937156088E+03  0.00000000000E+00 0.  1.
         23    2    1    2    0    0  0.11320900394E+03 -0.64234220610E+01 -0.53771172566E+02  0.15486597842E+03  0.90744660168E+02 0.  0.
    5000000    2    1    2    0    0 -0.11320900394E+03  0.64234220610E+01  0.31873370272E+03  0.68883967348E+03  0.60004281813E+03 0.  0.
         23    2    4    4    0    0  0.20974482668E+03 -0.98590693721E+02  0.81927372495E+02  0.26266465952E+03  0.92561394690E+02 0.  0.
         23    2    4    4    0    0 -0.32295383062E+03  0.10501411578E+03  0.23680633022E+03  0.42617501397E+03  0.10109779063E+03 0.  0.
          4    1    3    3  502    0  0.23133091979E+02  0.52324342896E+00  0.25672400070E+02  0.34561334661E+02  0.00000000000E+00 0. -1.
         -4    1    3    3    0  502  0.90075911963E+02 -0.69466654900E+01 -0.79443572636E+02  0.12030464376E+03  0.00000000000E+00 0.  1.
         15    1    5    5    0    0  0.84521287157E+02 -0.12079662200E+00  0.23247411705E+01  0.84572009111E+02  0.17770000000E+01 0. -1.
        -15    1    5    5    0    0  0.12522353952E+03 -0.98469897099E+02  0.79602631325E+02  0.17809265040E+03  0.17770000000E+01 0.  1.
          4    1    6    6  503    0 -0.29303333321E+03  0.12365681183E+03  0.22236001105E+03  0.38807668829E+03  0.00000000000E+00 0. -1.
         -4    1    6    6    0  503 -0.29920497416E+02 -0.18642696049E+02  0.14446319172E+02  0.38098325675E+02  0.00000000000E+00 0.  1.
<mgrwt>
<rscale>  0 0.35532190E+03</rscale>
<asrwt>0</asrwt>
<pdfrwt beam="1">  1        2 0.85282168E-01 0.35532190E+03</pdfrwt>
<pdfrwt beam="2">  1       -2 0.44518702E-01 0.35532190E+03</pdfrwt>
<totfact> 0.26824819E+02</totfact>
</mgrwt>
</event>
<event>
12    1  0.7781383E-008  0.4712359E+03  0.7818608E-02  0.1021572E+00
          2   -1    0    0  501    0  0.00000000000E+00  0.00000000000E+00  0.23637034724E+04  0.23637034724E+04  0.00000000000E+00 0. -1.
         -2   -1    0    0    0  501 -0.00000000000E+00 -0.00000000000E+00 -0.10748750438E+03  0.10748750438E+03  0.00000000000E+00 0.  1.
         23    2    1    2    0    0 -0.22057119910E+03 -0.21475300188E+03  0.92097759183E+03  0.97533607902E+03  0.91160499662E+02 0.  0.
    5000000    2    1    2    0    0  0.22057119910E+03  0.21475300188E+03  0.13352383762E+04  0.14958548977E+04  0.59995820537E+03 0.  0.
         23    2    4    4    0    0  0.18210973653E+03 -0.14661708458E+03  0.82881775681E+03  0.86612556394E+03  0.92596397814E+02 0.  0.
         23    2    4    4    0    0  0.38461462578E+02  0.36137008647E+03  0.50642061935E+03  0.62972933378E+03  0.89607849129E+02 0.  0.
          3    1    3    3  502    0 -0.80614649254E+02 -0.13870950320E+03  0.50675828094E+03  0.53154774316E+03  0.00000000000E+00 0. -1.
         -3    1    3    3    0  502 -0.13995654985E+03 -0.76043498684E+02  0.41421931088E+03  0.44378833586E+03  0.00000000000E+00 0.  1.
         15    1    5    5    0    0  0.47662928992E+02 -0.96703223692E+02  0.33807577085E+03  0.35485441077E+03  0.17770000000E+01 0.  1.
        -15    1    5    5    0    0  0.13444680753E+03 -0.49913860892E+02  0.49074198595E+03  0.51127115318E+03  0.17770000000E+01 0. -1.
          4    1    6    6  503    0  0.52040845806E+02  0.13429122116E+03  0.23456814968E+03  0.27525369853E+03  0.00000000000E+00 0. -1.
         -4    1    6    6    0  503 -0.13579383228E+02  0.22707886531E+03  0.27185246967E+03  0.35447563524E+03  0.00000000000E+00 0.  1.
<mgrwt>
<rscale>  0 0.47123587E+03</rscale>
<asrwt>0</asrwt>
<pdfrwt beam="1">  1        2 0.36364665E+00 0.47123587E+03</pdfrwt>
<pdfrwt beam="2">  1       -2 0.16536541E-01 0.47123587E+03</pdfrwt>
<totfact> 0.13290057E+02</totfact>
</mgrwt>
</event>
<event>
12    1  0.7781383E-008  0.4587968E+03  0.7818608E-02  0.1025131E+00
         -1   -1    0    0    0  501 -0.00000000000E+00  0.00000000000E+00  0.56336979229E+03  0.56336979229E+03  0.00000000000E+00 0.  1.
          1   -1    0    0  501    0  0.00000000000E+00 -0.00000000000E+00 -0.49537324690E+03  0.49537324690E+03  0.00000000000E+00 0. -1.
         23    2    1    2    0    0 -0.26091380990E+03  0.11066687442E+03 -0.18240335568E+03  0.34945384262E+03  0.92324594080E+02 0.  0.
    5000000    2    1    2    0    0  0.26091380990E+03 -0.11066687442E+03  0.25039990107E+03  0.70928919657E+03  0.60005656452E+03 0.  0.
         23    2    4    4    0    0  0.40666415651E+03 -0.18374369908E+03  0.25459662114E+03  0.52226872690E+03  0.93849349846E+02 0.  0.
         23    2    4    4    0    0 -0.14575034662E+03  0.73076824660E+02 -0.41967200612E+01  0.18702046966E+03  0.91518619816E+02 0.  0.
          1    1    3    3  502    0 -0.73775945599E+02  0.40596371919E+02 -0.10633336706E+03  0.13563827083E+03  0.00000000000E+00 0. -1.
         -1    1    3    3    0  502 -0.18713786430E+03  0.70070502500E+02 -0.76069988621E+02  0.21381557180E+03  0.00000000000E+00 0.  1.
         15    1    5    5    0    0  0.10045489109E+03 -0.37433153348E+02  0.10927653595E+03  0.15309129679E+03  0.17770000000E+01 0. -1.
        -15    1    5    5    0    0  0.30620926542E+03 -0.14631054573E+03  0.14532008519E+03  0.36917743012E+03  0.17770000000E+01 0.  1.
          4    1    6    6  503    0 -0.25526530865E+02  0.61017797776E+02 -0.88527458387E+00  0.66148009301E+02  0.00000000000E+00 0.  1.
         -4    1    6    6    0  503 -0.12022381575E+03  0.12059026884E+02 -0.33114454773E+01  0.12087246036E+03  0.00000000000E+00 0. -1.
<mgrwt>
<rscale>  0 0.45879677E+03</rscale>
<asrwt>0</asrwt>
<pdfrwt beam="1">  1        1 0.76211269E-01 0.45879677E+03</pdfrwt>
<pdfrwt beam="2">  1       -1 0.86672276E-01 0.45879677E+03</pdfrwt>
<totfact> 0.61894021E+01</totfact>
</mgrwt>
</event>
<event>
12    1  0.7781383E-008  0.4155079E+03  0.7818608E-02  0.1038538E+00
          2   -1    0    0  501    0  0.00000000000E+00  0.00000000000E+00  0.20661945331E+04  0.20661945331E+04  0.00000000000E+00 0. -1.
         -2   -1    0    0    0  501 -0.00000000000E+00 -0.00000000000E+00 -0.94315338241E+02  0.94315338241E+02  0.00000000000E+00 0.  1.
         23    2    1    2    0    0 -0.96832535241E+02 -0.17680245161E+03  0.30221970830E+03  0.37484478948E+03  0.92391651881E+02 0.  0.
    5000000    2    1    2    0    0  0.96832535241E+02  0.17680245161E+03  0.16696594866E+04  0.17856650819E+04  0.60016775718E+03 0.  0.
         23    2    4    4    0    0  0.19627759002E+03 -0.15864647076E+03  0.80133858985E+03  0.84527205788E+03  0.92993124598E+02 0.  0.
         23    2    4    4    0    0 -0.99445054779E+02  0.33544892237E+03  0.86832089674E+03  0.94039302401E+03  0.89121049449E+02 0.  0.
          4    1    3    3  502    0 -0.23796815254E+02 -0.10782367313E+02  0.49178872622E+01  0.26584459299E+02  0.00000000000E+00 0. -1.
         -4    1    3    3    0  502 -0.73035719987E+02 -0.16602008430E+03  0.29730182103E+03  0.34826033018E+03  0.00000000000E+00 0.  1.
         15    1    5    5    0    0  0.87406836008E+02 -0.12470723320E+03  0.51525546897E+03  0.53729247624E+03  0.17770000000E+01 0.  1.
        -15    1    5    5    0    0  0.10887075401E+03 -0.33939237562E+02  0.28608312088E+03  0.30797958164E+03  0.17770000000E+01 0. -1.
          4    1    6    6  503    0 -0.51186437711E+02  0.66492798602E+02  0.26752225754E+03  0.28037386103E+03  0.00000000000E+00 0.  1.
         -4    1    6    6    0  503 -0.48258617067E+02  0.26895612377E+03  0.60079863920E+03  0.66001916298E+03  0.00000000000E+00 0. -1.
<mgrwt>
<rscale>  0 0.41550789E+03</rscale>
<asrwt>0</asrwt>
<pdfrwt beam="1">  1        2 0.31787605E+00 0.41550789E+03</pdfrwt>
<pdfrwt beam="2">  1       -2 0.14510054E-01 0.41550789E+03</pdfrwt>
<totfact> 0.24233481E+02</totfact>
</mgrwt>
</event>
<event>
12    1  0.7781383E-008  0.7644707E+03  0.7818608E-02  0.9612918E-01
          2   -1    0    0  501    0  0.00000000000E+00  0.00000000000E+00  0.20249095750E+04  0.20249095750E+04  0.00000000000E+00 0. -1.
         -2   -1    0    0    0  501 -0.00000000000E+00 -0.00000000000E+00 -0.39850244675E+03  0.39850244675E+03  0.00000000000E+00 0.  1.
         23    2    1    2    0    0  0.24547018233E+02 -0.72743361775E+03  0.11557186390E+04  0.13688409705E+04  0.90982446703E+02 0.  0.
    5000000    2    1    2    0    0 -0.24547018233E+02  0.72743361775E+03  0.47068848923E+03  0.10545710512E+04  0.60067480711E+03 0.  0.
         23    2    4    4    0    0 -0.15377695480E+03  0.48710152762E+03  0.19058450068E+02  0.51894713284E+03  0.89597165836E+02 0.  0.
         23    2    4    4    0    0  0.12922993656E+03  0.24033209013E+03  0.45163003916E+03  0.53562391841E+03  0.91996737140E+02 0.  0.
          4    1    3    3  502    0 -0.13413945738E+01 -0.83454150096E+02  0.85097228979E+02  0.11919703389E+03  0.00000000000E+00 0. -1.
         -4    1    3    3    0  502  0.25888412806E+02 -0.64397946765E+03  0.10706214101E+04  0.12496439366E+04  0.00000000000E+00 0.  1.
         15    1    5    5    0    0 -0.39071547729E+02  0.23372736608E+03  0.38713923142E+02  0.24011870621E+03  0.17770000000E+01 0. -1.
        -15    1    5    5    0    0 -0.11470540707E+03  0.25337416154E+03 -0.19655473074E+02  0.27882842663E+03  0.17770000000E+01 0.  1.
          3    1    6    6  503    0  0.16046705590E+02  0.11846035520E+03  0.15754813992E+03  0.19776695606E+03  0.00000000000E+00 0. -1.
         -3    1    6    6    0  503  0.11318323097E+03  0.12187173493E+03  0.29408189924E+03  0.33785696235E+03  0.00000000000E+00 0.  1.
<mgrwt>
<rscale>  0 0.76447066E+03</rscale>
<asrwt>0</asrwt>
<pdfrwt beam="1">  1        2 0.31152454E+00 0.76447066E+03</pdfrwt>
<pdfrwt beam="2">  1       -2 0.61308070E-01 0.76447066E+03</pdfrwt>
<totfact> 0.16538452E+01</totfact>
</mgrwt>
</event>
<event>
12    1  0.7781383E-008  0.1163053E+04  0.7818608E-02  0.9145825E-01
          2   -1    0    0  501    0  0.00000000000E+00  0.00000000000E+00  0.30479984683E+04  0.30479984683E+04  0.00000000000E+00 0.  1.
         -2   -1    0    0    0  501 -0.00000000000E+00 -0.00000000000E+00 -0.52318559316E+03  0.52318559316E+03  0.00000000000E+00 0. -1.
         23    2    1    2    0    0  0.44090377263E+03  0.10401632413E+04  0.66582874890E+03  0.13146299649E+04  0.92673169485E+02 0.  0.
    5000000    2    1    2    0    0 -0.44090377263E+03 -0.10401632413E+04  0.18589841263E+04  0.22565540966E+04  0.59989891153E+03 0.  0.
         23    2    4    4    0    0 -0.47257046129E+03 -0.95578302927E+03  0.13038714287E+04  0.16868751611E+04  0.92860467353E+02 0.  0.
         23    2    4    4    0    0  0.31666688665E+02 -0.84380212030E+02  0.55511269754E+03  0.56967893558E+03  0.90891051934E+02 0.  0.
          3    1    3    3  502    0  0.33899127092E+03  0.72154564770E+03  0.43463544849E+03  0.90799293861E+03  0.00000000000E+00 0. -1.
         -3    1    3    3    0  502  0.10191250171E+03  0.31861759360E+03  0.23119330041E+03  0.40663702624E+03  0.00000000000E+00 0.  1.
         15    1    5    5    0    0 -0.81233790245E+02 -0.13858392471E+03  0.15013774907E+03  0.21988391094E+03  0.17770000000E+01 0.  1.
        -15    1    5    5    0    0 -0.39133667105E+03 -0.81719910457E+03  0.11537336797E+04  0.14669912501E+04  0.17770000000E+01 0. -1.
          3    1    6    6  503    0 -0.31579692417E+02 -0.36943753797E+02  0.23181886568E+03  0.23685882800E+03  0.00000000000E+00 0. -1.
         -3    1    6    6    0  503  0.63246381083E+02 -0.47436458233E+02  0.32329383187E+03  0.33282010758E+03  0.00000000000E+00 0.  1.
<mgrwt>
<rscale>  0 0.11630533E+04</rscale>
<asrwt>0</asrwt>
<pdfrwt beam="1">  1        2 0.46892283E+00 0.11630533E+04</pdfrwt>
<pdfrwt beam="2">  1       -2 0.80490093E-01 0.11630533E+04</pdfrwt>
<totfact> 0.22120429E+00</totfact>
</mgrwt>
</event>
<event>
12    1  0.7781383E-008  0.6826061E+03  0.7818608E-02  0.9747449E-01
         -1   -1    0    0    0  501 -0.00000000000E+00  0.00000000000E+00  0.48152781484E+03  0.48152781484E+03  0.00000000000E+00 0.  1.
          1   -1    0    0  501    0  0.00000000000E+00 -0.00000000000E+00 -0.11894701557E+04  0.11894701557E+04  0.00000000000E+00 0. -1.
         23    2    1    2    0    0  0.77612174264E+02 -0.54956424179E+03 -0.63782639668E+03  0.85068056834E+03  0.93757194895E+02 0.  0.
    5000000    2    1    2    0    0 -0.77612174264E+02  0.54956424179E+03 -0.70115944173E+02  0.82031740220E+03  0.59996657346E+03 0.  0.
         23    2    4    4    0    0  0.24152592525E+03  0.32903364462E+03 -0.51108895073E+02  0.42075927599E+03  0.88477891644E+02 0.  0.
         23    2    4    4    0    0 -0.31913809952E+03  0.22053059717E+03 -0.19007049099E+02  0.39955812621E+03  0.93821945486E+02 0.  0.
          1    1    3    3  502    0  0.42129649357E+02 -0.47181343320E+03 -0.50203932301E+03  0.69023641236E+03  0.00000000000E+00 0. -1.
         -1    1    3    3    0  502  0.35482524907E+02 -0.77750808592E+02 -0.13578707367E+03  0.16044415598E+03  0.00000000000E+00 0.  1.
         15    1    5    5    0    0  0.56984621529E+02  0.49875570367E+02 -0.40610437854E+02  0.85948734731E+02  0.17770000000E+01 0. -1.
        -15    1    5    5    0    0  0.18454130372E+03  0.27915807426E+03 -0.10498457220E+02  0.33481054126E+03  0.17770000000E+01 0.  1.
          3    1    6    6  503    0 -0.26089036199E+03  0.13943111486E+03  0.86854023613E+01  0.29593961036E+03  0.00000000000E+00 0. -1.
         -3    1    6    6    0  503 -0.58247737531E+02  0.81099482311E+02 -0.27692451460E+02  0.10361851585E+03  0.00000000000E+00 0.  1.
<mgrwt>
<rscale>  0 0.68260611E+03</rscale>
<asrwt>0</asrwt>
<pdfrwt beam="1">  1        1 0.18299541E+00 0.68260611E+03</pdfrwt>
<pdfrwt beam="2">  1       -1 0.74081203E-01 0.68260611E+03</pdfrwt>
<totfact> 0.20753933E+01</totfact>
</mgrwt>
</event>
<event>
12    1  0.7781383E-008  0.1980585E+04  0.7818608E-02  0.8615752E-01
         -2   -1    0    0    0  501 -0.00000000000E+00  0.00000000000E+00  0.12286578119E+04  0.12286578119E+04  0.00000000000E+00 0.  1.
          2   -1    0    0  501    0  0.00000000000E+00 -0.00000000000E+00 -0.33182932336E+04  0.33182932336E+04  0.00000000000E+00 0. -1.
         23    2    1    2    0    0 -0.43291935105E+03  0.18895322256E+04 -0.60561151008E+03  0.20328957161E+04  0.90269017229E+02 0.  0.
    5000000    2    1    2    0    0  0.43291935105E+03 -0.18895322256E+04 -0.14840239116E+04  0.25140553294E+04  0.60032993654E+03 0.  0.
         23    2    4    4    0    0  0.31732647300E+03 -0.37012460712E+03 -0.45748530580E+03  0.67459635027E+03  0.89995086064E+02 0.  0.
         23    2    4    4    0    0  0.11559287805E+03 -0.15194076185E+04 -0.10265386058E+04  0.18394589791E+04  0.88693866439E+02 0.  0.
          2    1    3    3  502    0 -0.25133427686E+03  0.12019699091E+04 -0.34500186654E+03  0.12755104347E+04  0.00000000000E+00 0. -1.
         -2    1    3    3    0  502 -0.18158507419E+03  0.68756231646E+03 -0.26060964354E+03  0.75738528140E+03  0.00000000000E+00 0.  1.
         15    1    5    5    0    0  0.23165261616E+03 -0.32439370671E+03 -0.36550014969E+03  0.54082134636E+03  0.17770000000E+01 0. -1.
        -15    1    5    5    0    0  0.85673856837E+02 -0.45730900409E+02 -0.91985156107E+02  0.13377500391E+03  0.17770000000E+01 0.  1.
          3    1    6    6  503    0  0.12200338527E+03 -0.10811985721E+04 -0.73921649562E+03  0.13154148416E+04  0.00000000000E+00 0. -1.
         -3    1    6    6    0  503 -0.64105072227E+01 -0.43820904643E+03 -0.28732211022E+03  0.52404413745E+03  0.00000000000E+00 0.  1.
<mgrwt>
<rscale>  0 0.19805847E+04</rscale>
<asrwt>0</asrwt>
<pdfrwt beam="1">  1        2 0.51050665E+00 0.19805847E+04</pdfrwt>
<pdfrwt beam="2">  1       -2 0.18902428E+00 0.19805847E+04</pdfrwt>
<totfact> 0.15287507E-01</totfact>
</mgrwt>
</event>
<event>
12    1  0.7781383E-008  0.7995103E+03  0.7818608E-02  0.9560726E-01
         -2   -1    0    0    0  501 -0.00000000000E+00  0.00000000000E+00  0.56547593466E+03  0.56547593466E+03  0.00000000000E+00 0.  1.
          2   -1    0    0  501    0  0.00000000000E+00 -0.00000000000E+00 -0.17631963068E+04  0.17631963068E+04  0.00000000000E+00 0. -1.
         23    2    1    2    0    0  0.65563589885E+03 -0.41423319299E+03 -0.10916748816E+04  0.13424279954E+04  0.94399711954E+02 0.  0.
    5000000    2    1    2    0    0 -0.65563589885E+03  0.41423319299E+03 -0.10604549052E+03  0.98624424606E+03  0.59998708053E+03 0.  0.
         23    2    4    4    0    0 -0.49607601910E+03  0.21258555238E+03 -0.32479846598E+03  0.63656660429E+03  0.91863836136E+02 0.  0.
         23    2    4    4    0    0 -0.15955987975E+03  0.20164764061E+03  0.21875297546E+03  0.34967764177E+03  0.91106875112E+02 0.  0.
          3    1    3    3  502    0  0.37333788401E+03 -0.18889938200E+03 -0.62913944072E+03  0.75556640213E+03  0.00000000000E+00 0. -1.
         -3    1    3    3    0  502  0.28229801484E+03 -0.22533381099E+03 -0.46253544087E+03  0.58686159324E+03  0.00000000000E+00 0.  1.
         15    1    5    5    0    0 -0.23008026352E+03  0.49436789577E+02 -0.13417141156E+03  0.27089859585E+03  0.17770000000E+01 0. -1.
        -15    1    5    5    0    0 -0.26599575558E+03  0.16314876281E+03 -0.19062705442E+03  0.36566800844E+03  0.17770000000E+01 0.  1.
          1    1    6    6  503    0 -0.11521295643E+03  0.74094799191E+02  0.96948181985E+02  0.16781839764E+03  0.00000000000E+00 0. -1.
         -1    1    6    6    0  503 -0.44346923317E+02  0.12755284142E+03  0.12180479348E+03  0.18185924413E+03  0.00000000000E+00 0.  1.
<mgrwt>
<rscale>  0 0.79951031E+03</rscale>
<asrwt>0</asrwt>
<pdfrwt beam="1">  1        2 0.27126097E+00 0.79951031E+03</pdfrwt>
<pdfrwt beam="2">  1       -2 0.86996298E-01 0.79951031E+03</pdfrwt>
<totfact> 0.10571255E+01</totfact>
</mgrwt>
</event>
<event>
12    1  0.7781383E-008  0.5422480E+03  0.7818608E-02  0.1003304E+00
          3   -1    0    0  501    0  0.00000000000E+00  0.00000000000E+00  0.22036525163E+03  0.22036525163E+03  0.00000000000E+00 0. -1.
         -3   -1    0    0    0  501 -0.00000000000E+00 -0.00000000000E+00 -0.15368520517E+04  0.15368520517E+04  0.00000000000E+00 0.  1.
         23    2    1    2    0    0  0.38651050696E+03  0.14025287530E+03 -0.62370491028E+03  0.75268384750E+03  0.91999555284E+02 0.  0.
    5000000    2    1    2    0    0 -0.38651050696E+03 -0.14025287530E+03 -0.69278188984E+03  0.10045334559E+04  0.60006622639E+03 0.  0.
         23    2    4    4    0    0  0.37405320929E+02  0.13972617995E+03 -0.43776845167E+02  0.17561639356E+03  0.89454693093E+02 0.  0.
         23    2    4    4    0    0 -0.42391582789E+03 -0.27997905524E+03 -0.64900504467E+03  0.82891706231E+03  0.88334861071E+02 0.  0.
          3    1    3    3  502    0  0.29621868686E+03  0.10213412470E+03 -0.53749097597E+03  0.62215226361E+03  0.00000000000E+00 0. -1.
         -3    1    3    3    0  502  0.90291820100E+02  0.38118750598E+02 -0.86213934309E+02  0.13053158389E+03  0.00000000000E+00 0.  1.
         15    1    5    5    0    0  0.19987183957E+01  0.12645793948E+03 -0.13616084496E+02  0.12721698321E+03  0.17770000000E+01 0. -1.
        -15    1    5    5    0    0  0.35406602533E+02  0.13268240469E+02 -0.30160760671E+02  0.48399410341E+02  0.17770000000E+01 0.  1.
          2    1    6    6  503    0 -0.16988172828E+03 -0.12893944170E+03 -0.20702133750E+03  0.29722552954E+03  0.00000000000E+00 0. -1.
         -2    1    6    6    0  503 -0.25403409961E+03 -0.15103961355E+03 -0.44198370716E+03  0.53169153277E+03  0.00000000000E+00 0.  1.
<mgrwt>
<rscale>  0 0.54224796E+03</rscale>
<asrwt>0</asrwt>
<pdfrwt beam="1">  1        3 0.33902347E-01 0.54224796E+03</pdfrwt>
<pdfrwt beam="2">  1       -3 0.23643878E+00 0.54224796E+03</pdfrwt>
<totfact> 0.20109972E+00</totfact>
</mgrwt>
</event>
<event>
12    1  0.7781383E-008  0.3544451E+03  0.7818608E-02  0.1060805E+00
         -1   -1    0    0    0  501 -0.00000000000E+00  0.00000000000E+00  0.32651575404E+03  0.32651575404E+03  0.00000000000E+00 0.  1.
          1   -1    0    0  501    0  0.00000000000E+00 -0.00000000000E+00 -0.67340906235E+03  0.67340906235E+03  0.00000000000E+00 0. -1.
         23    2    1    2    0    0  0.58228219087E+02  0.25358370680E+03 -0.16356322759E+03  0.32030925811E+03  0.90276628000E+02 0.  0.
    5000000    2    1    2    0    0 -0.58228219087E+02 -0.25358370680E+03 -0.18333008072E+03  0.67961555827E+03  0.60047661628E+03 0.  0.
         23    2    4    4    0    0 -0.14983285448E+03  0.15040414976E+02 -0.30680160864E+03  0.35690766205E+03  0.10285793018E+03 0.  0.
         23    2    4    4    0    0  0.91604635391E+02 -0.26862412177E+03  0.12347152792E+03  0.32270789622E+03  0.91350096081E+02 0.  0.
          1    1    3    3  502    0  0.73660528469E+02  0.13795861385E+03 -0.11417376311E+03  0.19363393497E+03  0.00000000000E+00 0. -1.
         -1    1    3    3    0  502 -0.15432309382E+02  0.11562509295E+03 -0.49389464483E+02  0.12667532315E+03  0.00000000000E+00 0.  1.
         15    1    5    5    0    0 -0.12930278395E+02  0.52405022199E+01 -0.14082179281E+03  0.14152240113E+03  0.17770000000E+01 0. -1.
        -15    1    5    5    0    0 -0.13690257608E+03  0.97999127566E+01 -0.16597981584E+03  0.21538526092E+03  0.17770000000E+01 0.  1.
          1    1    6    6  503    0  0.31202805441E+01 -0.27417787567E+02 -0.14402631993E+02  0.31127271549E+02  0.00000000000E+00 0. -1.
         -1    1    6    6    0  503  0.88484354847E+02 -0.24120633420E+03  0.13787415991E+03  0.29158062467E+03  0.00000000000E+00 0.  1.
<mgrwt>
<rscale>  0 0.35444510E+03</rscale>
<asrwt>0</asrwt>
<pdfrwt beam="1">  1        1 0.10360139E+00 0.35444510E+03</pdfrwt>
<pdfrwt beam="2">  1       -1 0.50233193E-01 0.35444510E+03</pdfrwt>
<totfact> 0.12139920E+02</totfact>
</mgrwt>
</event>
<event>
12    1  0.7781383E-008  0.6997359E+03  0.7818608E-02  0.9717684E-01
         -2   -1    0    0    0  501 -0.00000000000E+00  0.00000000000E+00  0.34714823000E+03  0.34714823000E+03  0.00000000000E+00 0.  1.
          2   -1    0    0  501    0  0.00000000000E+00 -0.00000000000E+00 -0.17291388324E+04  0.17291388324E+04  0.00000000000E+00 0. -1.
         23    2    1    2    0    0 -0.50548380631E+03  0.41018414336E+03 -0.68273604928E+03  0.94812767336E+03  0.95145478556E+02 0.  0.
    5000000    2    1    2    0    0  0.50548380631E+03 -0.41018414336E+03 -0.69925455312E+03  0.11281593890E+04  0.60001813899E+03 0.  0.
         23    2    4    4    0    0  0.52748346937E+03 -0.37322166854E+03 -0.76699651856E+03  0.10070234797E+04  0.90991235416E+02 0.  0.
         23    2    4    4    0    0 -0.21999663058E+02 -0.36962474821E+02  0.67741965434E+02  0.12113590931E+03  0.90745385142E+02 0.  0.
          3    1    3    3  502    0 -0.33032240876E+03  0.28134085967E+03 -0.38955711321E+03  0.58311261134E+03  0.00000000000E+00 0. -1.
         -3    1    3    3    0  502 -0.17516139755E+03  0.12884328369E+03 -0.29317893608E+03  0.36501506202E+03  0.00000000000E+00 0.  1.
         15    1    5    5    0    0  0.22425848310E+03 -0.19403103985E+03 -0.40484105813E+03  0.50183598091E+03  0.17770000000E+01 0. -1.
        -15    1    5    5    0    0  0.30322498627E+03 -0.17919062869E+03 -0.36215546043E+03  0.50518749882E+03  0.17770000000E+01 0.  1.
          2    1    6    6  503    0  0.34376627991E+02 -0.22744114929E+02  0.36886083982E+02  0.55313926886E+02  0.00000000000E+00 0.  1.
         -2    1    6    6    0  503 -0.56376291049E+02 -0.14218359892E+02  0.30855881452E+02  0.65821982427E+02  0.00000000000E+00 0. -1.
<mgrwt>
<rscale>  0 0.69973592E+03</rscale>
<asrwt>0</asrwt>
<pdfrwt beam="1">  1        2 0.26602136E+00 0.69973592E+03</pdfrwt>
<pdfrwt beam="2">  1       -2 0.53407421E-01 0.69973592E+03</pdfrwt>
<totfact> 0.32266855E+01</totfact>
</mgrwt>
</event>
<event>
12    1  0.7781383E-008  0.3478470E+03  0.7818608E-02  0.1063502E+00
         -2   -1    0    0    0  501 -0.00000000000E+00  0.00000000000E+00  0.21139734560E+04  0.21139734560E+04  0.00000000000E+00 0.  1.
          2   -1    0    0  501    0  0.00000000000E+00 -0.00000000000E+00 -0.23261311193E+03  0.23261311193E+03  0.00000000000E+00 0. -1.
         23    2    1    2    0    0 -0.43032740726E+02 -0.23851566539E+03  0.16329676889E+04  0.16534034032E+04  0.91748576228E+02 0.  0.
    5000000    2    1    2    0    0  0.43032740726E+02  0.23851566539E+03  0.24839265510E+03  0.69318316467E+03  0.60005203880E+03 0.  0.
         23    2    4    4    0    0 -0.14942995209E+03  0.14023758117E+03  0.36770401813E+03  0.43045634915E+03  0.89947394773E+02 0.  0.
         23    2    4    4    0    0  0.19246269282E+03  0.98278084225E+02 -0.11931136303E+03  0.26272681552E+03  0.89942805611E+02 0.  0.
          2    1    3    3  502    0  0.26827335724E+02 -0.92314781388E+02  0.54007420794E+03  0.54856346477E+03  0.00000000000E+00 0. -1.
         -2    1    3    3    0  502 -0.69860076451E+02 -0.14620088400E+03  0.10928934810E+04  0.11048399384E+04  0.00000000000E+00 0.  1.
         15    1    5    5    0    0 -0.51039462582E+02  0.24763305055E+02  0.18206342484E+03  0.19070526057E+03  0.17770000000E+01 0. -1.
        -15    1    5    5    0    0 -0.98390489508E+02  0.11547427611E+03  0.18564059329E+03  0.23975108858E+03  0.17770000000E+01 0.  1.
          2    1    6    6  503    0  0.32914736536E+02  0.54394836921E+02 -0.58610097920E+02  0.86471508273E+02  0.00000000000E+00 0. -1.
         -2    1    6    6    0  503  0.15954795628E+03  0.43883247304E+02 -0.60701265106E+02  0.17625530725E+03  0.00000000000E+00 0.  1.
<mgrwt>
<rscale>  0 0.34784703E+03</rscale>
<asrwt>0</asrwt>
<pdfrwt beam="1">  1        2 0.35786634E-01 0.34784703E+03</pdfrwt>
<pdfrwt beam="2">  1       -2 0.32522667E+00 0.34784703E+03</pdfrwt>
<totfact> 0.36750020E+00</totfact>
</mgrwt>
</event>
<event>
12    1  0.7781383E-008  0.1028806E+04  0.7818608E-02  0.9277504E-01
          1   -1    0    0  501    0  0.00000000000E+00  0.00000000000E+00  0.11637830801E+04  0.11637830801E+04  0.00000000000E+00 0. -1.
         -1   -1    0    0    0  501 -0.00000000000E+00 -0.00000000000E+00 -0.11002346230E+04  0.11002346230E+04  0.00000000000E+00 0.  1.
         23    2    1    2    0    0  0.18241835607E+03 -0.93171485866E+03  0.47804383052E+03  0.10668777921E+04  0.91286828170E+02 0.  0.
    5000000    2    1    2    0    0 -0.18241835607E+03  0.93171485866E+03 -0.41449537341E+03  0.11971399110E+04  0.59997376390E+03 0.  0.
         23    2    4    4    0    0 -0.36965715006E+03  0.70790033642E+03 -0.21698683144E+03  0.83266678195E+03  0.92094461540E+02 0.  0.
         23    2    4    4    0    0  0.18723879400E+03  0.22381452224E+03 -0.19750854197E+03  0.36447312902E+03  0.93165075444E+02 0.  0.
          2    1    3    3  502    0  0.15328545740E+03 -0.83205807591E+03  0.39402057800E+03  0.93331092837E+03  0.00000000000E+00 0. -1.
         -2    1    3    3    0  502  0.29132898665E+02 -0.99656782747E+02  0.84023252529E+02  0.13356686377E+03  0.00000000000E+00 0.  1.
         15    1    5    5    0    0 -0.16323860862E+03  0.39111277413E+03 -0.14375429851E+03  0.44753156481E+03  0.17770000000E+01 0. -1.
        -15    1    5    5    0    0 -0.20641854144E+03  0.31678756229E+03 -0.73232532931E+02  0.38513521714E+03  0.17770000000E+01 0.  1.
          1    1    6    6  503    0  0.10791453933E+03  0.19216973791E+03 -0.13268841607E+03  0.25725662621E+03  0.00000000000E+00 0. -1.
         -1    1    6    6    0  503  0.79324254662E+02  0.31644784326E+02 -0.64820125904E+02  0.10721650281E+03  0.00000000000E+00 0.  1.
<mgrwt>
<rscale>  0 0.10288057E+04</rscale>
<asrwt>0</asrwt>
<pdfrwt beam="1">  1        1 0.17904355E+00 0.10288057E+04</pdfrwt>
<pdfrwt beam="2">  1       -1 0.16926686E+00 0.10288057E+04</pdfrwt>
<totfact> 0.28307007E+00</totfact>
</mgrwt>
</event>
<event>
12    1  0.7781383E-008  0.1632818E+04  0.7818608E-02  0.8800636E-01
         -1   -1    0    0    0  501 -0.00000000000E+00  0.00000000000E+00  0.92202526236E+03  0.92202526236E+03  0.00000000000E+00 0.  1.
          1   -1    0    0  501    0  0.00000000000E+00 -0.00000000000E+00 -0.31543128661E+04  0.31543128661E+04  0.00000000000E+00 0. -1.
         23    2    1    2    0    0  0.12864453804E+04  0.94180756011E+03 -0.15967648706E+04  0.22583049319E+04  0.91323141272E+02 0.  0.
    5000000    2    1    2    0    0 -0.12864453804E+04 -0.94180756011E+03 -0.63552273307E+03  0.18180331966E+04  0.59951010215E+03 0.  0.
         23    2    4    4    0    0 -0.31115010527E+03 -0.40499792942E+00 -0.15568815054E+02  0.32470958657E+03  0.91538929300E+02 0.  0.
         23    2    4    4    0    0 -0.97529527512E+03 -0.94140256218E+03 -0.61995391802E+03  0.14933236100E+04  0.90735252047E+02 0.  0.
          3    1    3    3  502    0  0.99227591658E+03  0.75359118273E+03 -0.12897437775E+04  0.17933070504E+04  0.00000000000E+00 0. -1.
         -3    1    3    3    0  502  0.29416946381E+03  0.18821637738E+03 -0.30702109313E+03  0.46499788147E+03  0.00000000000E+00 0.  1.
         15    1    5    5    0    0 -0.23935235874E+03 -0.15135919044E+02  0.24628053807E+02  0.24109820912E+03  0.17770000000E+01 0.  1.
        -15    1    5    5    0    0 -0.71797746532E+02  0.14730921114E+02 -0.40196868862E+02  0.83611377451E+02  0.17770000000E+01 0. -1.
          2    1    6    6  503    0 -0.38088847649E+03 -0.41462971128E+03 -0.28943203270E+03  0.63305981594E+03  0.00000000000E+00 0.  1.
         -2    1    6    6    0  503 -0.59440679863E+03 -0.52677285090E+03 -0.33052188532E+03  0.86026379406E+03  0.00000000000E+00 0. -1.
<mgrwt>
<rscale>  0 0.16328181E+04</rscale>
<asrwt>0</asrwt>
<pdfrwt beam="1">  1        1 0.48527891E+00 0.16328181E+04</pdfrwt>
<pdfrwt beam="2">  1       -1 0.14185004E+00 0.16328181E+04</pdfrwt>
<totfact> 0.17487466E-01</totfact>
</mgrwt>
</event>
<event>
12    1  0.7781383E-008  0.3950160E+03  0.7818608E-02  0.1045519E+00
          1   -1    0    0  501    0  0.00000000000E+00  0.00000000000E+00  0.11090940829E+04  0.11090940829E+04  0.00000000000E+00 0. -1.
         -1   -1    0    0    0  501 -0.00000000000E+00 -0.00000000000E+00 -0.18470745077E+03  0.18470745077E+03  0.00000000000E+00 0.  1.
         23    2    1    2    0    0 -0.22078535437E+02 -0.22412909097E+03  0.13817053663E+03  0.27956209951E+03  0.91337610790E+02 0.  0.
    5000000    2    1    2    0    0  0.22078535437E+02  0.22412909097E+03  0.78621609553E+03  0.10142394342E+04  0.59985379038E+03 0.  0.
         23    2    4    4    0    0  0.19195794532E+03  0.30290027884E+03  0.27347854150E+03  0.46036193326E+03  0.92445471745E+02 0.  0.
         23    2    4    4    0    0 -0.16987940988E+03 -0.78771187870E+02  0.51273755403E+03  0.55387750092E+03  0.93896606835E+02 0.  0.
          4    1    3    3  502    0 -0.30441633659E+02 -0.15745820537E+02  0.15568063964E+02  0.37642908228E+02  0.00000000000E+00 0. -1.
         -4    1    3    3    0  502  0.83630982219E+01 -0.20838327043E+03  0.12260247266E+03  0.24191919128E+03  0.00000000000E+00 0.  1.
         15    1    5    5    0    0  0.77885111861E+02  0.14397510733E+03  0.69841155112E+02  0.17797715263E+03  0.17770000000E+01 0. -1.
        -15    1    5    5    0    0  0.11407283346E+03  0.15892517150E+03  0.20363738639E+03  0.28238478063E+03  0.17770000000E+01 0.  1.
          1    1    6    6  503    0 -0.12672376548E+02 -0.16887614552E+01  0.15565873623E+03  0.15618285183E+03  0.00000000000E+00 0. -1.
         -1    1    6    6    0  503 -0.15720703333E+03 -0.77082426414E+02  0.35707881780E+03  0.39769464909E+03  0.00000000000E+00 0.  1.
<mgrwt>
<rscale>  0 0.39501603E+03</rscale>
<asrwt>0</asrwt>
<pdfrwt beam="1">  1        1 0.17062986E+00 0.39501603E+03</pdfrwt>
<pdfrwt beam="2">  1       -1 0.28416531E-01 0.39501603E+03</pdfrwt>
<totfact> 0.14751979E+02</totfact>
</mgrwt>
</event>
<event>
12    1  0.7781383E-008  0.6832878E+03  0.7818608E-02  0.9746247E-01
          1   -1    0    0  501    0  0.00000000000E+00  0.00000000000E+00  0.20357638012E+04  0.20357638012E+04  0.00000000000E+00 0. -1.
         -1   -1    0    0    0  501 -0.00000000000E+00 -0.00000000000E+00 -0.23452638787E+03  0.23452638787E+03  0.00000000000E+00 0.  1.
         23    2    1    2    0    0 -0.45944686111E+03 -0.31357284321E+03  0.74500140012E+03  0.93430314667E+03  0.92064855010E+02 0.  0.
    5000000    2    1    2    0    0  0.45944686111E+03  0.31357284321E+03  0.10562360132E+04  0.13359870424E+04  0.59983957495E+03 0.  0.
         23    2    4    4    0    0 -0.10279930821E+02  0.32927715854E+03  0.43191081560E+03  0.54979877007E+03  0.84868196756E+02 0.  0.
         23    2    4    4    0    0  0.46972679193E+03 -0.15704315338E+02  0.62432519764E+03  0.78618827235E+03  0.86140365677E+02 0.  0.
          2    1    3    3  502    0 -0.88095343145E+02 -0.10530213534E+03  0.16132537688E+03  0.21183768885E+03  0.00000000000E+00 0. -1.
         -2    1    3    3    0  502 -0.37135151796E+03 -0.20827070787E+03  0.58367602323E+03  0.72246545782E+03  0.00000000000E+00 0.  1.
         15    1    5    5    0    0  0.12222917989E+02  0.26650949504E+03  0.38436385201E+03  0.46788400179E+03  0.17770000000E+01 0.  1.
        -15    1    5    5    0    0 -0.22502848811E+02  0.62767663509E+02  0.47546963592E+02  0.81914768283E+02  0.17770000000E+01 0. -1.
          1    1    6    6  503    0  0.22148910345E+03 -0.49158719177E+01  0.36549265967E+03  0.42739498478E+03  0.00000000000E+00 0. -1.
         -1    1    6    6    0  503  0.24823768848E+03 -0.10788443420E+02  0.25883253797E+03  0.35879328757E+03  0.00000000000E+00 0.  1.
<mgrwt>
<rscale>  0 0.68328778E+03</rscale>
<asrwt>0</asrwt>
<pdfrwt beam="1">  1        1 0.31319442E+00 0.68328778E+03</pdfrwt>
<pdfrwt beam="2">  1       -1 0.36080984E-01 0.68328778E+03</pdfrwt>
<totfact> 0.21755009E+01</totfact>
</mgrwt>
</event>
<event>
12    1  0.7781383E-008  0.1816368E+04  0.7818608E-02  0.8697643E-01
         -2   -1    0    0    0  501 -0.00000000000E+00  0.00000000000E+00  0.12793677771E+04  0.12793677771E+04  0.00000000000E+00 0.  1.
          2   -1    0    0  501    0  0.00000000000E+00 -0.00000000000E+00 -0.26993915520E+04  0.26993915520E+04  0.00000000000E+00 0. -1.
         23    2    1    2    0    0  0.15794397036E+04 -0.80678517489E+03 -0.10717565366E+04  0.20743437967E+04  0.93316759021E+02 0.  0.
    5000000    2    1    2    0    0 -0.15794397036E+04  0.80678517489E+03 -0.34826723826E+03  0.19044155324E+04  0.59998029558E+03 0.  0.
         23    2    4    4    0    0 -0.10272470063E+04  0.22745536712E+03 -0.29857173601E+03  0.10974500452E+04  0.90989912262E+02 0.  0.
         23    2    4    4    0    0 -0.55219269729E+03  0.57932980777E+03 -0.49695502250E+02  0.80696548721E+03  0.90464653344E+02 0.  0.
          3    1    3    3  502    0  0.45293052458E+03 -0.22086811511E+03 -0.25715730859E+03  0.56573727624E+03  0.00000000000E+00 0. -1.
         -3    1    3    3    0  502  0.11265091790E+04 -0.58591705978E+03 -0.81459922797E+03  0.15086065205E+04  0.00000000000E+00 0.  1.
         15    1    5    5    0    0 -0.53753224701E+03  0.15981189012E+03 -0.13608261572E+03  0.57706359514E+03  0.17770000000E+01 0.  1.
        -15    1    5    5    0    0 -0.48971475930E+03  0.67643476999E+02 -0.16248912029E+03  0.52038645005E+03  0.17770000000E+01 0. -1.
          1    1    6    6  503    0 -0.96041385957E+02  0.14580508031E+03 -0.31434389174E+02  0.17740121218E+03  0.00000000000E+00 0. -1.
         -1    1    6    6    0  503 -0.45615131133E+03  0.43352472746E+03 -0.18261113076E+02  0.62956427503E+03  0.00000000000E+00 0.  1.
<mgrwt>
<rscale>  0 0.18163677E+04</rscale>
<asrwt>0</asrwt>
<pdfrwt beam="1">  1        2 0.41529100E+00 0.18163677E+04</pdfrwt>
<pdfrwt beam="2">  1       -2 0.19682581E+00 0.18163677E+04</pdfrwt>
<totfact> 0.33759735E-01</totfact>
</mgrwt>
</event>
<event>
12    1  0.7781383E-008  0.1398724E+04  0.7818608E-02  0.8954743E-01
          1   -1    0    0  501    0  0.00000000000E+00  0.00000000000E+00  0.20735728241E+04  0.20735728241E+04  0.00000000000E+00 0. -1.
         -1   -1    0    0    0  501 -0.00000000000E+00 -0.00000000000E+00 -0.10532713553E+04  0.10532713553E+04  0.00000000000E+00 0.  1.
         23    2    1    2    0    0  0.34205748351E+03  0.13230444734E+04  0.99488287831E+02  0.13731593041E+04  0.90656242619E+02 0.  0.
    5000000    2    1    2    0    0 -0.34205748351E+03 -0.13230444734E+04  0.92081318088E+03  0.17536848753E+04  0.60005310355E+03 0.  0.
         23    2    4    4    0    0  0.68686892279E+02 -0.13845544237E+03 -0.21812604182E+02  0.18244775625E+03  0.94464783736E+02 0.  0.
         23    2    4    4    0    0 -0.41074437578E+03 -0.11845890311E+04  0.94262578507E+03  0.15712371191E+04  0.90997795982E+02 0.  0.
          2    1    3    3  502    0  0.43893040973E+02  0.22047451611E+03 -0.14758679554E+02  0.22528521905E+03  0.00000000000E+00 0. -1.
         -2    1    3    3    0  502  0.29816444253E+03  0.11025699573E+04  0.11424696739E+03  0.11478740850E+04  0.00000000000E+00 0.  1.
         15    1    5    5    0    0  0.68578155478E+01  0.10203709795E+02 -0.17392604730E+02  0.21373014667E+02  0.17770000000E+01 0.  1.
        -15    1    5    5    0    0  0.61829076731E+02 -0.14865915216E+03 -0.44199994515E+01  0.16107474158E+03  0.17770000000E+01 0. -1.
          2    1    6    6  503    0 -0.68638792054E+02 -0.11351276301E+03  0.95599473266E+02  0.16351052085E+03  0.00000000000E+00 0. -1.
         -2    1    6    6    0  503 -0.34210558373E+03 -0.10710762681E+04  0.84702631180E+03  0.14077265982E+04  0.00000000000E+00 0.  1.
<mgrwt>
<rscale>  0 0.13987239E+04</rscale>
<asrwt>0</asrwt>
<pdfrwt beam="1">  1        1 0.31901120E+00 0.13987239E+04</pdfrwt>
<pdfrwt beam="2">  1       -1 0.16204175E+00 0.13987239E+04</pdfrwt>
<totfact> 0.71846031E-01</totfact>
</mgrwt>
</event>
<event>
12    1  0.8138907E-008  0.1012331E+04  0.7818608E-02  0.9295123E-01
          2   -1    0    0  501    0  0.00000000000E+00  0.00000000000E+00  0.19142027108E+04  0.19142027108E+04  0.00000000000E+00 0. -1.
         -2   -1    0    0    0  501 -0.00000000000E+00 -0.00000000000E+00 -0.73052070716E+03  0.73052070716E+03  0.00000000000E+00 0.  1.
         23    2    1    2    0    0  0.81503244973E+03 -0.59274556327E+03  0.10595394056E+04  0.14650418519E+04  0.89992661267E+02 0.  0.
    5000000    2    1    2    0    0 -0.81503244973E+03  0.59274556327E+03  0.12414259812E+03  0.11796815661E+04  0.60050979656E+03 0.  0.
         23    2    4    4    0    0 -0.56500902959E+03  0.35266670710E+03 -0.19646452917E+03  0.70034417379E+03  0.90965052218E+02 0.  0.
         23    2    4    4    0    0 -0.25002342014E+03  0.24007885617E+03  0.32060712729E+03  0.47933739228E+03  0.82618628483E+02 0.  0.
          1    1    3    3  502    0  0.34183782011E+03 -0.27633384655E+03  0.51793791882E+03  0.67931817122E+03  0.00000000000E+00 0. -1.
         -1    1    3    3    0  502  0.47319462962E+03 -0.31641171673E+03  0.54160148675E+03  0.78572368071E+03  0.00000000000E+00 0.  1.
         15    1    5    5    0    0 -0.39853986844E+03  0.24155414010E+03 -0.93725129769E+02  0.47536300552E+03  0.17770000000E+01 0.  1.
        -15    1    5    5    0    0 -0.16646916115E+03  0.11111256700E+03 -0.10273939940E+03  0.22498116827E+03  0.17770000000E+01 0. -1.
          4    1    6    6  503    0 -0.94206061293E+02  0.60657815934E+02  0.61715958142E+02  0.12791798977E+03  0.00000000000E+00 0.  1.
         -4    1    6    6    0  503 -0.15581735885E+03  0.17942104024E+03  0.25889116914E+03  0.35141940251E+03  0.00000000000E+00 0. -1.
<mgrwt>
<rscale>  0 0.10123313E+04</rscale>
<asrwt>0</asrwt>
<pdfrwt beam="1">  1        2 0.29449272E+00 0.10123313E+04</pdfrwt>
<pdfrwt beam="2">  1       -2 0.11238780E+00 0.10123313E+04</pdfrwt>
<totfact> 0.46363274E+00</totfact>
</mgrwt>
</event>
<event>
12    1  0.7781383E-008  0.4427705E+03  0.7818608E-02  0.1029900E+00
          2   -1    0    0  501    0  0.00000000000E+00  0.00000000000E+00  0.15118947245E+04  0.15118947245E+04  0.00000000000E+00 0. -1.
         -2   -1    0    0    0  501 -0.00000000000E+00 -0.00000000000E+00 -0.16924677501E+03  0.16924677501E+03  0.00000000000E+00 0.  1.
         23    2    1    2    0    0 -0.12375334485E+03 -0.29418203971E+03  0.45546839765E+03  0.56353640526E+03  0.90905753091E+02 0.  0.
    5000000    2    1    2    0    0  0.12375334485E+03  0.29418203971E+03  0.88717955182E+03  0.11176050942E+04  0.60007968358E+03 0.  0.
         23    2    4    4    0    0 -0.69327767488E+02  0.32660338062E+03  0.20529700256E+03  0.40240005854E+03  0.91119922500E+02 0.  0.
         23    2    4    4    0    0  0.19308111234E+03 -0.32421340911E+02  0.68188254926E+03  0.71520503570E+03  0.90680608793E+02 0.  0.
          2    1    3    3  502    0 -0.14194570078E+02 -0.98855345176E+02  0.20175133540E+03  0.22511656186E+03  0.00000000000E+00 0.  1.
         -2    1    3    3    0  502 -0.10955877477E+03 -0.19532669453E+03  0.25371706225E+03  0.33841984340E+03  0.00000000000E+00 0. -1.
         15    1    5    5    0    0 -0.37155741143E+02  0.30477083233E+03  0.18572018381E+03  0.35883276570E+03  0.17770000000E+01 0.  1.
        -15    1    5    5    0    0 -0.32172026345E+02  0.21832548295E+02  0.19576818752E+02  0.43567292843E+02  0.17770000000E+01 0. -1.
          1    1    6    6  503    0  0.27757075229E+01 -0.25167265061E+02  0.79228810510E+02  0.83176319934E+02  0.00000000000E+00 0. -1.
         -1    1    6    6    0  503  0.19030540481E+03 -0.72540758496E+01  0.60265373875E+03  0.63202871576E+03  0.00000000000E+00 0.  1.
<mgrwt>
<rscale>  0 0.44277048E+03</rscale>
<asrwt>0</asrwt>
<pdfrwt beam="1">  1        2 0.23259918E+00 0.44277048E+03</pdfrwt>
<pdfrwt beam="2">  1       -2 0.26037966E-01 0.44277048E+03</pdfrwt>
<totfact> 0.17434978E+02</totfact>
</mgrwt>
</event>
<event>
12    1  0.7781383E-008  0.4763491E+03  0.7818608E-02  0.1020143E+00
          2   -1    0    0  501    0  0.00000000000E+00  0.00000000000E+00  0.46662907971E+03  0.46662907971E+03  0.00000000000E+00 0. -1.
         -2   -1    0    0    0  501 -0.00000000000E+00 -0.00000000000E+00 -0.67582384335E+03  0.67582384335E+03  0.00000000000E+00 0.  1.
         23    2    1    2    0    0  0.64008442658E+02  0.33563745649E+03  0.12483531465E+03  0.37509766049E+03  0.91459369093E+02 0.  0.
    5000000    2    1    2    0    0 -0.64008442658E+02 -0.33563745649E+03 -0.33403007829E+03  0.76735526257E+03  0.60042353623E+03 0.  0.
         23    2    4    4    0    0 -0.20439948750E+03  0.12056752966E+02  0.42656728292E+02  0.22807541057E+03  0.90963073015E+02 0.  0.
         23    2    4    4    0    0  0.14039104485E+03 -0.34769420945E+03 -0.37668680658E+03  0.53927985200E+03  0.91262806006E+02 0.  0.
          3    1    3    3  502    0  0.74739313049E+02  0.17848556733E+03  0.45730674342E+02  0.19883248537E+03  0.00000000000E+00 0. -1.
         -3    1    3    3    0  502 -0.10730870391E+02  0.15715188915E+03  0.79104640310E+02  0.17626517512E+03  0.00000000000E+00 0.  1.
         15    1    5    5    0    0 -0.18248364647E+02  0.23780879942E+02 -0.14001159220E+02  0.33131906851E+02  0.17770000000E+01 0. -1.
        -15    1    5    5    0    0 -0.18615112286E+03 -0.11724126976E+02  0.56657887512E+02  0.19494350371E+03  0.17770000000E+01 0.  1.
          2    1    6    6  503    0  0.12608655068E+03 -0.19794859604E+03 -0.24624043691E+03  0.34017027752E+03  0.00000000000E+00 0. -1.
         -2    1    6    6    0  503  0.14304494161E+02 -0.14974561341E+03 -0.13044636967E+03  0.19910957448E+03  0.00000000000E+00 0.  1.
<mgrwt>
<rscale>  0 0.47634911E+03</rscale>
<asrwt>0</asrwt>
<pdfrwt beam="1">  1        2 0.71789090E-01 0.47634911E+03</pdfrwt>
<pdfrwt beam="2">  1       -2 0.10397290E+00 0.47634911E+03</pdfrwt>
<totfact> 0.51911934E+01</totfact>
</mgrwt>
</event>
<event>
12    1  0.7781383E-008  0.8279165E+03  0.7818608E-02  0.9520466E-01
          2   -1    0    0  501    0  0.00000000000E+00  0.00000000000E+00  0.77613305554E+03  0.77613305554E+03  0.00000000000E+00 0. -1.
         -2   -1    0    0    0  501 -0.00000000000E+00 -0.00000000000E+00 -0.10512187176E+04  0.10512187176E+04  0.00000000000E+00 0.  1.
         23    2    1    2    0    0  0.73337354306E+03 -0.15676467542E+03  0.16145985240E+03  0.77241183483E+03  0.90215528202E+02 0.  0.
    5000000    2    1    2    0    0 -0.73337354306E+03  0.15676467542E+03 -0.43654551446E+03  0.10549399383E+04  0.59992863753E+03 0.  0.
         23    2    4    4    0    0 -0.22301006815E+03  0.28651920381E+03 -0.16213094168E+02  0.37509339474E+03  0.92765541593E+02 0.  0.
         23    2    4    4    0    0 -0.51036347491E+03 -0.12975452839E+03 -0.42033242029E+03  0.67984654357E+03  0.90580710384E+02 0.  0.
          4    1    3    3  502    0  0.45134598741E+03 -0.93334367047E+02  0.54155941867E+02  0.46406612725E+03  0.00000000000E+00 0. -1.
         -4    1    3    3    0  502  0.28202755565E+03 -0.63430308375E+02  0.10730391053E+03  0.30834570758E+03  0.00000000000E+00 0.  1.
         15    1    5    5    0    0 -0.18654149931E+03  0.17829308709E+03 -0.31067160277E+02  0.25991245073E+03  0.17770000000E+01 0. -1.
        -15    1    5    5    0    0 -0.36468568839E+02  0.10822611672E+03  0.14854066108E+02  0.11518094401E+03  0.17770000000E+01 0.  1.
          1    1    6    6  503    0 -0.31253100225E+03 -0.12234818412E+03 -0.24699773210E+03  0.41671643258E+03  0.00000000000E+00 0. -1.
         -1    1    6    6    0  503 -0.19783247267E+03 -0.74063442663E+01 -0.17333468820E+03  0.26313011099E+03  0.00000000000E+00 0.  1.
<mgrwt>
<rscale>  0 0.82791648E+03</rscale>
<asrwt>0</asrwt>
<pdfrwt beam="1">  1        2 0.11940509E+00 0.82791648E+03</pdfrwt>
<pdfrwt beam="2">  1       -2 0.16172596E+00 0.82791648E+03</pdfrwt>
<totfact> 0.88435337E+00</totfact>
</mgrwt>
</event>
<event>
12    1  0.7781383E-008  0.8855415E+03  0.7818608E-02  0.9443838E-01
         -2   -1    0    0    0  501 -0.00000000000E+00  0.00000000000E+00  0.19532223086E+03  0.19532223086E+03  0.00000000000E+00 0.  1.
          2   -1    0    0  501    0  0.00000000000E+00 -0.00000000000E+00 -0.41983797938E+04  0.41983797938E+04  0.00000000000E+00 0. -1.
         23    2    1    2    0    0 -0.72009841122E+03 -0.35242519289E+03 -0.19129556069E+04  0.20761452176E+04  0.90744542690E+02 0.  0.
    5000000    2    1    2    0    0  0.72009841122E+03  0.35242519289E+03 -0.20901019560E+04  0.23175568071E+04  0.59983175058E+03 0.  0.
         23    2    4    4    0    0  0.75702942761E+03  0.42903409719E+03 -0.18590720235E+04  0.20545798885E+04  0.89363968526E+02 0.  0.
         23    2    4    4    0    0 -0.36931016385E+02 -0.76608904295E+02 -0.23102993253E+03  0.26297691857E+03  0.92461915350E+02 0.  0.
          4    1    3    3  502    0 -0.60175252318E+03 -0.25580190199E+03 -0.15678770676E+04  0.16987581380E+04  0.00000000000E+00 0. -1.
         -4    1    3    3    0  502 -0.11834588805E+03 -0.96623290901E+02 -0.34507853929E+03  0.37738707959E+03  0.00000000000E+00 0.  1.
         15    1    5    5    0    0  0.45495224311E+03  0.27727222827E+03 -0.10413512454E+04  0.11697337330E+04  0.17770000000E+01 0.  1.
        -15    1    5    5    0    0  0.30207718450E+03  0.15176186892E+03 -0.81772077815E+03  0.88484615555E+03  0.17770000000E+01 0. -1.
          2    1    6    6  503    0 -0.25821716634E+02 -0.78209600078E+02 -0.23654319526E+03  0.25047192621E+03  0.00000000000E+00 0. -1.
         -2    1    6    6    0  503 -0.11109299751E+02  0.16006957831E+01  0.55132627370E+01  0.12504992362E+02  0.00000000000E+00 0.  1.
<mgrwt>
<rscale>  0 0.88554152E+03</rscale>
<asrwt>0</asrwt>
<pdfrwt beam="1">  1        2 0.64590452E+00 0.88554152E+03</pdfrwt>
<pdfrwt beam="2">  1       -2 0.30049577E-01 0.88554152E+03</pdfrwt>
<totfact> 0.25865822E+00</totfact>
</mgrwt>
</event>
<event>
12    1  0.7781383E-008  0.1081163E+04  0.7818608E-02  0.9223749E-01
          1   -1    0    0  501    0  0.00000000000E+00  0.00000000000E+00  0.15064566796E+04  0.15064566796E+04  0.00000000000E+00 0. -1.
         -1   -1    0    0    0  501 -0.00000000000E+00 -0.00000000000E+00 -0.12008161105E+04  0.12008161105E+04  0.00000000000E+00 0.  1.
         23    2    1    2    0    0 -0.10201697019E+04 -0.24243356287E+03  0.87755028339E+03  0.13704693650E+04  0.92582543017E+02 0.  0.
    5000000    2    1    2    0    0  0.10201697019E+04  0.24243356287E+03 -0.57190971431E+03  0.13368034251E+04  0.60036857252E+03 0.  0.
         23    2    4    4    0    0  0.84837210939E+03  0.73233139919E+02 -0.19218784542E+03  0.87749668031E+03  0.89252043365E+02 0.  0.
         23    2    4    4    0    0  0.17179759254E+03  0.16920042295E+03 -0.37972186889E+03  0.45930674478E+03  0.92902056805E+02 0.  0.
          3    1    3    3  502    0 -0.87348417985E+03 -0.17375261219E+03  0.73587691649E+03  0.11552832635E+04  0.00000000000E+00 0. -1.
         -3    1    3    3    0  502 -0.14668552208E+03 -0.68680950678E+02  0.14167336690E+03  0.21518610146E+03  0.00000000000E+00 0.  1.
         15    1    5    5    0    0  0.32735898605E+03  0.36909956446E+02 -0.11820174361E+03  0.35000151507E+03  0.17770000000E+01 0.  1.
        -15    1    5    5    0    0  0.52101312335E+03  0.36323183473E+02 -0.73986101802E+02  0.52749516523E+03  0.17770000000E+01 0. -1.
          1    1    6    6  503    0  0.10431292124E+03  0.38953515219E+02 -0.17603653488E+03  0.20829647980E+03  0.00000000000E+00 0. -1.
         -1    1    6    6    0  503  0.67484671301E+02  0.13024690773E+03 -0.20368533401E+03  0.25101026498E+03  0.00000000000E+00 0.  1.
<mgrwt>
<rscale>  0 0.10811627E+04</rscale>
<asrwt>0</asrwt>
<pdfrwt beam="1">  1        1 0.23176256E+00 0.10811627E+04</pdfrwt>
<pdfrwt beam="2">  1       -1 0.18474094E+00 0.10811627E+04</pdfrwt>
<totfact> 0.12400645E+00</totfact>
</mgrwt>
</event>
<event>
12    1  0.7781383E-008  0.4357630E+03  0.7818608E-02  0.1032055E+00
          2   -1    0    0  501    0  0.00000000000E+00  0.00000000000E+00  0.42538104679E+04  0.42538104679E+04  0.00000000000E+00 0.  1.
         -2   -1    0    0    0  501 -0.00000000000E+00 -0.00000000000E+00 -0.52739076899E+02  0.52739076899E+02  0.00000000000E+00 0. -1.
         23    2    1    2    0    0 -0.38716353958E+02 -0.27034839182E+03  0.12217612110E+04  0.12551111092E+04  0.89533406092E+02 0.  0.
    5000000    2    1    2    0    0  0.38716353958E+02  0.27034839182E+03  0.29793101800E+04  0.30514384356E+04  0.60033338100E+03 0.  0.
         23    2    4    4    0    0  0.94555128688E+02 -0.13641813296E+03  0.46127681550E+03  0.49853104670E+03  0.90588766629E+02 0.  0.
         23    2    4    4    0    0 -0.55838774731E+02  0.40676652477E+03  0.25180333645E+04  0.25529073889E+04  0.90923797514E+02 0.  0.
          4    1    3    3  502    0 -0.43975280588E+02 -0.21149751941E+03  0.77799781597E+03  0.80743150030E+03  0.00000000000E+00 0. -1.
         -4    1    3    3    0  502  0.52589266305E+01 -0.58850872410E+02  0.44376339503E+03  0.44767960894E+03  0.00000000000E+00 0.  1.
         15    1    5    5    0    0  0.10845363703E+03 -0.11906129748E+03  0.43611236756E+03  0.46490314992E+03  0.17770000000E+01 0.  1.
        -15    1    5    5    0    0 -0.13898508345E+02 -0.17356835475E+02  0.25164447944E+02  0.33627896771E+02  0.17770000000E+01 0. -1.
          3    1    6    6  503    0 -0.21619858357E+01  0.18020528682E+03  0.13420472173E+04  0.13540935540E+04  0.00000000000E+00 0. -1.
         -3    1    6    6    0  503 -0.53676788895E+02  0.22656123796E+03  0.11759861472E+04  0.11988138349E+04  0.00000000000E+00 0.  1.
<mgrwt>
<rscale>  0 0.43576302E+03</rscale>
<asrwt>0</asrwt>
<pdfrwt beam="1">  1        2 0.65443211E+00 0.43576302E+03</pdfrwt>
<pdfrwt beam="2">  1       -2 0.81137075E-02 0.43576302E+03</pdfrwt>
<totfact> 0.24199716E+01</totfact>
</mgrwt>
</event>
<event>
12    1  0.7781383E-008  0.7127580E+03  0.7818608E-02  0.9695660E-01
         -2   -1    0    0    0  501 -0.00000000000E+00  0.00000000000E+00  0.14609553284E+04  0.14609553284E+04  0.00000000000E+00 0. -1.
          2   -1    0    0  501    0  0.00000000000E+00 -0.00000000000E+00 -0.87606296796E+03  0.87606296796E+03  0.00000000000E+00 0.  1.
         23    2    1    2    0    0  0.37254374428E+03  0.58063123537E+03  0.10872040217E+04  0.12938421963E+04  0.12686044065E+03 0.  0.
    5000000    2    1    2    0    0 -0.37254374428E+03 -0.58063123537E+03 -0.50231166122E+03  0.10431761000E+04  0.59998158119E+03 0.  0.
         23    2    4    4    0    0 -0.30231028255E+03 -0.51702896942E+03 -0.61803690989E+03  0.86564710480E+03  0.93085046631E+02 0.  0.
         23    2    4    4    0    0 -0.70233461727E+02 -0.63602265948E+02  0.11572524867E+03  0.17752899522E+03  0.95635890676E+02 0.  0.
          3    1    3    3  502    0  0.25114074442E+03  0.34465307847E+03  0.77060968415E+03  0.88073645509E+03  0.00000000000E+00 0. -1.
         -3    1    3    3    0  502  0.12140299986E+03  0.23597815689E+03  0.31659433751E+03  0.41310574124E+03  0.00000000000E+00 0.  1.
         15    1    5    5    0    0 -0.20235855711E+03 -0.32620268701E+03 -0.45610272075E+03  0.59614597898E+03  0.17770000000E+01 0. -1.
        -15    1    5    5    0    0 -0.99951725447E+02 -0.19082628241E+03 -0.16193418914E+03  0.26950112582E+03  0.17770000000E+01 0.  1.
          1    1    6    6  503    0  0.22697602834E+02 -0.17627424491E+01  0.15803082297E+02  0.27713279226E+02  0.00000000000E+00 0. -1.
         -1    1    6    6    0  503 -0.92931064561E+02 -0.61839523498E+02  0.99922166369E+02  0.14981571599E+03  0.00000000000E+00 0.  1.
<mgrwt>
<rscale>  0 0.71275802E+03</rscale>
<asrwt>0</asrwt>
<pdfrwt beam="1">  1        2 0.13477892E+00 0.71275802E+03</pdfrwt>
<pdfrwt beam="2">  1       -2 0.22476236E+00 0.71275802E+03</pdfrwt>
<totfact> 0.29005064E+00</totfact>
</mgrwt>
</event>
<event>
12    1  0.7781383E-008  0.1858771E+04  0.7818608E-02  0.8675655E-01
          1   -1    0    0  501    0  0.00000000000E+00  0.00000000000E+00  0.27771121169E+04  0.27771121169E+04  0.00000000000E+00 0. -1.
         -1   -1    0    0    0  501 -0.00000000000E+00 -0.00000000000E+00 -0.12688185829E+04  0.12688185829E+04  0.00000000000E+00 0.  1.
         23    2    1    2    0    0 -0.10830908763E+04  0.14715653287E+04  0.67350227631E+03  0.19494087920E+04  0.89436900587E+02 0.  0.
    5000000    2    1    2    0    0  0.10830908763E+04 -0.14715653287E+04  0.83479125773E+03  0.20965219078E+04  0.59994775009E+03 0.  0.
         23    2    4    4    0    0  0.38016892217E+02 -0.22921848629E+02 -0.35526586781E+02  0.10746548984E+03  0.91192093401E+02 0.  0.
         23    2    4    4    0    0  0.10450739841E+04 -0.14486434801E+04  0.87031784451E+03  0.19890564180E+04  0.90248095343E+02 0.  0.
          2    1    3    3  502    0 -0.65404836329E+03  0.81805344845E+03  0.40096758276E+03  0.11215015419E+04  0.00000000000E+00 0. -1.
         -2    1    3    3    0  502 -0.42904251304E+03  0.65351188027E+03  0.27253469355E+03  0.82790725014E+03  0.00000000000E+00 0.  1.
         15    1    5    5    0    0  0.62774139194E+02  0.48183669137E+01 -0.14197830190E+02  0.64564272801E+02  0.17770000000E+01 0.  1.
        -15    1    5    5    0    0 -0.24757246977E+02 -0.27740215543E+02 -0.21328756591E+02  0.42901217034E+02  0.17770000000E+01 0. -1.
          2    1    6    6  503    0  0.77048471494E+03 -0.11282693724E+04  0.68153822219E+03  0.15268047750E+04  0.00000000000E+00 0. -1.
         -2    1    6    6    0  503  0.27458926918E+03 -0.32037410764E+03  0.18877962232E+03  0.46225164293E+03  0.00000000000E+00 0.  1.
<mgrwt>
<rscale>  0 0.18587706E+04</rscale>
<asrwt>0</asrwt>
<pdfrwt beam="1">  1        1 0.42724802E+00 0.18587706E+04</pdfrwt>
<pdfrwt beam="2">  1       -1 0.19520286E+00 0.18587706E+04</pdfrwt>
<totfact> 0.12777349E-01</totfact>
</mgrwt>
</event>
<event>
12    1  0.7781383E-008  0.8822393E+03  0.7818608E-02  0.9448060E-01
         -2   -1    0    0    0  501 -0.00000000000E+00  0.00000000000E+00  0.72829061548E+03  0.72829061548E+03  0.00000000000E+00 0.  1.
          2   -1    0    0  501    0  0.00000000000E+00 -0.00000000000E+00 -0.13619091958E+04  0.13619091958E+04  0.00000000000E+00 0. -1.
         23    2    1    2    0    0 -0.66109402929E+03 -0.47930158580E+03 -0.69326283268E+03  0.10751086249E+04  0.92031921043E+02 0.  0.
    5000000    2    1    2    0    0  0.66109402929E+03  0.47930158580E+03  0.59644252358E+02  0.10150911864E+04  0.60006445826E+03 0.  0.
         23    2    4    4    0    0  0.11206516320E+03  0.36140248813E+03 -0.13313113623E+03  0.41277187647E+03  0.97397963744E+02 0.  0.
         23    2    4    4    0    0  0.54902886608E+03  0.11789909768E+03  0.19277538859E+03  0.60231930989E+03  0.10145593917E+03 0.  0.
          3    1    3    3  502    0 -0.43987622764E+03 -0.26534842100E+03 -0.42026747821E+03  0.66372105090E+03  0.00000000000E+00 0. -1.
         -3    1    3    3    0  502 -0.22121780165E+03 -0.21395316480E+03 -0.27299535447E+03  0.41138757402E+03  0.00000000000E+00 0.  1.
         15    1    5    5    0    0  0.82249046732E+02  0.18868270160E+03 -0.26332472406E+02  0.20751535944E+03  0.17770000000E+01 0. -1.
        -15    1    5    5    0    0  0.29816116471E+02  0.17271978652E+03 -0.10679866382E+03  0.20525651703E+03  0.17770000000E+01 0.  1.
          3    1    6    6  503    0  0.35494228760E+03  0.66583286604E+02  0.17347402847E+03  0.40063774178E+03  0.00000000000E+00 0. -1.
         -3    1    6    6    0  503  0.19408657848E+03  0.51315811072E+02  0.19301360114E+02  0.20168156811E+03  0.00000000000E+00 0.  1.
<mgrwt>
<rscale>  0 0.88223932E+03</rscale>
<asrwt>0</asrwt>
<pdfrwt beam="1">  1        2 0.20952449E+00 0.88223932E+03</pdfrwt>
<pdfrwt beam="2">  1       -2 0.11204471E+00 0.88223932E+03</pdfrwt>
<totfact> 0.96198337E+00</totfact>
</mgrwt>
</event>
<event>
12    1  0.7781383E-008  0.7682232E+03  0.7818608E-02  0.9607187E-01
          1   -1    0    0  501    0  0.00000000000E+00  0.00000000000E+00  0.14856045166E+04  0.14856045166E+04  0.00000000000E+00 0. -1.
         -1   -1    0    0    0  501 -0.00000000000E+00 -0.00000000000E+00 -0.98509157176E+03  0.98509157176E+03  0.00000000000E+00 0.  1.
         23    2    1    2    0    0  0.41015896465E+03 -0.54695112109E+03 -0.68908762907E+03  0.97316500250E+03  0.69443908343E+02 0.  0.
    5000000    2    1    2    0    0 -0.41015896465E+03  0.54695112109E+03  0.11896005739E+04  0.14975310858E+04  0.60005326640E+03 0.  0.
         23    2    4    4    0    0 -0.31666793464E+03  0.45558052712E+02  0.74101809552E+03  0.81215331578E+03  0.90172465032E+02 0.  0.
         23    2    4    4    0    0 -0.93491030014E+02  0.50139306838E+03  0.44858247835E+03  0.68537777005E+03  0.91547070296E+02 0.  0.
          4    1    3    3  502    0  0.26264545090E+03 -0.30447484714E+03 -0.43261832970E+03  0.59063202132E+03  0.00000000000E+00 0. -1.
         -4    1    3    3    0  502  0.14751351375E+03 -0.24247627395E+03 -0.25646929937E+03  0.38253298118E+03  0.00000000000E+00 0.  1.
         15    1    5    5    0    0 -0.31162199589E+03  0.59629406749E+02  0.70416571495E+03  0.77234477166E+03  0.17770000000E+01 0. -1.
        -15    1    5    5    0    0 -0.50459387493E+01 -0.14071354037E+02  0.36852380565E+02  0.39808544115E+02  0.17770000000E+01 0.  1.
          4    1    6    6  503    0  0.17673932948E+02  0.42676313906E+02  0.39913263010E+02  0.61046738148E+02  0.00000000000E+00 0.  1.
         -4    1    6    6    0  503 -0.11116496296E+03  0.45871675447E+03  0.40866921534E+03  0.62433103190E+03  0.00000000000E+00 0. -1.
<mgrwt>
<rscale>  0 0.76822323E+03</rscale>
<asrwt>0</asrwt>
<pdfrwt beam="1">  1        1 0.22855454E+00 0.76822323E+03</pdfrwt>
<pdfrwt beam="2">  1       -1 0.15155255E+00 0.76822323E+03</pdfrwt>
<totfact> 0.23678902E+00</totfact>
</mgrwt>
</event>
<event>
12    1  0.7781383E-008  0.5734743E+03  0.7818608E-02  0.9962020E-01
         -1   -1    0    0    0  501 -0.00000000000E+00  0.00000000000E+00  0.95380647084E+03  0.95380647084E+03  0.00000000000E+00 0.  1.
          1   -1    0    0  501    0  0.00000000000E+00 -0.00000000000E+00 -0.36070250454E+03  0.36070250454E+03  0.00000000000E+00 0. -1.
         23    2    1    2    0    0 -0.46309080014E+02  0.41517516865E+03  0.12090491453E+03  0.44414729615E+03  0.90187974618E+02 0.  0.
    5000000    2    1    2    0    0  0.46309080014E+02 -0.41517516865E+03  0.47219905178E+03  0.87036167923E+03  0.60003546280E+03 0.  0.
         23    2    4    4    0    0 -0.21528839779E+03 -0.67865849921E+01  0.11431042395E+03  0.26095751157E+03  0.92934373973E+02 0.  0.
         23    2    4    4    0    0  0.26159747780E+03 -0.40838858366E+03  0.35788862783E+03  0.60940416766E+03  0.89859301007E+02 0.  0.
          1    1    3    3  502    0 -0.72932070161E+02  0.33654818207E+03  0.96827347017E+02  0.35771399307E+03  0.00000000000E+00 0. -1.
         -1    1    3    3    0  502  0.26622990147E+02  0.78626986580E+02  0.24077567515E+02  0.86433303075E+02  0.00000000000E+00 0.  1.
         15    1    5    5    0    0 -0.14102542702E+03 -0.40319586065E+02  0.10168109998E+03  0.17848261514E+03  0.17770000000E+01 0. -1.
        -15    1    5    5    0    0 -0.74262970770E+02  0.33533001073E+02  0.12629323968E+02  0.82474896431E+02  0.17770000000E+01 0.  1.
          4    1    6    6  503    0  0.96729350438E+02 -0.86638494783E+02  0.11852367087E+03  0.17581426726E+03  0.00000000000E+00 0. -1.
         -4    1    6    6    0  503  0.16486812736E+03 -0.32175008887E+03  0.23936495695E+03  0.43358990040E+03  0.00000000000E+00 0.  1.
<mgrwt>
<rscale>  0 0.57347430E+03</rscale>
<asrwt>0</asrwt>
<pdfrwt beam="1">  1        1 0.55492694E-01 0.57347430E+03</pdfrwt>
<pdfrwt beam="2">  1       -1 0.14673946E+00 0.57347430E+03</pdfrwt>
<totfact> 0.26598706E+01</totfact>
</mgrwt>
</event>
<event>
12    1  0.7781383E-008  0.8114034E+03  0.7818608E-02  0.9543656E-01
          2   -1    0    0  501    0  0.00000000000E+00  0.00000000000E+00  0.45949738605E+03  0.45949738605E+03  0.00000000000E+00 0. -1.
         -2   -1    0    0    0  501 -0.00000000000E+00 -0.00000000000E+00 -0.23253252493E+04  0.23253252493E+04  0.00000000000E+00 0.  1.
         23    2    1    2    0    0  0.15721384437E+03 -0.73679761792E+03 -0.89594139314E+02  0.76427878733E+03  0.92238995725E+02 0.  0.
    5000000    2    1    2    0    0 -0.15721384437E+03  0.73679761792E+03 -0.17762337240E+04  0.20205438481E+04  0.60000356422E+03 0.  0.
         23    2    4    4    0    0  0.12045395555E+03  0.36112183010E+03 -0.38237906161E+03  0.54747125295E+03  0.92697866565E+02 0.  0.
         23    2    4    4    0    0 -0.27766779992E+03  0.37567578781E+03 -0.13938546624E+04  0.14730725951E+04  0.94235587590E+02 0.  0.
          3    1    3    3  502    0  0.86982275225E+02 -0.23775541813E+03 -0.46469328907E+01  0.25320969381E+03  0.00000000000E+00 0. -1.
         -3    1    3    3    0  502  0.70231569144E+02 -0.49904219978E+03 -0.84947206423E+02  0.51106909352E+03  0.00000000000E+00 0.  1.
         15    1    5    5    0    0  0.13093026154E+03  0.27099021522E+03 -0.29845013767E+03  0.42385619322E+03  0.17770000000E+01 0.  1.
        -15    1    5    5    0    0 -0.10476305985E+02  0.90131614882E+02 -0.83928923940E+02  0.12361505973E+03  0.17770000000E+01 0. -1.
          4    1    6    6  503    0 -0.46604029285E+02  0.22109880255E+02 -0.20597372498E+03  0.21233454201E+03  0.00000000000E+00 0. -1.
         -4    1    6    6    0  503 -0.23106377064E+03  0.35356590756E+03 -0.11878809374E+04  0.12607380531E+04  0.00000000000E+00 0.  1.
<mgrwt>
<rscale>  0 0.81140337E+03</rscale>
<asrwt>0</asrwt>
<pdfrwt beam="1">  1        2 0.70691906E-01 0.81140337E+03</pdfrwt>
<pdfrwt beam="2">  1       -2 0.35774234E+00 0.81140337E+03</pdfrwt>
<totfact> 0.98581461E-01</totfact>
</mgrwt>
</event>
<event>
12    1  0.7781383E-008  0.1361188E+04  0.7818608E-02  0.8982402E-01
         -2   -1    0    0    0  501 -0.00000000000E+00  0.00000000000E+00  0.12925555915E+04  0.12925555915E+04  0.00000000000E+00 0.  1.
          2   -1    0    0  501    0  0.00000000000E+00 -0.00000000000E+00 -0.21076434245E+04  0.21076434245E+04  0.00000000000E+00 0. -1.
         23    2    1    2    0    0  0.97142105904E+03  0.88235621444E+03 -0.13274881409E+04  0.18688971634E+04  0.91326227323E+02 0.  0.
    5000000    2    1    2    0    0 -0.97142105904E+03 -0.88235621444E+03  0.51240030789E+03  0.15313018527E+04  0.60009992956E+03 0.  0.
         23    2    4    4    0    0 -0.19275791552E+03 -0.49448381957E+03  0.34895798266E+03  0.64151232025E+03  0.89980673268E+02 0.  0.
         23    2    4    4    0    0 -0.77866314352E+03 -0.38787239487E+03  0.16344232523E+03  0.88978953245E+03  0.90833543421E+02 0.  0.
          3    1    3    3  502    0  0.37836528616E+03  0.40331538271E+03 -0.54517851510E+03  0.77655856253E+03  0.00000000000E+00 0. -1.
         -3    1    3    3    0  502  0.59305577288E+03  0.47904083172E+03 -0.78230962582E+03  0.10923386008E+04  0.00000000000E+00 0.  1.
         15    1    5    5    0    0 -0.59112870481E+02 -0.20879095814E+03  0.18942534075E+03  0.28805053915E+03  0.17770000000E+01 0. -1.
        -15    1    5    5    0    0 -0.13364504504E+03 -0.28569286143E+03  0.15953264191E+03  0.35346178110E+03  0.17770000000E+01 0.  1.
          1    1    6    6  503    0 -0.24988869728E+03 -0.78366561701E+02  0.43975524213E+02  0.26555512751E+03  0.00000000000E+00 0. -1.
         -1    1    6    6    0  503 -0.52877444624E+03 -0.30950583317E+03  0.11946680102E+03  0.62423440494E+03  0.00000000000E+00 0.  1.
<mgrwt>
<rscale>  0 0.13611881E+04</rscale>
<asrwt>0</asrwt>
<pdfrwt beam="1">  1        2 0.32425283E+00 0.13611881E+04</pdfrwt>
<pdfrwt beam="2">  1       -2 0.19885471E+00 0.13611881E+04</pdfrwt>
<totfact> 0.75069392E-01</totfact>
</mgrwt>
</event>
<event>
12    1  0.7781383E-008  0.8049296E+03  0.7818608E-02  0.9552909E-01
          1   -1    0    0  501    0  0.00000000000E+00  0.00000000000E+00  0.71146728432E+03  0.71146728432E+03  0.00000000000E+00 0. -1.
         -1   -1    0    0    0  501 -0.00000000000E+00 -0.00000000000E+00 -0.11575696646E+04  0.11575696646E+04  0.00000000000E+00 0.  1.
         23    2    1    2    0    0  0.79277394922E+03 -0.17280621719E+02 -0.34514743663E+03  0.86958185166E+03  0.90866326352E+02 0.  0.
    5000000    2    1    2    0    0 -0.79277394922E+03  0.17280621719E+02 -0.10095494362E+03  0.99945509722E+03  0.59994119401E+03 0.  0.
         23    2    4    4    0    0 -0.35932986994E+03 -0.43352522160E+02 -0.32886508413E+03  0.49778129596E+03  0.92933193435E+02 0.  0.
         23    2    4    4    0    0 -0.43344407928E+03  0.60633143879E+02  0.22791014051E+03  0.50167380126E+03  0.90462272368E+02 0.  0.
          4    1    3    3  502    0  0.67581173861E+03 -0.32906453918E+02 -0.32202661704E+03  0.74933669524E+03  0.00000000000E+00 0. -1.
         -4    1    3    3    0  502  0.11696221061E+03  0.15625832199E+02 -0.23120819598E+02  0.12024515642E+03  0.00000000000E+00 0.  1.
         15    1    5    5    0    0 -0.27485876957E+03 -0.71567637996E+02 -0.26182119955E+03  0.38629362962E+03  0.17770000000E+01 0.  1.
        -15    1    5    5    0    0 -0.84471100367E+02  0.28215115835E+02 -0.67043884579E+02  0.11148766635E+03  0.17770000000E+01 0. -1.
          3    1    6    6  503    0 -0.56102065723E+02  0.29838503567E+02  0.85421676449E+01  0.64115105097E+02  0.00000000000E+00 0. -1.
         -3    1    6    6    0  503 -0.37734201356E+03  0.30794640312E+02  0.21936797287E+03  0.43755869616E+03  0.00000000000E+00 0.  1.
<mgrwt>
<rscale>  0 0.80492959E+03</rscale>
<asrwt>0</asrwt>
<pdfrwt beam="1">  1        1 0.10945651E+00 0.80492959E+03</pdfrwt>
<pdfrwt beam="2">  1       -1 0.17808764E+00 0.80492959E+03</pdfrwt>
<totfact> 0.58613380E+00</totfact>
</mgrwt>
</event>
<event>
12    1  0.7781383E-008  0.6867886E+03  0.7818608E-02  0.9740096E-01
         -1   -1    0    0    0  501 -0.00000000000E+00  0.00000000000E+00  0.27145235836E+03  0.27145235836E+03  0.00000000000E+00 0.  1.
          1   -1    0    0  501    0  0.00000000000E+00 -0.00000000000E+00 -0.19006636455E+04  0.19006636455E+04  0.00000000000E+00 0. -1.
         23    2    1    2    0    0 -0.26199717023E+03  0.50226097542E+03 -0.43017085213E+03  0.71651997334E+03  0.86286183887E+02 0.  0.
    5000000    2    1    2    0    0  0.26199717023E+03 -0.50226097542E+03 -0.11990404350E+04  0.14555960305E+04  0.60012768195E+03 0.  0.
         23    2    4    4    0    0  0.29843154819E+03 -0.59930153096E+03 -0.10642708579E+04  0.12607616949E+04  0.92864838764E+02 0.  0.
         23    2    4    4    0    0 -0.36434377953E+02  0.97040555535E+02 -0.13476957705E+03  0.19483433561E+03  0.95148547655E+02 0.  0.
          3    1    3    3  502    0 -0.18224372991E+02  0.42823580596E+02 -0.92987547356E+01  0.47460021762E+02  0.00000000000E+00 0. -1.
         -3    1    3    3    0  502 -0.24377279724E+03  0.45943739483E+03 -0.42087209740E+03  0.66905995158E+03  0.00000000000E+00 0.  1.
         15    1    5    5    0    0  0.23028157534E+03 -0.46184584898E+03 -0.88795121093E+03  0.10270305268E+04  0.17770000000E+01 0.  1.
        -15    1    5    5    0    0  0.68149972849E+02 -0.13745568198E+03 -0.17631964700E+03  0.23373116813E+03  0.17770000000E+01 0. -1.
          1    1    6    6  503    0  0.10154985640E+02 -0.13832902865E+02 -0.49293408260E+01  0.17854168589E+02  0.00000000000E+00 0. -1.
         -1    1    6    6    0  503 -0.46589363593E+02  0.11087345840E+03 -0.12984023622E+03  0.17698016702E+03  0.00000000000E+00 0.  1.
<mgrwt>
<rscale>  0 0.68678857E+03</rscale>
<asrwt>0</asrwt>
<pdfrwt beam="1">  1        1 0.29240978E+00 0.68678857E+03</pdfrwt>
<pdfrwt beam="2">  1       -1 0.41761903E-01 0.68678857E+03</pdfrwt>
<totfact> 0.20542584E+01</totfact>
</mgrwt>
</event>
<event>
12    1  0.7781383E-008  0.6634708E+03  0.7818608E-02  0.9781825E-01
          2   -1    0    0  501    0  0.00000000000E+00  0.00000000000E+00  0.88276102930E+03  0.88276102930E+03  0.00000000000E+00 0. -1.
         -2   -1    0    0    0  501 -0.00000000000E+00 -0.00000000000E+00 -0.50520479743E+03  0.50520479743E+03  0.00000000000E+00 0.  1.
         23    2    1    2    0    0 -0.41225812161E+03 -0.33065006111E+03  0.14762406391E+03  0.55635038381E+03  0.91905732031E+02 0.  0.
    5000000    2    1    2    0    0  0.41225812161E+03  0.33065006111E+03  0.22993216797E+03  0.83161544292E+03  0.59952416240E+03 0.  0.
         23    2    4    4    0    0  0.37088725143E+03 -0.66777725079E+02  0.74581087806E+02  0.39309972009E+03  0.83357263830E+02 0.  0.
         23    2    4    4    0    0  0.41370870173E+02  0.39742778619E+03  0.15535108016E+03  0.43851572283E+03  0.92204592781E+02 0.  0.
          4    1    3    3  502    0 -0.17059679711E+03 -0.18593474761E+03  0.43602242553E+02  0.25607841203E+03  0.00000000000E+00 0. -1.
         -4    1    3    3    0  502 -0.24166132450E+03 -0.14471531350E+03  0.10402182136E+03  0.30027197178E+03  0.00000000000E+00 0.  1.
         15    1    5    5    0    0  0.88036735512E+02  0.15573421968E+02  0.34230193918E+02  0.95748953916E+02  0.17770000000E+01 0.  1.
        -15    1    5    5    0    0  0.28285051592E+03 -0.82351147047E+02  0.40350893889E+02  0.29735076617E+03  0.17770000000E+01 0. -1.
          2    1    6    6  503    0 -0.19429080411E+02  0.25605594701E+02  0.21567297207E+02  0.38707673069E+02  0.00000000000E+00 0. -1.
         -2    1    6    6    0  503  0.60799950584E+02  0.37182219149E+03  0.13378378295E+03  0.39980804976E+03  0.00000000000E+00 0.  1.
<mgrwt>
<rscale>  0 0.66347084E+03</rscale>
<asrwt>0</asrwt>
<pdfrwt beam="1">  1        2 0.13580939E+00 0.66347084E+03</pdfrwt>
<pdfrwt beam="2">  1       -2 0.77723815E-01 0.66347084E+03</pdfrwt>
<totfact> 0.45423168E+01</totfact>
</mgrwt>
</event>
<event>
12    1  0.7781383E-008  0.1548741E+04  0.7818608E-02  0.8852673E-01
         -2   -1    0    0    0  501 -0.00000000000E+00  0.00000000000E+00  0.11750929632E+04  0.11750929632E+04  0.00000000000E+00 0.  1.
          2   -1    0    0  501    0  0.00000000000E+00 -0.00000000000E+00 -0.20636290816E+04  0.20636290816E+04  0.00000000000E+00 0. -1.
         23    2    1    2    0    0 -0.36240200010E+03 -0.14527678465E+04 -0.47523894032E+03  0.15735821733E+04  0.91865011985E+02 0.  0.
    5000000    2    1    2    0    0  0.36240200010E+03  0.14527678465E+04 -0.41329717808E+03  0.16651398715E+04  0.60000550738E+03 0.  0.
         23    2    4    4    0    0 -0.10243574471E+03  0.70601121546E+03 -0.96041913483E+02  0.72561541866E+03  0.91371595756E+02 0.  0.
         23    2    4    4    0    0  0.46483774481E+03  0.74675663102E+03 -0.31725526460E+03  0.93952445286E+03  0.91300052749E+02 0.  0.
          3    1    3    3  502    0 -0.17113795117E+03 -0.51760368407E+03 -0.19065922783E+03  0.57754022652E+03  0.00000000000E+00 0. -1.
         -3    1    3    3    0  502 -0.19126404893E+03 -0.93516416241E+03 -0.28457971249E+03  0.99604194682E+03  0.00000000000E+00 0.  1.
         15    1    5    5    0    0 -0.81998407270E+02  0.49377105429E+03 -0.26131909618E+02  0.50121814340E+03  0.17770000000E+01 0.  1.
        -15    1    5    5    0    0 -0.20437337438E+02  0.21224016117E+03 -0.69910003864E+02  0.22439727526E+03  0.17770000000E+01 0. -1.
          1    1    6    6  503    0  0.17901028901E+03  0.37089129873E+03 -0.16017882938E+03  0.44188493573E+03  0.00000000000E+00 0. -1.
         -1    1    6    6    0  503  0.28582745579E+03  0.37586533229E+03 -0.15707643522E+03  0.49763951712E+03  0.00000000000E+00 0.  1.
<mgrwt>
<rscale>  0 0.15487407E+04</rscale>
<asrwt>0</asrwt>
<pdfrwt beam="1">  1        2 0.31748140E+00 0.15487407E+04</pdfrwt>
<pdfrwt beam="2">  1       -2 0.18078353E+00 0.15487407E+04</pdfrwt>
<totfact> 0.10326285E+00</totfact>
</mgrwt>
</event>
<event>
12    1  0.7781383E-008  0.3225296E+03  0.7818608E-02  0.1074491E+00
         -1   -1    0    0    0  501 -0.00000000000E+00  0.00000000000E+00  0.68152974531E+03  0.68152974531E+03  0.00000000000E+00 0.  1.
          1   -1    0    0  501    0  0.00000000000E+00 -0.00000000000E+00 -0.27361078275E+03  0.27361078275E+03  0.00000000000E+00 0. -1.
         23    2    1    2    0    0  0.17843677661E+03 -0.87440019335E+02  0.35088268237E+02  0.22133810163E+03  0.90961136962E+02 0.  0.
    5000000    2    1    2    0    0 -0.17843677661E+03  0.87440019335E+02  0.37283069433E+03  0.73380242643E+03  0.59998152819E+03 0.  0.
         23    2    4    4    0    0 -0.25908177690E+03 -0.61926684561E+02 -0.33892051020E+02  0.28367410499E+03  0.91455154769E+02 0.  0.
         23    2    4    4    0    0  0.80645000289E+02  0.14936670390E+03  0.40672274535E+03  0.45012832144E+03  0.91531884483E+02 0.  0.
          1    1    3    3  502    0  0.26867402730E+02 -0.41887329058E+00 -0.24822046220E+02  0.36580961754E+02  0.00000000000E+00 0. -1.
         -1    1    3    3    0  502  0.15156937388E+03 -0.87021146044E+02  0.59910314457E+02  0.18475713988E+03  0.00000000000E+00 0.  1.
         15    1    5    5    0    0 -0.10672608571E+03 -0.45202632682E+02  0.26528405171E+02  0.11891446246E+03  0.17770000000E+01 0.  1.
        -15    1    5    5    0    0 -0.15235569119E+03 -0.16724051879E+02 -0.60420456191E+02  0.16475964253E+03  0.17770000000E+01 0. -1.
          4    1    6    6  503    0  0.26783819861E+02  0.90708913526E+02  0.12136328437E+03  0.15386528781E+03  0.00000000000E+00 0. -1.
         -4    1    6    6    0  503  0.53861180428E+02  0.58657790369E+02  0.28535946098E+03  0.29626303363E+03  0.00000000000E+00 0.  1.
<mgrwt>
<rscale>  0 0.32252958E+03</rscale>
<asrwt>0</asrwt>
<pdfrwt beam="1">  1        1 0.42093967E-01 0.32252958E+03</pdfrwt>
<pdfrwt beam="2">  1       -1 0.10485073E+00 0.32252958E+03</pdfrwt>
<totfact> 0.89362602E+01</totfact>
</mgrwt>
</event>
<event>
12    1  0.7781383E-008  0.5910242E+03  0.7818608E-02  0.9924205E-01
          2   -1    0    0  501    0  0.00000000000E+00  0.00000000000E+00  0.27794318146E+04  0.27794318146E+04  0.00000000000E+00 0. -1.
         -2   -1    0    0    0  501 -0.00000000000E+00 -0.00000000000E+00 -0.21753563102E+03  0.21753563102E+03  0.00000000000E+00 0.  1.
         23    2    1    2    0    0 -0.84892365195E+02  0.53265417290E+03  0.36414973025E+03  0.65599331809E+03  0.82431946270E+02 0.  0.
    5000000    2    1    2    0    0  0.84892365195E+02 -0.53265417290E+03  0.21977464534E+04  0.23409741276E+04  0.59928558389E+03 0.  0.
         23    2    4    4    0    0  0.17680399688E+03 -0.13950114705E+03  0.15714407662E+04  0.15901335060E+04  0.91532845857E+02 0.  0.
         23    2    4    4    0    0 -0.91911631681E+02 -0.39315302585E+03  0.62630568720E+03  0.75084062160E+03  0.92118268853E+02 0.  0.
          4    1    3    3  502    0 -0.50681102375E+02  0.40453240480E+03  0.23346074067E+03  0.46980736277E+03  0.00000000000E+00 0.  1.
         -4    1    3    3    0  502 -0.34211262820E+02  0.12812176809E+03  0.13068898958E+03  0.18618595533E+03  0.00000000000E+00 0. -1.
         15    1    5    5    0    0  0.14937861493E+03 -0.98331693333E+02  0.14093619289E+04  0.14206643857E+04  0.17770000000E+01 0. -1.
        -15    1    5    5    0    0  0.27425381944E+02 -0.41169453717E+02  0.16207883727E+03  0.16946912024E+03  0.17770000000E+01 0.  1.
          4    1    6    6  503    0 -0.10691047960E+03 -0.28846999796E+03  0.48504128681E+03  0.57437778533E+03  0.00000000000E+00 0. -1.
         -4    1    6    6    0  503  0.14998847923E+02 -0.10468302789E+03  0.14126440039E+03  0.17646283628E+03  0.00000000000E+00 0.  1.
<mgrwt>
<rscale>  0 0.59102417E+03</rscale>
<asrwt>0</asrwt>
<pdfrwt beam="1">  1        2 0.42760487E+00 0.59102417E+03</pdfrwt>
<pdfrwt beam="2">  1       -2 0.33467022E-01 0.59102417E+03</pdfrwt>
<totfact> 0.21505191E+01</totfact>
</mgrwt>
</event>
<event>
12    1  0.7781383E-008  0.6106729E+03  0.7818608E-02  0.9883507E-01
          1   -1    0    0  501    0  0.00000000000E+00  0.00000000000E+00  0.56621901033E+03  0.56621901033E+03  0.00000000000E+00 0. -1.
         -1   -1    0    0    0  501 -0.00000000000E+00 -0.00000000000E+00 -0.87909373221E+03  0.87909373221E+03  0.00000000000E+00 0.  1.
         23    2    1    2    0    0 -0.35084379415E+03 -0.36176491505E+03 -0.40964667164E+03  0.65571187932E+03  0.90456903799E+02 0.  0.
    5000000    2    1    2    0    0  0.35084379415E+03  0.36176491505E+03  0.96771949753E+02  0.78960086322E+03  0.60011623148E+03 0.  0.
         23    2    4    4    0    0  0.46771431728E+03  0.21697493385E+03 -0.62088515471E+02  0.52720692807E+03  0.90869999152E+02 0.  0.
         23    2    4    4    0    0 -0.11687052313E+03  0.14478998120E+03  0.15886046522E+03  0.26239393515E+03  0.94821263222E+02 0.  0.
          3    1    3    3  502    0 -0.18930086316E+03 -0.25116467642E+03 -0.27823531364E+03  0.41992070827E+03  0.00000000000E+00 0. -1.
         -3    1    3    3    0  502 -0.16154293098E+03 -0.11060023863E+03 -0.13141135800E+03  0.23579117105E+03  0.00000000000E+00 0.  1.
         15    1    5    5    0    0  0.31119211835E+03  0.97963645362E+02 -0.26007843888E+02  0.32728729888E+03  0.17770000000E+01 0. -1.
        -15    1    5    5    0    0  0.15652219893E+03  0.11901128849E+03 -0.36080671583E+02  0.19991962919E+03  0.17770000000E+01 0.  1.
          1    1    6    6  503    0 -0.50966825333E+02  0.41895980591E+02  0.53540971827E+01  0.66193329202E+02  0.00000000000E+00 0. -1.
         -1    1    6    6    0  503 -0.65903697796E+02  0.10289400061E+03  0.15350636804E+03  0.19620060595E+03  0.00000000000E+00 0.  1.
<mgrwt>
<rscale>  0 0.61067288E+03</rscale>
<asrwt>0</asrwt>
<pdfrwt beam="1">  1        1 0.87110617E-01 0.61067288E+03</pdfrwt>
<pdfrwt beam="2">  1       -1 0.13524519E+00 0.61067288E+03</pdfrwt>
<totfact> 0.17833090E+01</totfact>
</mgrwt>
</event>
<event>
12    1  0.7781383E-008  0.9411454E+03  0.7818608E-02  0.9375561E-01
         -1   -1    0    0    0  501 -0.00000000000E+00  0.00000000000E+00  0.16844925331E+04  0.16844925331E+04  0.00000000000E+00 0.  1.
          1   -1    0    0  501    0  0.00000000000E+00 -0.00000000000E+00 -0.69515758885E+03  0.69515758885E+03  0.00000000000E+00 0. -1.
         23    2    1    2    0    0  0.74977315948E+03  0.55603663830E+03  0.72704611258E+02  0.94023287495E+03  0.86112512675E+02 0.  0.
    5000000    2    1    2    0    0 -0.74977315948E+03 -0.55603663830E+03  0.91663033298E+03  0.14394172470E+04  0.60031184380E+03 0.  0.
         23    2    4    4    0    0 -0.44604934637E+03 -0.33502828224E+03  0.15688291868E+03  0.58641393580E+03  0.89805816186E+02 0.  0.
         23    2    4    4    0    0 -0.30372381311E+03 -0.22100835605E+03  0.75974741431E+03  0.85300331120E+03  0.96465886625E+02 0.  0.
          2    1    3    3  502    0  0.26005412834E+03  0.22640162178E+03 -0.48678273065E+01  0.34483262571E+03  0.00000000000E+00 0. -1.
         -2    1    3    3    0  502  0.48971903113E+03  0.32963501652E+03  0.77572438564E+02  0.59540024924E+03  0.00000000000E+00 0.  1.
         15    1    5    5    0    0 -0.32616254081E+03 -0.27191852377E+03  0.85140481466E+02  0.43309784796E+03  0.17770000000E+01 0. -1.
        -15    1    5    5    0    0 -0.11988680556E+03 -0.63109758477E+02  0.71742437214E+02  0.15331608783E+03  0.17770000000E+01 0.  1.
          3    1    6    6  503    0 -0.18433560766E+03 -0.76500433799E+02  0.41887650168E+03  0.46399294852E+03  0.00000000000E+00 0. -1.
         -3    1    6    6    0  503 -0.11938820545E+03 -0.14450792225E+03  0.34087091263E+03  0.38901036268E+03  0.00000000000E+00 0.  1.
<mgrwt>
<rscale>  0 0.94114536E+03</rscale>
<asrwt>0</asrwt>
<pdfrwt beam="1">  1        1 0.10694732E+00 0.94114536E+03</pdfrwt>
<pdfrwt beam="2">  1       -1 0.25915270E+00 0.94114536E+03</pdfrwt>
<totfact> 0.17017130E+00</totfact>
</mgrwt>
</event>
<event>
12    1  0.7781383E-008  0.1118891E+04  0.7818608E-02  0.9186972E-01
         -1   -1    0    0    0  501 -0.00000000000E+00  0.00000000000E+00  0.88565717063E+03  0.88565717063E+03  0.00000000000E+00 0.  1.
          1   -1    0    0  501    0  0.00000000000E+00 -0.00000000000E+00 -0.18529725862E+04  0.18529725862E+04  0.00000000000E+00 0. -1.
         23    2    1    2    0    0  0.84852190118E+03  0.61312610047E+03  0.18816613931E+03  0.10679447813E+04  0.95846377788E+02 0.  0.
    5000000    2    1    2    0    0 -0.84852190118E+03 -0.61312610047E+03 -0.11554815548E+04  0.16706849755E+04  0.60011468221E+03 0.  0.
         23    2    4    4    0    0  0.69816636300E+01  0.51159040481E+02 -0.35135163831E+02  0.10973787366E+03  0.90232644474E+02 0.  0.
         23    2    4    4    0    0 -0.85550356481E+03 -0.66428514095E+03 -0.11203463910E+04  0.15609471018E+04  0.90657161183E+02 0.  0.
          1    1    3    3  502    0  0.43845563717E+03  0.25957962459E+03  0.10333267945E+03  0.51990630878E+03  0.00000000000E+00 0. -1.
         -1    1    3    3    0  502  0.41006626401E+03  0.35354647588E+03  0.84833459864E+02  0.54803847255E+03  0.00000000000E+00 0.  1.
         15    1    5    5    0    0 -0.24065264987E+02  0.65110540113E+02 -0.18780116917E+02  0.71933093449E+02  0.17770000000E+01 0. -1.
        -15    1    5    5    0    0  0.31046928617E+02 -0.13951499632E+02 -0.16355046914E+02  0.37804780215E+02  0.17770000000E+01 0.  1.
          3    1    6    6  503    0 -0.77517170091E+03 -0.59473458070E+03 -0.96937292738E+03  0.13763299967E+04  0.00000000000E+00 0. -1.
         -3    1    6    6    0  503 -0.80331863903E+02 -0.69550560251E+02 -0.15097346364E+03  0.18461710514E+03  0.00000000000E+00 0.  1.
<mgrwt>
<rscale>  0 0.11188911E+04</rscale>
<asrwt>0</asrwt>
<pdfrwt beam="1">  1        1 0.28507270E+00 0.11188911E+04</pdfrwt>
<pdfrwt beam="2">  1       -1 0.13625495E+00 0.11188911E+04</pdfrwt>
<totfact> 0.16745541E+00</totfact>
</mgrwt>
</event>
<event>
12    1  0.7781383E-008  0.1250437E+04  0.7818608E-02  0.9069820E-01
          2   -1    0    0  501    0  0.00000000000E+00  0.00000000000E+00  0.40439023017E+04  0.40439023017E+04  0.00000000000E+00 0. -1.
         -2   -1    0    0    0  501 -0.00000000000E+00 -0.00000000000E+00 -0.42604339215E+03  0.42604339215E+03  0.00000000000E+00 0.  1.
         23    2    1    2    0    0 -0.93080509627E+02  0.11807563676E+04  0.10786154176E+04  0.16045097121E+04  0.90502023973E+02 0.  0.
    5000000    2    1    2    0    0  0.93080509627E+02 -0.11807563676E+04  0.25392434920E+04  0.28654359818E+04  0.60009688633E+03 0.  0.
         23    2    4    4    0    0 -0.23364449805E+03 -0.52514395929E+03  0.12701997312E+04  0.13972295968E+04  0.92072035095E+02 0.  0.
         23    2    4    4    0    0  0.32672500768E+03 -0.65561240831E+03  0.12690437608E+04  0.14682063850E+04  0.92634018455E+02 0.  0.
          1    1    3    3  502    0  0.28628037162E+01  0.52687829139E+03  0.48915777789E+03  0.71894663311E+03  0.00000000000E+00 0. -1.
         -1    1    3    3    0  502 -0.95943313343E+02  0.65387807622E+03  0.58945763967E+03  0.88556307900E+03  0.00000000000E+00 0.  1.
         15    1    5    5    0    0 -0.64103352666E+02 -0.96729928825E+02  0.18665064120E+03  0.21978975987E+03  0.17770000000E+01 0.  1.
        -15    1    5    5    0    0 -0.16954114538E+03 -0.42841403047E+03  0.10835490900E+04  0.11774398369E+04  0.17770000000E+01 0. -1.
          4    1    6    6  503    0  0.13867027303E+03 -0.36180700516E+03  0.61315282558E+03  0.72532071605E+03  0.00000000000E+00 0.  1.
         -4    1    6    6    0  503  0.18805473464E+03 -0.29380540315E+03  0.65589093527E+03  0.74288566893E+03  0.00000000000E+00 0. -1.
<mgrwt>
<rscale>  0 0.12504367E+04</rscale>
<asrwt>0</asrwt>
<pdfrwt beam="1">  1        2 0.62213879E+00 0.12504367E+04</pdfrwt>
<pdfrwt beam="2">  1       -2 0.65545140E-01 0.12504367E+04</pdfrwt>
<totfact> 0.68377730E-01</totfact>
</mgrwt>
</event>
<event>
12    1  0.7781383E-008  0.3861750E+03  0.7818608E-02  0.1048675E+00
          1   -1    0    0  501    0  0.00000000000E+00  0.00000000000E+00  0.33598281857E+03  0.33598281857E+03  0.00000000000E+00 0. -1.
         -1   -1    0    0    0  501 -0.00000000000E+00 -0.00000000000E+00 -0.84480197649E+03  0.84480197649E+03  0.00000000000E+00 0.  1.
         23    2    1    2    0    0  0.11543303161E+03 -0.32190217336E+03 -0.28593380353E+03  0.45506793914E+03  0.91558152160E+02 0.  0.
    5000000    2    1    2    0    0 -0.11543303161E+03  0.32190217336E+03 -0.22288535440E+03  0.72571685592E+03  0.60003439882E+03 0.  0.
         23    2    4    4    0    0 -0.17168732568E+03  0.30216693792E+03 -0.38710471416E+03  0.52628187267E+03  0.79631360684E+02 0.  0.
         23    2    4    4    0    0  0.56254294069E+02  0.19735235436E+02  0.16421935976E+03  0.19943498325E+03  0.96188821104E+02 0.  0.
          2    1    3    3  502    0  0.73170595766E+02 -0.11811873350E+03 -0.15958686031E+03  0.21159852852E+03  0.00000000000E+00 0. -1.
         -2    1    3    3    0  502  0.42262435843E+02 -0.20378343986E+03 -0.12634694322E+03  0.24346941062E+03  0.00000000000E+00 0.  1.
         15    1    5    5    0    0 -0.30933959297E+02  0.87987623375E+02 -0.60763236494E+02  0.11132861422E+03  0.17770000000E+01 0.  1.
        -15    1    5    5    0    0 -0.14075336638E+03  0.21417931455E+03 -0.32634147766E+03  0.41495325845E+03  0.17770000000E+01 0. -1.
          4    1    6    6  503    0  0.57240492350E+02  0.30524312357E+02  0.43216079630E+02  0.77947656462E+02  0.00000000000E+00 0. -1.
         -4    1    6    6    0  503 -0.98619828084E+00 -0.10789076921E+02  0.12100328013E+03  0.12148732679E+03  0.00000000000E+00 0.  1.
<mgrwt>
<rscale>  0 0.38617496E+03</rscale>
<asrwt>0</asrwt>
<pdfrwt beam="1">  1        1 0.51689665E-01 0.38617496E+03</pdfrwt>
<pdfrwt beam="2">  1       -1 0.12996953E+00 0.38617496E+03</pdfrwt>
<totfact> 0.40878344E+01</totfact>
</mgrwt>
</event>
<event>
12    1  0.7781383E-008  0.9707841E+03  0.7818608E-02  0.9341182E-01
          1   -1    0    0  501    0  0.00000000000E+00  0.00000000000E+00  0.15654811387E+04  0.15654811387E+04  0.00000000000E+00 0. -1.
         -1   -1    0    0    0  501 -0.00000000000E+00 -0.00000000000E+00 -0.70103699172E+03  0.70103699172E+03  0.00000000000E+00 0.  1.
         23    2    1    2    0    0 -0.89226075478E+03  0.31322056260E+03  0.57212249050E+03  0.11090877393E+04  0.92277266477E+02 0.  0.
    5000000    2    1    2    0    0  0.89226075478E+03 -0.31322056260E+03  0.29232165652E+03  0.11574303912E+04  0.59996398577E+03 0.  0.
         23    2    4    4    0    0  0.82681733629E+03 -0.20013177149E+03  0.41831340131E+03  0.95258770988E+03  0.93582101594E+02 0.  0.
         23    2    4    4    0    0  0.65443418483E+02 -0.11308879110E+03 -0.12599174479E+03  0.20484268131E+03  0.94945714144E+02 0.  0.
          1    1    3    3  502    0 -0.34061681693E+03  0.80989640734E+02  0.24130822450E+03  0.42521617690E+03  0.00000000000E+00 0. -1.
         -1    1    3    3    0  502 -0.55164393785E+03  0.23223092186E+03  0.33081426600E+03  0.68387156237E+03  0.00000000000E+00 0.  1.
         15    1    5    5    0    0  0.70869894127E+03 -0.14081060331E+03  0.37058326008E+03  0.81204490377E+03  0.17770000000E+01 0. -1.
        -15    1    5    5    0    0  0.11811839503E+03 -0.59321168178E+02  0.47730141225E+02  0.14054280611E+03  0.17770000000E+01 0.  1.
          3    1    6    6  503    0  0.14192877624E+02 -0.69389055048E+02 -0.11717379412E+03  0.13691594781E+03  0.00000000000E+00 0. -1.
         -3    1    6    6    0  503  0.51250540860E+02 -0.43699736056E+02 -0.88179506673E+01  0.67926733498E+02  0.00000000000E+00 0.  1.
<mgrwt>
<rscale>  0 0.97078412E+03</rscale>
<asrwt>0</asrwt>
<pdfrwt beam="1">  1        1 0.24084325E+00 0.97078412E+03</pdfrwt>
<pdfrwt beam="2">  1       -1 0.10785185E+00 0.97078412E+03</pdfrwt>
<totfact> 0.47589925E+00</totfact>
</mgrwt>
</event>
<event>
12    1  0.7781383E-008  0.6314760E+03  0.7818608E-02  0.9842173E-01
         -2   -1    0    0    0  501 -0.00000000000E+00  0.00000000000E+00  0.34827493779E+03  0.34827493779E+03  0.00000000000E+00 0.  1.
          2   -1    0    0  501    0  0.00000000000E+00 -0.00000000000E+00 -0.21563202283E+04  0.21563202283E+04  0.00000000000E+00 0. -1.
         23    2    1    2    0    0 -0.20613697125E+03  0.51636349932E+03 -0.49956277523E+02  0.56550113556E+03  0.90400167665E+02 0.  0.
    5000000    2    1    2    0    0  0.20613697125E+03 -0.51636349932E+03 -0.17580890130E+04  0.19390940305E+04  0.60007080189E+03 0.  0.
         23    2    4    4    0    0  0.14386153386E+03 -0.58717737713E+03 -0.10114264998E+04  0.11812421012E+04  0.82921192563E+02 0.  0.
         23    2    4    4    0    0  0.62275437386E+02  0.70813877811E+02 -0.74666251323E+03  0.75785192929E+03  0.89116792323E+02 0.  0.
          2    1    3    3  502    0 -0.90311095619E+02  0.22458038372E+03 -0.66834795191E+02  0.25111617350E+03  0.00000000000E+00 0. -1.
         -2    1    3    3    0  502 -0.11582587563E+03  0.29178311560E+03  0.16878517668E+02  0.31438496206E+03  0.00000000000E+00 0.  1.
         15    1    5    5    0    0 -0.91380937706E+01 -0.49766034513E+02 -0.68342071139E+02  0.85052685822E+02  0.17770000000E+01 0. -1.
        -15    1    5    5    0    0  0.15299962763E+03 -0.53741134262E+03 -0.94308442862E+03  0.10961894154E+04  0.17770000000E+01 0.  1.
          4    1    6    6  503    0  0.56460794734E+02  0.48271256205E+02 -0.25398937087E+03  0.26462905365E+03  0.00000000000E+00 0.  1.
         -4    1    6    6    0  503  0.58146426519E+01  0.22542621605E+02 -0.49267314236E+03  0.49322287564E+03  0.00000000000E+00 0. -1.
<mgrwt>
<rscale>  0 0.63147600E+03</rscale>
<asrwt>0</asrwt>
<pdfrwt beam="1">  1        2 0.33174157E+00 0.63147600E+03</pdfrwt>
<pdfrwt beam="2">  1       -2 0.53580760E-01 0.63147600E+03</pdfrwt>
<totfact> 0.18964740E+01</totfact>
</mgrwt>
</event>
<event>
12    1  0.7781383E-008  0.6908566E+03  0.7818608E-02  0.9732998E-01
          1   -1    0    0  501    0  0.00000000000E+00  0.00000000000E+00  0.62441595041E+03  0.62441595041E+03  0.00000000000E+00 0. -1.
         -1   -1    0    0    0  501 -0.00000000000E+00 -0.00000000000E+00 -0.22675911933E+04  0.22675911933E+04  0.00000000000E+00 0.  1.
         23    2    1    2    0    0  0.52381056295E+03 -0.41955048235E+03  0.30721391373E+03  0.74385320817E+03  0.92396392836E+02 0.  0.
    5000000    2    1    2    0    0 -0.52381056295E+03  0.41955048235E+03 -0.19503891566E+04  0.21481539355E+04  0.60012278362E+03 0.  0.
         23    2    4    4    0    0 -0.22165571505E+03  0.29489753710E+03 -0.36546406111E+03  0.52749723816E+03  0.92701364093E+02 0.  0.
         23    2    4    4    0    0 -0.30215484790E+03  0.12465294525E+03 -0.15849250955E+04  0.16206566974E+04  0.87776212623E+02 0.  0.
          3    1    3    3  502    0  0.30660237456E+03 -0.18947652001E+03  0.17941169276E+03  0.40261013800E+03  0.00000000000E+00 0. -1.
         -3    1    3    3    0  502  0.21720818839E+03 -0.23007396234E+03  0.12780222097E+03  0.34124307017E+03  0.00000000000E+00 0.  1.
         15    1    5    5    0    0 -0.15242948942E+03  0.22112673599E+03 -0.20533058742E+03  0.33807630866E+03  0.17770000000E+01 0. -1.
        -15    1    5    5    0    0 -0.69226225631E+02  0.73770801113E+02 -0.16013347368E+03  0.18942092951E+03  0.17770000000E+01 0.  1.
          3    1    6    6  503    0 -0.26620594894E+03  0.80350944843E+02 -0.13906211263E+04  0.14181498506E+04  0.00000000000E+00 0. -1.
         -3    1    6    6    0  503 -0.35948898953E+02  0.44302000407E+02 -0.19430396916E+03  0.20250684681E+03  0.00000000000E+00 0.  1.
<mgrwt>
<rscale>  0 0.69085664E+03</rscale>
<asrwt>0</asrwt>
<pdfrwt beam="1">  1        1 0.96063991E-01 0.69085664E+03</pdfrwt>
<pdfrwt beam="2">  1       -1 0.34886019E+00 0.69085664E+03</pdfrwt>
<totfact> 0.55187720E-01</totfact>
</mgrwt>
</event>
<event>
12    1  0.7781383E-008  0.4961566E+03  0.7818608E-02  0.1014787E+00
          2   -1    0    0  501    0  0.00000000000E+00  0.00000000000E+00  0.28497185378E+03  0.28497185378E+03  0.00000000000E+00 0. -1.
         -2   -1    0    0    0  501 -0.00000000000E+00 -0.00000000000E+00 -0.97977529766E+03  0.97977529766E+03  0.00000000000E+00 0.  1.
         23    2    1    2    0    0 -0.16648130194E+03 -0.30036977785E+03 -0.15527032511E+03  0.38796426076E+03  0.92029160744E+02 0.  0.
    5000000    2    1    2    0    0  0.16648130194E+03  0.30036977785E+03 -0.53953311876E+03  0.87678289068E+03  0.59976180588E+03 0.  0.
         23    2    4    4    0    0 -0.29202732574E+02  0.39970910731E+03 -0.18749183084E+03  0.45158184404E+03  0.90292885532E+02 0.  0.
         23    2    4    4    0    0  0.19568403452E+03 -0.99339329459E+02 -0.35204128793E+03  0.42520104664E+03  0.93286215049E+02 0.  0.
          2    1    3    3  502    0 -0.63082343088E+02 -0.18707956225E+03 -0.55840209403E+02  0.20517376442E+03  0.00000000000E+00 0. -1.
         -2    1    3    3    0  502 -0.10339895886E+03 -0.11329021560E+03 -0.99430115706E+02  0.18279049634E+03  0.00000000000E+00 0.  1.
         15    1    5    5    0    0 -0.11385603210E+02  0.17609502172E+02  0.73592512154E+01  0.22294457487E+02  0.17770000000E+01 0.  1.
        -15    1    5    5    0    0 -0.17817129364E+02  0.38209960513E+03 -0.19485108206E+03  0.42928738655E+03  0.17770000000E+01 0. -1.
          4    1    6    6  503    0  0.19309826424E+03 -0.65358249885E+02 -0.29121161432E+03  0.35547551927E+03  0.00000000000E+00 0. -1.
         -4    1    6    6    0  503  0.25857702732E+01 -0.33981079574E+02 -0.60829673601E+02  0.69725527372E+02  0.00000000000E+00 0.  1.
<mgrwt>
<rscale>  0 0.49615659E+03</rscale>
<asrwt>0</asrwt>
<pdfrwt beam="1">  1        2 0.43841824E-01 0.49615659E+03</pdfrwt>
<pdfrwt beam="2">  1       -2 0.15073466E+00 0.49615659E+03</pdfrwt>
<totfact> 0.35504992E+01</totfact>
</mgrwt>
</event>
<event>
12    1  0.7781383E-008  0.6326966E+03  0.7818608E-02  0.9839801E-01
          1   -1    0    0  501    0  0.00000000000E+00  0.00000000000E+00  0.12315949850E+04  0.12315949850E+04  0.00000000000E+00 0. -1.
         -1   -1    0    0    0  501 -0.00000000000E+00 -0.00000000000E+00 -0.60704370808E+03  0.60704370808E+03  0.00000000000E+00 0.  1.
         23    2    1    2    0    0 -0.49592922001E+03 -0.19457045748E+03 -0.29694466502E+03  0.61648301183E+03  0.89842727080E+02 0.  0.
    5000000    2    1    2    0    0  0.49592922001E+03  0.19457045748E+03  0.92149594197E+03  0.12221556813E+04  0.60058828165E+03 0.  0.
         23    2    4    4    0    0  0.35308678289E+03 -0.12144791065E+03  0.70458026803E+03  0.80254345309E+03  0.90679483655E+02 0.  0.
         23    2    4    4    0    0  0.14284243712E+03  0.31601836812E+03  0.21691567394E+03  0.41961222820E+03  0.93543795175E+02 0.  0.
          3    1    3    3  502    0 -0.23195025008E+03 -0.92865816801E+02 -0.88392233909E+02  0.26502483933E+03  0.00000000000E+00 0. -1.
         -3    1    3    3    0  502 -0.26397896992E+03 -0.10170464067E+03 -0.20855243111E+03  0.35145817250E+03  0.00000000000E+00 0.  1.
         15    1    5    5    0    0  0.22178209607E+03 -0.79382634303E+02  0.53063756145E+03  0.58057581771E+03  0.17770000000E+01 0.  1.
        -15    1    5    5    0    0  0.13130468681E+03 -0.42065276345E+02  0.17394270658E+03  0.22196763538E+03  0.17770000000E+01 0. -1.
          3    1    6    6  503    0 -0.65697114654E+01  0.77252020779E+02  0.46039329057E+02  0.90170148293E+02  0.00000000000E+00 0. -1.
         -3    1    6    6    0  503  0.14941214859E+03  0.23876634734E+03  0.17087634489E+03  0.32944207990E+03  0.00000000000E+00 0.  1.
<mgrwt>
<rscale>  0 0.63269664E+03</rscale>
<asrwt>0</asrwt>
<pdfrwt beam="1">  1        1 0.18947615E+00 0.63269664E+03</pdfrwt>
<pdfrwt beam="2">  1       -1 0.93391340E-01 0.63269664E+03</pdfrwt>
<totfact> 0.11870860E+01</totfact>
</mgrwt>
</event>
<event>
12    1  0.7781383E-008  0.6590817E+03  0.7818608E-02  0.9789886E-01
         -2   -1    0    0    0  501 -0.00000000000E+00  0.00000000000E+00  0.28116150951E+03  0.28116150951E+03  0.00000000000E+00 0.  1.
          2   -1    0    0  501    0  0.00000000000E+00 -0.00000000000E+00 -0.21157718064E+04  0.21157718064E+04  0.00000000000E+00 0. -1.
         23    2    1    2    0    0 -0.48773153465E+03  0.43055132043E+03 -0.74605958066E+03  0.99409176262E+03  0.91416875945E+02 0.  0.
    5000000    2    1    2    0    0  0.48773153465E+03 -0.43055132043E+03 -0.10885507163E+04  0.14028415533E+04  0.59980436181E+03 0.  0.
         23    2    4    4    0    0  0.25681086130E+03 -0.27019811280E+03 -0.13841681960E+03  0.40782008673E+03  0.90549260370E+02 0.  0.
         23    2    4    4    0    0  0.23092067335E+03 -0.16035320763E+03 -0.95013389666E+03  0.99502146660E+03  0.90971362643E+02 0.  0.
          1    1    3    3  502    0 -0.13438263095E+03  0.99677145884E+02 -0.13807106078E+03  0.21692819720E+03  0.00000000000E+00 0. -1.
         -1    1    3    3    0  502 -0.35334890369E+03  0.33087417455E+03 -0.60798851988E+03  0.77716356543E+03  0.00000000000E+00 0.  1.
         15    1    5    5    0    0  0.12543979797E+03 -0.13607278916E+03 -0.11673943833E+03  0.21882001978E+03  0.17770000000E+01 0.  1.
        -15    1    5    5    0    0  0.13137106333E+03 -0.13412532364E+03 -0.21677381270E+02  0.18900006696E+03  0.17770000000E+01 0. -1.
          2    1    6    6  503    0  0.63373696038E+02 -0.94781048929E+02 -0.32004335394E+03  0.33974611254E+03  0.00000000000E+00 0. -1.
         -2    1    6    6    0  503  0.16754697731E+03 -0.65572158702E+02 -0.63009054272E+03  0.65527535405E+03  0.00000000000E+00 0.  1.
<mgrwt>
<rscale>  0 0.65908169E+03</rscale>
<asrwt>0</asrwt>
<pdfrwt beam="1">  1        2 0.32550335E+00 0.65908169E+03</pdfrwt>
<pdfrwt beam="2">  1       -2 0.43255618E-01 0.65908169E+03</pdfrwt>
<totfact> 0.30590420E+01</totfact>
</mgrwt>
</event>
<event>
12    1  0.7781383E-008  0.1278027E+04  0.7818608E-02  0.9047174E-01
         -2   -1    0    0    0  501 -0.00000000000E+00  0.00000000000E+00  0.11389233364E+04  0.11389233364E+04  0.00000000000E+00 0.  1.
          2   -1    0    0  501    0  0.00000000000E+00 -0.00000000000E+00 -0.23328148111E+04  0.23328148111E+04  0.00000000000E+00 0. -1.
         23    2    1    2    0    0  0.36328478168E+03 -0.11577224984E+04 -0.16440440922E+04  0.20452281154E+04  0.88203464516E+02 0.  0.
    5000000    2    1    2    0    0 -0.36328478168E+03  0.11577224984E+04  0.45015261749E+03  0.14265100321E+04  0.59999689746E+03 0.  0.
         23    2    4    4    0    0 -0.48912155264E+03  0.10418082473E+04  0.34035787451E+03  0.12036883781E+04  0.91749175778E+02 0.  0.
         23    2    4    4    0    0  0.12583677095E+03  0.11591425103E+03  0.10979474298E+03  0.22282165409E+03  0.91233751596E+02 0.  0.
          4    1    3    3  502    0  0.31492582398E+03 -0.88395685426E+03 -0.12525924396E+04  0.15651024933E+04  0.00000000000E+00 0. -1.
         -4    1    3    3    0  502  0.48358957705E+02 -0.27376564410E+03 -0.39145165258E+03  0.48012562209E+03  0.00000000000E+00 0.  1.
         15    1    5    5    0    0 -0.21411175625E+03  0.36742733128E+03  0.10138773593E+03  0.43718339248E+03  0.17770000000E+01 0. -1.
        -15    1    5    5    0    0 -0.27500979639E+03  0.67438091606E+03  0.23897013858E+03  0.76650498558E+03  0.17770000000E+01 0.  1.
          4    1    6    6  503    0  0.81606677637E+02  0.25578842623E+02  0.19637399600E+02  0.87747105297E+02  0.00000000000E+00 0.  1.
         -4    1    6    6    0  503  0.44230093316E+02  0.90335408405E+02  0.90157343379E+02  0.13507454879E+03  0.00000000000E+00 0. -1.
<mgrwt>
<rscale>  0 0.12780271E+04</rscale>
<asrwt>0</asrwt>
<pdfrwt beam="1">  1        2 0.35889458E+00 0.12780271E+04</pdfrwt>
<pdfrwt beam="2">  1       -2 0.17521898E+00 0.12780271E+04</pdfrwt>
<totfact> 0.82046679E-01</totfact>
</mgrwt>
</event>
<event>
12    1  0.7781383E-008  0.6156576E+03  0.7818608E-02  0.9873444E-01
          1   -1    0    0  501    0  0.00000000000E+00  0.00000000000E+00  0.15204501633E+04  0.15204501633E+04  0.00000000000E+00 0. -1.
         -1   -1    0    0    0  501 -0.00000000000E+00 -0.00000000000E+00 -0.10457660756E+04  0.10457660756E+04  0.00000000000E+00 0.  1.
         23    2    1    2    0    0  0.53511413703E+03 -0.64600047520E+02 -0.85277562051E+03  0.10129343317E+04  0.91046117955E+02 0.  0.
    5000000    2    1    2    0    0 -0.53511413703E+03  0.64600047520E+02  0.13274597081E+04  0.15532819072E+04  0.60001258380E+03 0.  0.
         23    2    4    4    0    0  0.11964921607E+01 -0.88182790730E+02  0.18163776729E+02  0.12733229331E+03  0.90033071474E+02 0.  0.
         23    2    4    4    0    0 -0.53631062919E+03  0.15278283825E+03  0.13092959314E+04  0.14259496139E+04  0.90026544483E+02 0.  0.
          1    1    3    3  502    0  0.46720574535E+02 -0.30497481973E+02 -0.67899601023E+02  0.87882104610E+02  0.00000000000E+00 0. -1.
         -1    1    3    3    0  502  0.48839356250E+03 -0.34102565547E+02 -0.78487601949E+03  0.92505222709E+03  0.00000000000E+00 0.  1.
         15    1    5    5    0    0 -0.37472097888E+02 -0.73786397293E+02  0.22572560229E+02  0.85797836510E+02  0.17770000000E+01 0. -1.
        -15    1    5    5    0    0  0.38668590049E+02 -0.14396393438E+02 -0.44087834996E+01  0.41534456796E+02  0.17770000000E+01 0.  1.
          4    1    6    6  503    0 -0.33369951669E+03  0.60133327314E+02  0.71683064354E+03  0.79298017378E+03  0.00000000000E+00 0. -1.
         -4    1    6    6    0  503 -0.20261111250E+03  0.92649510936E+02  0.59246528786E+03  0.63296944011E+03  0.00000000000E+00 0.  1.
<mgrwt>
<rscale>  0 0.61565758E+03</rscale>
<asrwt>0</asrwt>
<pdfrwt beam="1">  1        1 0.23391541E+00 0.61565758E+03</pdfrwt>
<pdfrwt beam="2">  1       -1 0.16088709E+00 0.61565758E+03</pdfrwt>
<totfact> 0.19642491E+00</totfact>
</mgrwt>
</event>
<event>
12    1  0.7781383E-008  0.1130846E+04  0.7818608E-02  0.9175638E-01
          2   -1    0    0  501    0  0.00000000000E+00  0.00000000000E+00  0.32022715157E+04  0.32022715157E+04  0.00000000000E+00 0. -1.
         -2   -1    0    0    0  501 -0.00000000000E+00 -0.00000000000E+00 -0.45686306353E+03  0.45686306353E+03  0.00000000000E+00 0.  1.
         23    2    1    2    0    0 -0.10719777888E+04  0.32960028447E+03  0.15338181570E+04  0.19022843695E+04  0.91186382027E+02 0.  0.
    5000000    2    1    2    0    0  0.10719777888E+04 -0.32960028447E+03  0.12115902951E+04  0.17568502097E+04  0.60066537190E+03 0.  0.
         23    2    4    4    0    0  0.83492945049E+03 -0.27118465360E+03  0.53602377037E+03  0.10326165330E+04  0.91253044276E+02 0.  0.
         23    2    4    4    0    0  0.23704833832E+03 -0.58415630871E+02  0.67556652473E+03  0.72423367677E+03  0.92303784300E+02 0.  0.
          1    1    3    3  502    0 -0.72787668043E+03  0.20440856202E+03  0.10970780279E+04  0.13323541276E+04  0.00000000000E+00 0. -1.
         -1    1    3    3    0  502 -0.34410110838E+03  0.12519172245E+03  0.43674012915E+03  0.56993024184E+03  0.00000000000E+00 0.  1.
         15    1    5    5    0    0  0.43237190711E+03 -0.12310381359E+03  0.22452817402E+03  0.50250977467E+03  0.17770000000E+01 0. -1.
        -15    1    5    5    0    0  0.40255754338E+03 -0.14808084001E+03  0.31149559635E+03  0.53010675829E+03  0.17770000000E+01 0.  1.
          3    1    6    6  503    0  0.94990018791E+02  0.22352648694E+02  0.24986326322E+03  0.26824316371E+03  0.00000000000E+00 0. -1.
         -3    1    6    6    0  503  0.14205831953E+03 -0.80768279565E+02  0.42570326151E+03  0.45599051305E+03  0.00000000000E+00 0.  1.
<mgrwt>
<rscale>  0 0.11308459E+04</rscale>
<asrwt>0</asrwt>
<pdfrwt beam="1">  1        2 0.49265714E+00 0.11308459E+04</pdfrwt>
<pdfrwt beam="2">  1       -2 0.70286627E-01 0.11308459E+04</pdfrwt>
<totfact> 0.23997928E+00</totfact>
</mgrwt>
</event>
<event>
12    1  0.7781383E-008  0.7307101E+03  0.7818608E-02  0.9666109E-01
         -2   -1    0    0    0  501 -0.00000000000E+00  0.00000000000E+00  0.36679149031E+03  0.36679149031E+03  0.00000000000E+00 0.  1.
          2   -1    0    0  501    0  0.00000000000E+00 -0.00000000000E+00 -0.21432370574E+04  0.21432370574E+04  0.00000000000E+00 0. -1.
         23    2    1    2    0    0  0.41340336130E+03 -0.49212919278E+03 -0.14195383617E+04  0.15610471737E+04  0.93196763440E+02 0.  0.
    5000000    2    1    2    0    0 -0.41340336130E+03  0.49212919278E+03 -0.35690720540E+03  0.94898137400E+03  0.60007450656E+03 0.  0.
         23    2    4    4    0    0 -0.43986637653E+03  0.14055306006E+03 -0.52051444128E+02  0.47264267741E+03  0.86279521208E+02 0.  0.
         23    2    4    4    0    0  0.26463015231E+02  0.35157613271E+03 -0.30485576127E+03  0.47633869659E+03  0.98262151519E+02 0.  0.
          3    1    3    3  502    0  0.53184898967E+02 -0.85974052231E+02 -0.30510968300E+03  0.32142198089E+03  0.00000000000E+00 0. -1.
         -3    1    3    3    0  502  0.36021846233E+03 -0.40615514054E+03 -0.11144286787E+04  0.12396251928E+04  0.00000000000E+00 0.  1.
         15    1    5    5    0    0 -0.88393778750E+02  0.78031209756E+01 -0.38338264162E+02  0.96681585871E+02  0.17770000000E+01 0. -1.
        -15    1    5    5    0    0 -0.35147259778E+03  0.13274993908E+03 -0.13713179966E+02  0.37596109154E+03  0.17770000000E+01 0.  1.
          4    1    6    6  503    0  0.51508593045E+01  0.18137947831E+03 -0.21937322515E+03  0.28469221700E+03  0.00000000000E+00 0. -1.
         -4    1    6    6    0  503  0.21312155927E+02  0.17019665440E+03 -0.85482536114E+02  0.19164647959E+03  0.00000000000E+00 0.  1.
<mgrwt>
<rscale>  0 0.73071006E+03</rscale>
<asrwt>0</asrwt>
<pdfrwt beam="1">  1        2 0.32972878E+00 0.73071006E+03</pdfrwt>
<pdfrwt beam="2">  1       -2 0.56429460E-01 0.73071006E+03</pdfrwt>
<totfact> 0.17043226E+01</totfact>
</mgrwt>
</event>
<event>
12    1  0.7781383E-008  0.4728791E+03  0.7818608E-02  0.1021111E+00
          2   -1    0    0  501    0  0.00000000000E+00  0.00000000000E+00  0.20188010680E+04  0.20188010680E+04  0.00000000000E+00 0. -1.
         -2   -1    0    0    0  501 -0.00000000000E+00 -0.00000000000E+00 -0.13179334364E+03  0.13179334364E+03  0.00000000000E+00 0.  1.
         23    2    1    2    0    0 -0.27943665242E+03  0.16686265781E+03  0.48628806243E+03  0.59232519777E+03  0.91897067246E+02 0.  0.
    5000000    2    1    2    0    0  0.27943665242E+03 -0.16686265781E+03  0.14007196619E+04  0.15582692139E+04  0.60021611300E+03 0.  0.
         23    2    4    4    0    0 -0.82630777521E+02 -0.21602721685E+03  0.26973420966E+03  0.36574041652E+03  0.86682781443E+02 0.  0.
         23    2    4    4    0    0  0.36206742994E+03  0.49164559041E+02  0.11309854523E+04  0.11925287974E+04  0.97400521525E+02 0.  0.
          2    1    3    3  502    0 -0.13217795767E+03  0.12299331139E+03  0.30744827248E+03  0.35654285492E+03  0.00000000000E+00 0. -1.
         -2    1    3    3    0  502 -0.14725869474E+03  0.43869346423E+02  0.17883978995E+03  0.23578234286E+03  0.00000000000E+00 0.  1.
         15    1    5    5    0    0 -0.94449994141E+02 -0.16745426865E+03  0.24012719263E+03  0.30761332846E+03  0.17770000000E+01 0. -1.
        -15    1    5    5    0    0  0.11819216619E+02 -0.48572948205E+02  0.29607017031E+02  0.58127088051E+02  0.17770000000E+01 0.  1.
          2    1    6    6  503    0  0.17261951836E+03  0.50367370631E+02  0.67984037416E+03  0.70321924354E+03  0.00000000000E+00 0. -1.
         -2    1    6    6    0  503  0.18944791158E+03 -0.12028115898E+01  0.45114507811E+03  0.48930955382E+03  0.00000000000E+00 0.  1.
<mgrwt>
<rscale>  0 0.47287909E+03</rscale>
<asrwt>0</asrwt>
<pdfrwt beam="1">  1        2 0.31058476E+00 0.47287909E+03</pdfrwt>
<pdfrwt beam="2">  1       -2 0.20275901E-01 0.47287909E+03</pdfrwt>
<totfact> 0.14411745E+02</totfact>
</mgrwt>
</event>
<event>
12    1  0.7781383E-008  0.1622651E+04  0.7818608E-02  0.8806752E-01
          2   -1    0    0  501    0  0.00000000000E+00  0.00000000000E+00  0.24737818692E+04  0.24737818692E+04  0.00000000000E+00 0. -1.
         -2   -1    0    0    0  501 -0.00000000000E+00 -0.00000000000E+00 -0.11153210681E+04  0.11153210681E+04  0.00000000000E+00 0.  1.
         23    2    1    2    0    0 -0.11731770025E+04  0.10935864771E+04  0.73604989275E+03  0.17670968968E+04  0.92662485049E+02 0.  0.
    5000000    2    1    2    0    0  0.11731770025E+04 -0.10935864771E+04  0.62241090836E+03  0.18220060405E+04  0.60002917502E+03 0.  0.
         23    2    4    4    0    0  0.11370291173E+04 -0.10178267132E+04  0.69356442545E+03  0.16787332865E+04  0.91144956936E+02 0.  0.
         23    2    4    4    0    0  0.36147885182E+02 -0.75759763863E+02 -0.71153517084E+02  0.14327275405E+03  0.91749918995E+02 0.  0.
          1    1    3    3  502    0 -0.67265027343E+03  0.57944475018E+03  0.44021301854E+03  0.99096019625E+03  0.00000000000E+00 0. -1.
         -1    1    3    3    0  502 -0.50052672904E+03  0.51414172690E+03  0.29583687421E+03  0.77613670057E+03  0.00000000000E+00 0.  1.
         15    1    5    5    0    0  0.17577643980E+03 -0.19074807552E+03  0.14387798178E+03  0.29662470644E+03  0.17770000000E+01 0. -1.
        -15    1    5    5    0    0  0.96125267749E+03 -0.82707863770E+03  0.54968644367E+03  0.13821085800E+04  0.17770000000E+01 0.  1.
          1    1    6    6  503    0 -0.22558314134E+02 -0.32360780500E+02  0.25532054444E+01  0.39529944462E+02  0.00000000000E+00 0. -1.
         -1    1    6    6    0  503  0.58706199317E+02 -0.43398983363E+02 -0.73706722528E+02  0.10374280959E+03  0.00000000000E+00 0.  1.
<mgrwt>
<rscale>  0 0.16226512E+04</rscale>
<asrwt>0</asrwt>
<pdfrwt beam="1">  1        2 0.38058182E+00 0.16226512E+04</pdfrwt>
<pdfrwt beam="2">  1       -2 0.17158786E+00 0.16226512E+04</pdfrwt>
<totfact> 0.69666978E-01</totfact>
</mgrwt>
</event>
<event>
12    1  0.7781383E-008  0.1297764E+04  0.7818608E-02  0.9031341E-01
         -2   -1    0    0    0  501 -0.00000000000E+00  0.00000000000E+00  0.11785938271E+04  0.11785938271E+04  0.00000000000E+00 0.  1.
          2   -1    0    0  501    0  0.00000000000E+00 -0.00000000000E+00 -0.18066558901E+04  0.18066558901E+04  0.00000000000E+00 0. -1.
         23    2    1    2    0    0  0.11627476854E+04  0.40197538802E+03 -0.97599324183E+03  0.15729723055E+04  0.90070378507E+02 0.  0.
    5000000    2    1    2    0    0 -0.11627476854E+04 -0.40197538802E+03  0.34793117887E+03  0.14122774117E+04  0.59992081961E+03 0.  0.
         23    2    4    4    0    0 -0.87042569073E+02  0.11296639998E+03  0.17608394695E+02  0.17131554075E+03  0.93279915230E+02 0.  0.
         23    2    4    4    0    0 -0.10757051164E+04 -0.51494178800E+03  0.33032278417E+03  0.12409618710E+04  0.92556366583E+02 0.  0.
          3    1    3    3  502    0  0.93239892857E+03  0.29149512012E+03 -0.74511722338E+03  0.12286321026E+04  0.00000000000E+00 0. -1.
         -3    1    3    3    0  502  0.23034875687E+03  0.11048026790E+03 -0.23087601845E+03  0.34434020283E+03  0.00000000000E+00 0.  1.
         15    1    5    5    0    0 -0.10556560392E+03  0.10160695150E+03  0.60868581739E+01  0.14665700425E+03  0.17770000000E+01 0. -1.
        -15    1    5    5    0    0  0.18523034847E+02  0.11359448474E+02  0.11521536521E+02  0.24658536501E+02  0.17770000000E+01 0.  1.
          4    1    6    6  503    0 -0.84352503573E+03 -0.36993730792E+03  0.22946728942E+03  0.94923302440E+03  0.00000000000E+00 0. -1.
         -4    1    6    6    0  503 -0.23218008064E+03 -0.14500448008E+03  0.10085549475E+03  0.29172884655E+03  0.00000000000E+00 0.  1.
<mgrwt>
<rscale>  0 0.12977636E+04</rscale>
<asrwt>0</asrwt>
<pdfrwt beam="1">  1        2 0.27794706E+00 0.12977636E+04</pdfrwt>
<pdfrwt beam="2">  1       -2 0.18132213E+00 0.12977636E+04</pdfrwt>
<totfact> 0.14589569E+00</totfact>
</mgrwt>
</event>
<event>
12    1  0.7781383E-008  0.5805235E+03  0.7818608E-02  0.9946658E-01
          1   -1    0    0  501    0  0.00000000000E+00  0.00000000000E+00  0.18638748311E+04  0.18638748311E+04  0.00000000000E+00 0. -1.
         -1   -1    0    0    0  501 -0.00000000000E+00 -0.00000000000E+00 -0.19469450302E+03  0.19469450302E+03  0.00000000000E+00 0.  1.
         23    2    1    2    0    0  0.31922102253E+03  0.30761983260E+03  0.73382518283E+03  0.86217082546E+03  0.91143352398E+02 0.  0.
    5000000    2    1    2    0    0 -0.31922102253E+03 -0.30761983260E+03  0.93535514522E+03  0.11963985086E+04  0.59995676604E+03 0.  0.
         23    2    4    4    0    0  0.13046601958E+03  0.35050250140E+02  0.29011036942E+03  0.33374527193E+03  0.94720524661E+02 0.  0.
         23    2    4    4    0    0 -0.44968704211E+03 -0.34267008274E+03  0.64524477580E+03  0.86265323670E+03  0.90490688099E+02 0.  0.
          2    1    3    3  502    0  0.18995184368E+03  0.15504391686E+03  0.48033263035E+03  0.53929560989E+03  0.00000000000E+00 0. -1.
         -2    1    3    3    0  502  0.12926917884E+03  0.15257591574E+03  0.25349255248E+03  0.32287521557E+03  0.00000000000E+00 0.  1.
         15    1    5    5    0    0  0.44577064756E+02  0.36633668054E+02  0.20435221913E+03  0.21234907000E+03  0.17770000000E+01 0. -1.
        -15    1    5    5    0    0  0.85888954824E+02 -0.15834179142E+01  0.85758150282E+02  0.12139620192E+03  0.17770000000E+01 0.  1.
          3    1    6    6  503    0 -0.17984194512E+03 -0.19240166976E+03  0.31169433953E+03  0.40806235926E+03  0.00000000000E+00 0. -1.
         -3    1    6    6    0  503 -0.26984509699E+03 -0.15026841299E+03  0.33355043628E+03  0.45459087744E+03  0.00000000000E+00 0.  1.
<mgrwt>
<rscale>  0 0.58052352E+03</rscale>
<asrwt>0</asrwt>
<pdfrwt beam="1">  1        1 0.28674996E+00 0.58052352E+03</pdfrwt>
<pdfrwt beam="2">  1       -1 0.29953002E-01 0.58052352E+03</pdfrwt>
<totfact> 0.39915523E+01</totfact>
</mgrwt>
</event>
<event>
12    1  0.7781383E-008  0.9435036E+03  0.7818608E-02  0.9372776E-01
          2   -1    0    0  501    0  0.00000000000E+00  0.00000000000E+00  0.13685322430E+04  0.13685322430E+04  0.00000000000E+00 0. -1.
         -2   -1    0    0    0  501 -0.00000000000E+00 -0.00000000000E+00 -0.80156170751E+03  0.80156170751E+03  0.00000000000E+00 0.  1.
         23    2    1    2    0    0 -0.89467017691E+03  0.24953154380E+03  0.50925846622E+03  0.10628074107E+04  0.86687311758E+02 0.  0.
    5000000    2    1    2    0    0  0.89467017691E+03 -0.24953154380E+03  0.57712069224E+02  0.11072865398E+04  0.60004339960E+03 0.  0.
         23    2    4    4    0    0  0.76540272142E+03 -0.21793692126E+03  0.26482437591E+03  0.84364885754E+03  0.90959425850E+02 0.  0.
         23    2    4    4    0    0  0.12926745549E+03 -0.31594622533E+02 -0.20711230668E+03  0.26363768222E+03  0.94345241982E+02 0.  0.
          3    1    3    3  502    0 -0.69449573863E+03  0.15892358515E+03  0.40624817202E+03  0.82013329048E+03  0.00000000000E+00 0. -1.
         -3    1    3    3    0  502 -0.20017443828E+03  0.90607958648E+02  0.10301029420E+03  0.24267412022E+03  0.00000000000E+00 0.  1.
         15    1    5    5    0    0  0.19945513097E+03 -0.61059899509E+02  0.28266815579E+02  0.21050613101E+03  0.17770000000E+01 0. -1.
        -15    1    5    5    0    0  0.56594759045E+03 -0.15687702175E+03  0.23655756033E+03  0.63314272654E+03  0.17770000000E+01 0.  1.
          1    1    6    6  503    0  0.12537603660E+03 -0.53776818258E+02 -0.15278621937E+03  0.20482852723E+03  0.00000000000E+00 0. -1.
         -1    1    6    6    0  503  0.38914188829E+01  0.22182195724E+02 -0.54326087313E+02  0.58809154992E+02  0.00000000000E+00 0.  1.
<mgrwt>
<rscale>  0 0.94350356E+03</rscale>
<asrwt>0</asrwt>
<pdfrwt beam="1">  1        2 0.21054342E+00 0.94350356E+03</pdfrwt>
<pdfrwt beam="2">  1       -2 0.12331719E+00 0.94350356E+03</pdfrwt>
<totfact> 0.74758380E+00</totfact>
</mgrwt>
</event>
<event>
12    1  0.7781383E-008  0.1072383E+04  0.7818608E-02  0.9232535E-01
          1   -1    0    0  501    0  0.00000000000E+00  0.00000000000E+00  0.88780569804E+03  0.88780569804E+03  0.00000000000E+00 0. -1.
         -1   -1    0    0    0  501 -0.00000000000E+00 -0.00000000000E+00 -0.15380438781E+04  0.15380438781E+04  0.00000000000E+00 0.  1.
         23    2    1    2    0    0 -0.10057352223E+04 -0.10003571005E+03  0.11801189176E+03  0.10216702080E+04  0.91502605382E+02 0.  0.
    5000000    2    1    2    0    0  0.10057352223E+04  0.10003571005E+03 -0.76825007178E+03  0.14041793681E+04  0.60000087031E+03 0.  0.
         23    2    4    4    0    0  0.24729425698E+03 -0.18473071482E+03 -0.67509631707E+02  0.32924235779E+03  0.92536983150E+02 0.  0.
         23    2    4    4    0    0  0.75844096528E+03  0.28476642488E+03 -0.70074044007E+03  0.10749370103E+04  0.90154296615E+02 0.  0.
          3    1    3    3  502    0 -0.33833699891E+03 -0.64064786813E+02  0.71448922358E+02  0.35168333803E+03  0.00000000000E+00 0. -1.
         -3    1    3    3    0  502 -0.66739822336E+03 -0.35970923240E+02  0.46562969398E+02  0.66998687000E+03  0.00000000000E+00 0.  1.
         15    1    5    5    0    0  0.11880469440E+02 -0.48226926500E+02 -0.16519674827E+02  0.52374033444E+02  0.17770000000E+01 0. -1.
        -15    1    5    5    0    0  0.23541378754E+03 -0.13650378832E+03 -0.50989956879E+02  0.27686832434E+03  0.17770000000E+01 0.  1.
          3    1    6    6  503    0  0.44257390696E+02  0.19474983304E+02 -0.74050973124E+02  0.88439460800E+02  0.00000000000E+00 0. -1.
         -3    1    6    6    0  503  0.71418357458E+03  0.26529144157E+03 -0.62668946695E+03  0.98649754949E+03  0.00000000000E+00 0.  1.
<mgrwt>
<rscale>  0 0.10723831E+04</rscale>
<asrwt>0</asrwt>
<pdfrwt beam="1">  1        1 0.13658549E+00 0.10723831E+04</pdfrwt>
<pdfrwt beam="2">  1       -1 0.23662213E+00 0.10723831E+04</pdfrwt>
<totfact> 0.15849355E+00</totfact>
</mgrwt>
</event>
<event>
12    1  0.7781383E-008  0.4475996E+03  0.7818608E-02  0.1028440E+00
          4   -1    0    0  501    0  0.00000000000E+00  0.00000000000E+00  0.52932752805E+03  0.52932752805E+03  0.00000000000E+00 0. -1.
         -4   -1    0    0    0  501 -0.00000000000E+00 -0.00000000000E+00 -0.55238344252E+03  0.55238344252E+03  0.00000000000E+00 0.  1.
         23    2    1    2    0    0 -0.13578461737E+02 -0.34110960051E+03 -0.14267017652E+03  0.38089741825E+03  0.90487180187E+02 0.  0.
    5000000    2    1    2    0    0  0.13578461737E+02  0.34110960051E+03  0.11961426204E+03  0.70081355232E+03  0.60024322507E+03 0.  0.
         23    2    4    4    0    0  0.21645565393E+03  0.20873857243E+03 -0.13088636359E+03  0.34041790777E+03  0.91259355772E+02 0.  0.
         23    2    4    4    0    0 -0.20287719220E+03  0.13237102808E+03  0.25050062564E+03  0.36039564455E+03  0.91941356180E+02 0.  0.
          2    1    3    3  502    0 -0.15908569608E+02 -0.33416199262E+03 -0.11732990535E+03  0.35451886634E+03  0.00000000000E+00 0. -1.
         -2    1    3    3    0  502  0.23301078707E+01 -0.69476078883E+01 -0.25340271169E+02  0.26378551912E+02  0.00000000000E+00 0.  1.
         15    1    5    5    0    0  0.67314045418E+02  0.11955244577E+03 -0.33637098662E+02  0.14127483900E+03  0.17770000000E+01 0.  1.
        -15    1    5    5    0    0  0.14914160852E+03  0.89186126661E+02 -0.97249264932E+02  0.19914306877E+03  0.17770000000E+01 0. -1.
          4    1    6    6  503    0 -0.12744482845E+03  0.79246595832E+02  0.89225616288E+02  0.17459501096E+03  0.00000000000E+00 0.  1.
         -4    1    6    6    0  503 -0.75432363747E+02  0.53124432251E+02  0.16127500935E+03  0.18580063359E+03  0.00000000000E+00 0. -1.
<mgrwt>
<rscale>  0 0.44759962E+03</rscale>
<asrwt>0</asrwt>
<pdfrwt beam="1">  1        4 0.81435004E-01 0.44759962E+03</pdfrwt>
<pdfrwt beam="2">  1       -4 0.84982068E-01 0.44759962E+03</pdfrwt>
<totfact> 0.31236029E+00</totfact>
</mgrwt>
</event>
<event>
12    1  0.7781383E-008  0.5604848E+03  0.7818608E-02  0.9990958E-01
         -1   -1    0    0    0  501 -0.00000000000E+00  0.00000000000E+00  0.13328412379E+03  0.13328412379E+03  0.00000000000E+00 0.  1.
          1   -1    0    0  501    0  0.00000000000E+00 -0.00000000000E+00 -0.27080583906E+04  0.27080583906E+04  0.00000000000E+00 0. -1.
         23    2    1    2    0    0 -0.37398232267E+03 -0.19262625121E+03 -0.62939986905E+03  0.76251184558E+03  0.91172743513E+02 0.  0.
    5000000    2    1    2    0    0  0.37398232267E+03  0.19262625121E+03 -0.19453743978E+04  0.20788306688E+04  0.60007312202E+03 0.  0.
         23    2    4    4    0    0  0.50288625278E+03  0.18150021096E+03 -0.17209120243E+04  0.18043176947E+04  0.90483358873E+02 0.  0.
         23    2    4    4    0    0 -0.12890393011E+03  0.11126040249E+02 -0.22446237342E+03  0.27451297406E+03  0.90741412127E+02 0.  0.
          1    1    3    3  502    0 -0.17141820635E+03 -0.44170357086E+02 -0.29943371982E+03  0.34784446881E+03  0.00000000000E+00 0. -1.
         -1    1    3    3    0  502 -0.20256411632E+03 -0.14845589412E+03 -0.32996614923E+03  0.41466737677E+03  0.00000000000E+00 0.  1.
         15    1    5    5    0    0  0.41823903006E+03  0.17570282710E+03 -0.15190410866E+04  0.15853341447E+04  0.17770000000E+01 0.  1.
        -15    1    5    5    0    0  0.84647222722E+02  0.57973838563E+01 -0.20187093773E+03  0.21898355007E+03  0.17770000000E+01 0. -1.
          4    1    6    6  503    0 -0.35630944948E+02 -0.35258999899E+02 -0.46885120545E+02  0.68636548867E+02  0.00000000000E+00 0. -1.
         -4    1    6    6    0  503 -0.93272985163E+02  0.46385040148E+02 -0.17757725288E+03  0.20587642519E+03  0.00000000000E+00 0.  1.
<mgrwt>
<rscale>  0 0.56048484E+03</rscale>
<asrwt>0</asrwt>
<pdfrwt beam="1">  1        1 0.41662437E+00 0.56048484E+03</pdfrwt>
<pdfrwt beam="2">  1       -1 0.20505250E-01 0.56048484E+03</pdfrwt>
<totfact> 0.20635459E+01</totfact>
</mgrwt>
</event>
<event>
12    1  0.7781383E-008  0.6111752E+03  0.7818608E-02  0.9882489E-01
          1   -1    0    0  501    0  0.00000000000E+00  0.00000000000E+00  0.12993142997E+04  0.12993142997E+04  0.00000000000E+00 0. -1.
         -1   -1    0    0    0  501 -0.00000000000E+00 -0.00000000000E+00 -0.36171085133E+03  0.36171085133E+03  0.00000000000E+00 0.  1.
         23    2    1    2    0    0  0.30685535252E+03 -0.39205573309E+03  0.66404738767E+03  0.83491240818E+03  0.90839919904E+02 0.  0.
    5000000    2    1    2    0    0 -0.30685535252E+03  0.39205573309E+03  0.27355606073E+03  0.82611274289E+03  0.59980116738E+03 0.  0.
         23    2    4    4    0    0  0.11210275742E+03  0.23762109118E+03 -0.28839184660E+02  0.27924497980E+03  0.90084676711E+02 0.  0.
         23    2    4    4    0    0 -0.41895810993E+03  0.15443464191E+03  0.30239524539E+03  0.54686776309E+03  0.90804787194E+02 0.  0.
          1    1    3    3  502    0  0.20810129190E+03 -0.24129907755E+03  0.35395049902E+03  0.47624820028E+03  0.00000000000E+00 0. -1.
         -1    1    3    3    0  502  0.98754060620E+02 -0.15075665554E+03  0.31009688865E+03  0.35866420790E+03  0.00000000000E+00 0.  1.
         15    1    5    5    0    0  0.69917752002E+02  0.57807901547E+02 -0.26491497416E+02  0.94526201080E+02  0.17770000000E+01 0.  1.
        -15    1    5    5    0    0  0.42185005413E+02  0.17981318963E+03 -0.23476872446E+01  0.18471877872E+03  0.17770000000E+01 0. -1.
          1    1    6    6  503    0 -0.19985317602E+03  0.93389491078E+02  0.19871518558E+03  0.29690169078E+03  0.00000000000E+00 0. -1.
         -1    1    6    6    0  503 -0.21910493391E+03  0.61045150831E+02  0.10368005981E+03  0.24996607231E+03  0.00000000000E+00 0.  1.
<mgrwt>
<rscale>  0 0.61117520E+03</rscale>
<asrwt>0</asrwt>
<pdfrwt beam="1">  1        1 0.19989450E+00 0.61117520E+03</pdfrwt>
<pdfrwt beam="2">  1       -1 0.55647824E-01 0.61117520E+03</pdfrwt>
<totfact> 0.31009001E+01</totfact>
</mgrwt>
</event>
<event>
12    1  0.7781383E-008  0.1304713E+04  0.7818608E-02  0.9025836E-01
         -1   -1    0    0    0  501 -0.00000000000E+00  0.00000000000E+00  0.17822088059E+04  0.17822088059E+04  0.00000000000E+00 0.  1.
          1   -1    0    0  501    0  0.00000000000E+00 -0.00000000000E+00 -0.11136945384E+04  0.11136945384E+04  0.00000000000E+00 0. -1.
         23    2    1    2    0    0 -0.17554543905E+03 -0.12699358558E+04 -0.92436430446E+02  0.12886459133E+04  0.92252464421E+02 0.  0.
    5000000    2    1    2    0    0  0.17554543905E+03  0.12699358558E+04  0.76095069796E+03  0.16072574309E+04  0.60056407262E+03 0.  0.
         23    2    4    4    0    0 -0.79083074369E+02  0.43557594602E+03  0.53753053393E+03  0.70225827883E+03  0.90813423441E+02 0.  0.
         23    2    4    4    0    0  0.25462851342E+03  0.83435990981E+03  0.22342016403E+03  0.90499915206E+03  0.90081943707E+02 0.  0.
          4    1    3    3  502    0 -0.91998386188E+02 -0.93927014856E+03 -0.51940072745E+02  0.94519304176E+03  0.00000000000E+00 0.  1.
         -4    1    3    3    0  502 -0.83547052863E+02 -0.33066570727E+03 -0.40496357700E+02  0.34345287158E+03  0.00000000000E+00 0. -1.
         15    1    5    5    0    0 -0.60650454740E+01 -0.31408106281E+01  0.10379347616E+02  0.12551416412E+02  0.17770000000E+01 0. -1.
        -15    1    5    5    0    0 -0.73018028895E+02  0.43871675665E+03  0.52715118632E+03  0.68970686242E+03  0.17770000000E+01 0.  1.
          1    1    6    6  503    0  0.14311046959E+03  0.51531084508E+03  0.93577893245E+02  0.54293894286E+03  0.00000000000E+00 0. -1.
         -1    1    6    6    0  503  0.11151804383E+03  0.31904906473E+03  0.12984227078E+03  0.36206020920E+03  0.00000000000E+00 0.  1.
<mgrwt>
<rscale>  0 0.13047128E+04</rscale>
<asrwt>0</asrwt>
<pdfrwt beam="1">  1        1 0.17133762E+00 0.13047128E+04</pdfrwt>
<pdfrwt beam="2">  1       -1 0.27418597E+00 0.13047128E+04</pdfrwt>
<totfact> 0.58311145E-01</totfact>
</mgrwt>
</event>
<event>
12    1  0.7781383E-008  0.7064862E+03  0.7818608E-02  0.9706204E-01
         -1   -1    0    0    0  501 -0.00000000000E+00  0.00000000000E+00  0.40158770842E+03  0.40158770842E+03  0.00000000000E+00 0.  1.
          1   -1    0    0  501    0  0.00000000000E+00 -0.00000000000E+00 -0.19848347157E+04  0.19848347157E+04  0.00000000000E+00 0. -1.
         23    2    1    2    0    0 -0.16242302088E+03  0.57548547427E+03 -0.13930552385E+04  0.15182134589E+04  0.82489032685E+02 0.  0.
    5000000    2    1    2    0    0  0.16242302088E+03 -0.57548547427E+03 -0.19019176874E+03  0.86820896517E+03  0.60004093984E+03 0.  0.
         23    2    4    4    0    0  0.30002556799E+02 -0.63887732177E+03 -0.24019243446E+03  0.68908279703E+03  0.89879418689E+02 0.  0.
         23    2    4    4    0    0  0.13242046409E+03  0.63391847497E+02  0.50000665717E+02  0.17912616814E+03  0.89623723994E+02 0.  0.
          2    1    3    3  502    0 -0.28979825433E+02  0.21457979668E+03 -0.56692742547E+03  0.60686985851E+03  0.00000000000E+00 0. -1.
         -2    1    3    3    0  502 -0.13344319545E+03  0.36090567759E+03 -0.82612781303E+03  0.91134360040E+03  0.00000000000E+00 0.  1.
         15    1    5    5    0    0  0.15710098013E+02 -0.14006778090E+03 -0.92764920558E+02  0.16874323288E+03  0.17770000000E+01 0. -1.
        -15    1    5    5    0    0  0.14292458786E+02 -0.49880954087E+03 -0.14742751390E+03  0.52033956415E+03  0.17770000000E+01 0.  1.
          3    1    6    6  503    0  0.62646928241E+02  0.78359085385E+02  0.23802955014E+02  0.10310850861E+03  0.00000000000E+00 0. -1.
         -3    1    6    6    0  503  0.69773535844E+02 -0.14967237888E+02  0.26197710703E+02  0.76017659529E+02  0.00000000000E+00 0.  1.
<mgrwt>
<rscale>  0 0.70648620E+03</rscale>
<asrwt>0</asrwt>
<pdfrwt beam="1">  1        1 0.30535918E+00 0.70648620E+03</pdfrwt>
<pdfrwt beam="2">  1       -1 0.61782725E-01 0.70648620E+03</pdfrwt>
<totfact> 0.85481162E+00</totfact>
</mgrwt>
</event>
<event>
12    1  0.7781383E-008  0.5168092E+03  0.7818608E-02  0.1009482E+00
         -2   -1    0    0    0  501 -0.00000000000E+00  0.00000000000E+00  0.20092895175E+03  0.20092895175E+03  0.00000000000E+00 0.  1.
          2   -1    0    0  501    0  0.00000000000E+00 -0.00000000000E+00 -0.25154308553E+04  0.25154308553E+04  0.00000000000E+00 0. -1.
         23    2    1    2    0    0 -0.26176577170E+03 -0.23948000130E+03 -0.18332540679E+04  0.18693311287E+04  0.87786109262E+02 0.  0.
    5000000    2    1    2    0    0  0.26176577170E+03  0.23948000130E+03 -0.48124783560E+03  0.84702867831E+03  0.59998842685E+03 0.  0.
         23    2    4    4    0    0 -0.69314014759E+02  0.31900432988E+03 -0.29046280272E+03  0.44638958569E+03  0.91251451097E+02 0.  0.
         23    2    4    4    0    0  0.33107978646E+03 -0.79524328581E+02 -0.19078503288E+03  0.40063909262E+03  0.90414655468E+02 0.  0.
          4    1    3    3  502    0 -0.16047699426E+03 -0.11132190307E+03 -0.81620601505E+03  0.83924828912E+03  0.00000000000E+00 0.  1.
         -4    1    3    3    0  502 -0.10128877744E+03 -0.12815809822E+03 -0.10170480529E+04  0.10300828396E+04  0.00000000000E+00 0. -1.
         15    1    5    5    0    0 -0.59731449284E+02  0.31395254503E+03 -0.25376652757E+03  0.40808657759E+03  0.17770000000E+01 0. -1.
        -15    1    5    5    0    0 -0.95825654750E+01  0.50517848531E+01 -0.36696275144E+02  0.38303008103E+02  0.17770000000E+01 0.  1.
          3    1    6    6  503    0  0.30008709825E+03 -0.87127290793E+02 -0.14413781348E+03  0.34412082269E+03  0.00000000000E+00 0. -1.
         -3    1    6    6    0  503  0.30992688209E+02  0.76029622120E+01 -0.46647219409E+02  0.56518269926E+02  0.00000000000E+00 0.  1.
<mgrwt>
<rscale>  0 0.51680916E+03</rscale>
<asrwt>0</asrwt>
<pdfrwt beam="1">  1        2 0.38698937E+00 0.51680916E+03</pdfrwt>
<pdfrwt beam="2">  1       -2 0.30912146E-01 0.51680916E+03</pdfrwt>
<totfact> 0.35877858E+01</totfact>
</mgrwt>
</event>
<event>
12    1  0.7781383E-008  0.5165269E+03  0.7818608E-02  0.1009553E+00
         -1   -1    0    0    0  501 -0.00000000000E+00  0.00000000000E+00  0.70532521033E+03  0.70532521033E+03  0.00000000000E+00 0.  1.
          1   -1    0    0  501    0  0.00000000000E+00 -0.00000000000E+00 -0.56096381259E+03  0.56096381259E+03  0.00000000000E+00 0. -1.
         23    2    1    2    0    0  0.45498567453E+03 -0.14192938683E+03 -0.41685122121E+01  0.48567039540E+03  0.93286877943E+02 0.  0.
    5000000    2    1    2    0    0 -0.45498567453E+03  0.14192938683E+03  0.14852990995E+03  0.78061862753E+03  0.60012364777E+03 0.  0.
         23    2    4    4    0    0 -0.31288426942E+03 -0.38099225865E+02 -0.17650152107E+03  0.37238749961E+03  0.90396603179E+02 0.  0.
         23    2    4    4    0    0 -0.14210140511E+03  0.18002861270E+03  0.32503143102E+03  0.40823112792E+03  0.91673943540E+02 0.  0.
          4    1    3    3  502    0  0.15988602757E+03 -0.17929741862E+02  0.30334478815E+02  0.16372293077E+03  0.00000000000E+00 0. -1.
         -4    1    3    3    0  502  0.29509964696E+03 -0.12399964497E+03 -0.34502991027E+02  0.32194746463E+03  0.00000000000E+00 0.  1.
         15    1    5    5    0    0 -0.35378443439E+02  0.13061125827E+02  0.31184719807E+01  0.37882843934E+02  0.17770000000E+01 0. -1.
        -15    1    5    5    0    0 -0.27750582598E+03 -0.51160351693E+02 -0.17961999305E+03  0.33450465568E+03  0.17770000000E+01 0.  1.
          2    1    6    6  503    0 -0.16931582049E+02  0.44653608401E+02  0.19931044169E+02  0.51748137508E+02  0.00000000000E+00 0. -1.
         -2    1    6    6    0  503 -0.12516982306E+03  0.13537500430E+03  0.30510038685E+03  0.35648299041E+03  0.00000000000E+00 0.  1.
<mgrwt>
<rscale>  0 0.51652692E+03</rscale>
<asrwt>0</asrwt>
<pdfrwt beam="1">  1        1 0.86302125E-01 0.51652692E+03</pdfrwt>
<pdfrwt beam="2">  1       -1 0.10851157E+00 0.51652692E+03</pdfrwt>
<totfact> 0.31295447E+01</totfact>
</mgrwt>
</event>
<event>
12    1  0.7781383E-008  0.4764852E+03  0.7818608E-02  0.1020106E+00
         -2   -1    0    0    0  501 -0.00000000000E+00  0.00000000000E+00  0.26896421760E+03  0.26896421760E+03  0.00000000000E+00 0.  1.
          2   -1    0    0  501    0  0.00000000000E+00 -0.00000000000E+00 -0.12366953947E+04  0.12366953947E+04  0.00000000000E+00 0. -1.
         23    2    1    2    0    0  0.18970096822E+03 -0.23101035301E+03  0.18447328686E+02  0.31307374559E+03  0.91228425951E+02 0.  0.
    5000000    2    1    2    0    0 -0.18970096822E+03  0.23101035301E+03 -0.98617850580E+03  0.11925858667E+04  0.60030056112E+03 0.  0.
         23    2    4    4    0    0  0.20346413061E+03  0.63232046069E+02 -0.30532904004E+03  0.38326576204E+03  0.90944365235E+02 0.  0.
         23    2    4    4    0    0 -0.39316509883E+03  0.16777830694E+03 -0.68084946576E+03  0.80932010468E+03  0.93352458998E+02 0.  0.
          1    1    3    3  502    0  0.17626339621E+03 -0.16709518274E+03  0.35783641222E+02  0.24549960065E+03  0.00000000000E+00 0. -1.
         -1    1    3    3    0  502  0.13437572004E+02 -0.63915170275E+02 -0.17336312536E+02  0.67574144944E+02  0.00000000000E+00 0.  1.
         15    1    5    5    0    0  0.17191526739E+03  0.62865996123E+02 -0.29967533670E+03  0.35116300743E+03  0.17770000000E+01 0.  1.
        -15    1    5    5    0    0  0.31548863227E+02  0.36604994564E+00 -0.56537033344E+01  0.32102754615E+02  0.17770000000E+01 0. -1.
          1    1    6    6  503    0 -0.32943477140E+03  0.12054853621E+03 -0.48986099455E+03  0.60251391035E+03  0.00000000000E+00 0. -1.
         -1    1    6    6    0  503 -0.63730327432E+02  0.47229770737E+02 -0.19098847121E+03  0.20680619433E+03  0.00000000000E+00 0.  1.
<mgrwt>
<rscale>  0 0.47648517E+03</rscale>
<asrwt>0</asrwt>
<pdfrwt beam="1">  1        2 0.19026083E+00 0.47648517E+03</pdfrwt>
<pdfrwt beam="2">  1       -2 0.41379110E-01 0.47648517E+03</pdfrwt>
<totfact> 0.10402421E+02</totfact>
</mgrwt>
</event>
<event>
12    1  0.7781383E-008  0.9750629E+03  0.7818608E-02  0.9336326E-01
         -2   -1    0    0    0  501 -0.00000000000E+00  0.00000000000E+00  0.17132707545E+04  0.17132707545E+04  0.00000000000E+00 0.  1.
          2   -1    0    0  501    0  0.00000000000E+00 -0.00000000000E+00 -0.56902012313E+03  0.56902012313E+03  0.00000000000E+00 0. -1.
         23    2    1    2    0    0 -0.38550939152E+03  0.80621633688E+03  0.50440973926E+03  0.10300835997E+04  0.89670310076E+02 0.  0.
    5000000    2    1    2    0    0  0.38550939152E+03 -0.80621633688E+03  0.63984089210E+03  0.12522072779E+04  0.60002035539E+03 0.  0.
         23    2    4    4    0    0 -0.13950541662E+03 -0.11588490340E+03  0.13936362498E+03  0.24663166061E+03  0.92270710138E+02 0.  0.
         23    2    4    4    0    0  0.52501480814E+03 -0.69033143348E+03  0.50047726712E+03  0.10055756173E+04  0.92232263351E+02 0.  0.
          2    1    3    3  502    0 -0.26634537000E+03  0.64135562104E+03  0.37982221706E+03  0.79154393772E+03  0.00000000000E+00 0.  1.
         -2    1    3    3    0  502 -0.11916402152E+03  0.16486071584E+03  0.12458752220E+03  0.23853966198E+03  0.00000000000E+00 0. -1.
         15    1    5    5    0    0 -0.68167232455E+02 -0.64620720962E+02  0.12689455977E+03  0.15788602277E+03  0.17770000000E+01 0.  1.
        -15    1    5    5    0    0 -0.71338184162E+02 -0.51264182436E+02  0.12469065210E+02  0.88745637845E+02  0.17770000000E+01 0. -1.
          1    1    6    6  503    0  0.29899655701E+03 -0.45228452282E+03  0.28063935334E+03  0.61050690194E+03  0.00000000000E+00 0. -1.
         -1    1    6    6    0  503  0.22601825113E+03 -0.23804691067E+03  0.21983791379E+03  0.39506871537E+03  0.00000000000E+00 0.  1.
<mgrwt>
<rscale>  0 0.97506292E+03</rscale>
<asrwt>0</asrwt>
<pdfrwt beam="1">  1        2 0.87541558E-01 0.97506292E+03</pdfrwt>
<pdfrwt beam="2">  1       -2 0.26358011E+00 0.97506292E+03</pdfrwt>
<totfact> 0.28151812E+00</totfact>
</mgrwt>
</event>
<event>
12    1  0.7781383E-008  0.1325619E+04  0.7818608E-02  0.9009492E-01
          2   -1    0    0  501    0  0.00000000000E+00  0.00000000000E+00  0.76154317967E+03  0.76154317967E+03  0.00000000000E+00 0. -1.
         -2   -1    0    0    0  501 -0.00000000000E+00 -0.00000000000E+00 -0.30467424848E+04  0.30467424848E+04  0.00000000000E+00 0.  1.
         23    2    1    2    0    0  0.47049629177E+03  0.11767276676E+04 -0.18851896004E+03  0.12859624170E+04  0.11002352226E+03 0.  0.
    5000000    2    1    2    0    0 -0.47049629177E+03 -0.11767276676E+04 -0.20966803451E+04  0.25223232475E+04  0.59999277593E+03 0.  0.
         23    2    4    4    0    0 -0.34256721280E+03 -0.21388492708E+03 -0.48034396492E+03  0.63447042180E+03  0.93398791154E+02 0.  0.
         23    2    4    4    0    0 -0.12792907897E+03 -0.96284274047E+03 -0.16163363802E+04  0.18878528257E+04  0.89515392294E+02 0.  0.
          1    1    3    3  502    0  0.17681964910E+03  0.36237315614E+03 -0.10232002337E+03  0.41599144195E+03  0.00000000000E+00 0. -1.
         -1    1    3    3    0  502  0.29367664267E+03  0.81435451142E+03 -0.86198936672E+02  0.86997097503E+03  0.00000000000E+00 0.  1.
         15    1    5    5    0    0 -0.96436991307E+02 -0.34816903985E+02 -0.17813977955E+03  0.20554622079E+03  0.17770000000E+01 0. -1.
        -15    1    5    5    0    0 -0.24613022149E+03 -0.17906802309E+03 -0.30220418537E+03  0.42892420101E+03  0.17770000000E+01 0.  1.
          4    1    6    6  503    0 -0.11453077911E+03 -0.52433302173E+03 -0.89364948399E+03  0.10424259289E+04  0.00000000000E+00 0. -1.
         -4    1    6    6    0  503 -0.13398299865E+02 -0.43850971875E+03 -0.72268689619E+03  0.84542689678E+03  0.00000000000E+00 0.  1.
<mgrwt>
<rscale>  0 0.13256195E+04</rscale>
<asrwt>0</asrwt>
<pdfrwt beam="1">  1        2 0.11716049E+00 0.13256195E+04</pdfrwt>
<pdfrwt beam="2">  1       -2 0.46872962E+00 0.13256195E+04</pdfrwt>
<totfact> 0.93230163E-02</totfact>
</mgrwt>
</event>
<event>
12    1  0.7781383E-008  0.7878044E+03  0.7818608E-02  0.9577839E-01
          2   -1    0    0  501    0  0.00000000000E+00  0.00000000000E+00  0.14345815489E+04  0.14345815489E+04  0.00000000000E+00 0. -1.
         -2   -1    0    0    0  501 -0.00000000000E+00 -0.00000000000E+00 -0.59326843771E+03  0.59326843771E+03  0.00000000000E+00 0.  1.
         23    2    1    2    0    0 -0.22150664569E+03 -0.72473707821E+03  0.72780720666E+03  0.10546412899E+04  0.90861948203E+02 0.  0.
    5000000    2    1    2    0    0  0.22150664569E+03  0.72473707821E+03  0.11350590456E+03  0.97320869676E+03  0.59995212348E+03 0.  0.
         23    2    4    4    0    0 -0.33207109045E+02  0.11940400675E+03  0.25293486272E+03  0.29505699759E+03  0.87878086729E+02 0.  0.
         23    2    4    4    0    0  0.25471375473E+03  0.60533307145E+03 -0.13942895816E+03  0.67815169917E+03  0.95614164561E+02 0.  0.
          2    1    3    3  502    0 -0.17812432940E+02 -0.19328654410E+03  0.18352073077E+03  0.26712699137E+03  0.00000000000E+00 0. -1.
         -2    1    3    3    0  502 -0.20369421275E+03 -0.53145053411E+03  0.54428647588E+03  0.78751429850E+03  0.00000000000E+00 0.  1.
         15    1    5    5    0    0 -0.19765189137E+02  0.13156355379E+03  0.21261370705E+03  0.25081343175E+03  0.17770000000E+01 0. -1.
        -15    1    5    5    0    0 -0.13441919908E+02 -0.12159547042E+02  0.40321155671E+02  0.44243565845E+02  0.17770000000E+01 0.  1.
          1    1    6    6  503    0  0.14664867903E+03  0.43797163262E+03 -0.12459711630E+03  0.47838209356E+03  0.00000000000E+00 0. -1.
         -1    1    6    6    0  503  0.10806507570E+03  0.16736143883E+03 -0.14831841862E+02  0.19976960561E+03  0.00000000000E+00 0.  1.
<mgrwt>
<rscale>  0 0.78780438E+03</rscale>
<asrwt>0</asrwt>
<pdfrwt beam="1">  1        2 0.22070485E+00 0.78780438E+03</pdfrwt>
<pdfrwt beam="2">  1       -2 0.91272068E-01 0.78780438E+03</pdfrwt>
<totfact> 0.14405997E+01</totfact>
</mgrwt>
</event>
<event>
12    1  0.7781383E-008  0.1289655E+04  0.7818608E-02  0.9037809E-01
          2   -1    0    0  501    0  0.00000000000E+00  0.00000000000E+00  0.10588980269E+04  0.10588980269E+04  0.00000000000E+00 0. -1.
         -2   -1    0    0    0  501 -0.00000000000E+00 -0.00000000000E+00 -0.15850719447E+04  0.15850719447E+04  0.00000000000E+00 0.  1.
         23    2    1    2    0    0 -0.67532449173E+03  0.10201178588E+04 -0.20164738527E+03  0.12432473174E+04  0.91096703252E+02 0.  0.
    5000000    2    1    2    0    0  0.67532449173E+03 -0.10201178588E+04 -0.32452653258E+03  0.14007226541E+04  0.60000239043E+03 0.  0.
         23    2    4    4    0    0  0.52938979627E+03 -0.10599892343E+04 -0.31369982665E+03  0.12290494733E+04  0.91237566189E+02 0.  0.
         23    2    4    4    0    0  0.14593469546E+03  0.39871375466E+02 -0.10826705934E+02  0.17167318083E+03  0.80422643153E+02 0.  0.
          3    1    3    3  502    0 -0.47505823797E+03  0.68406629029E+03 -0.98279755176E+02  0.83862144573E+03  0.00000000000E+00 0. -1.
         -3    1    3    3    0  502 -0.20026625376E+03  0.33605156852E+03 -0.10336763009E+03  0.40462587170E+03  0.00000000000E+00 0.  1.
         15    1    5    5    0    0  0.32183321673E+03 -0.59273751315E+03 -0.13821022478E+03  0.68849081537E+03  0.17770000000E+01 0.  1.
        -15    1    5    5    0    0  0.20755657954E+03 -0.46725172112E+03 -0.17548960187E+03  0.54055865796E+03  0.17770000000E+01 0. -1.
          3    1    6    6  503    0  0.44218855578E+02  0.50639113214E+02  0.78935366672E+01  0.67689991113E+02  0.00000000000E+00 0. -1.
         -3    1    6    6    0  503  0.10171583988E+03 -0.10767737748E+02 -0.18720242602E+02  0.10398318971E+03  0.00000000000E+00 0.  1.
<mgrwt>
<rscale>  0 0.12896552E+04</rscale>
<asrwt>0</asrwt>
<pdfrwt beam="1">  1        2 0.16290739E+00 0.12896552E+04</pdfrwt>
<pdfrwt beam="2">  1       -2 0.24385722E+00 0.12896552E+04</pdfrwt>
<totfact> 0.15628347E+00</totfact>
</mgrwt>
</event>
<event>
12    1  0.7781383E-008  0.1286534E+04  0.7818608E-02  0.9040312E-01
         -2   -1    0    0    0  501 -0.00000000000E+00  0.00000000000E+00  0.13232026463E+04  0.13232026463E+04  0.00000000000E+00 0.  1.
          2   -1    0    0  501    0  0.00000000000E+00 -0.00000000000E+00 -0.12954445288E+04  0.12954445288E+04  0.00000000000E+00 0. -1.
         23    2    1    2    0    0 -0.10961959961E+04  0.56644705256E+03  0.12108520082E+03  0.12434302447E+04  0.94600328726E+02 0.  0.
    5000000    2    1    2    0    0  0.10961959961E+04 -0.56644705256E+03 -0.93327083306E+02  0.13752169305E+04  0.60000311339E+03 0.  0.
         23    2    4    4    0    0  0.58150783019E+03 -0.57063666129E+03  0.81807424341E+02  0.82392912700E+03  0.91592553520E+02 0.  0.
         23    2    4    4    0    0  0.51468816595E+03  0.41896087312E+01 -0.17513450765E+03  0.55128780348E+03  0.91239714495E+02 0.  0.
          3    1    3    3  502    0 -0.13052893226E+03  0.34621109842E+02  0.97901041248E+01  0.13539671171E+03  0.00000000000E+00 0. -1.
         -3    1    3    3    0  502 -0.96566706388E+03  0.53182594272E+03  0.11129509669E+03  0.11080335330E+04  0.00000000000E+00 0.  1.
         15    1    5    5    0    0  0.27973602596E+03 -0.33452798407E+03  0.59432268148E+02  0.44010972333E+03  0.17770000000E+01 0.  1.
        -15    1    5    5    0    0  0.30177180423E+03 -0.23610867722E+03  0.22375156193E+02  0.38381940367E+03  0.17770000000E+01 0. -1.
          3    1    6    6  503    0  0.92475178368E+01  0.57861373614E+01  0.81737939525E+01  0.13631099709E+02  0.00000000000E+00 0. -1.
         -3    1    6    6    0  503  0.50544064812E+03 -0.15965286302E+01 -0.18330830160E+03  0.53765670377E+03  0.00000000000E+00 0.  1.
<mgrwt>
<rscale>  0 0.12865345E+04</rscale>
<asrwt>0</asrwt>
<pdfrwt beam="1">  1        2 0.19929916E+00 0.12865345E+04</pdfrwt>
<pdfrwt beam="2">  1       -2 0.20356964E+00 0.12865345E+04</pdfrwt>
<totfact> 0.20172792E+00</totfact>
</mgrwt>
</event>
<event>
12    1  0.7781383E-008  0.9837918E+03  0.7818608E-02  0.9326502E-01
         -1   -1    0    0    0  501 -0.00000000000E+00  0.00000000000E+00  0.78611230648E+03  0.78611230648E+03  0.00000000000E+00 0.  1.
          1   -1    0    0  501    0  0.00000000000E+00 -0.00000000000E+00 -0.13764440238E+04  0.13764440238E+04  0.00000000000E+00 0. -1.
         23    2    1    2    0    0  0.32037629826E+03  0.85917232413E+03 -0.83049241109E+01  0.92167802353E+03  0.92754257374E+02 0.  0.
    5000000    2    1    2    0    0 -0.32037629826E+03 -0.85917232413E+03 -0.58202679323E+03  0.12408783068E+04  0.60017141647E+03 0.  0.
         23    2    4    4    0    0 -0.33076667191E+03 -0.89910992273E+03 -0.41691673951E+03  0.10487574061E+04  0.90924609903E+02 0.  0.
         23    2    4    4    0    0  0.10390373653E+02  0.39937598604E+02 -0.16511005372E+03  0.19212090071E+03  0.89141118479E+02 0.  0.
          2    1    3    3  502    0  0.14789822570E+03  0.36164233204E+03 -0.47756461691E+02  0.39362385741E+03  0.00000000000E+00 0. -1.
         -2    1    3    3    0  502  0.17247807256E+03  0.49752999208E+03  0.39451537580E+02  0.52805416612E+03  0.00000000000E+00 0.  1.
         15    1    5    5    0    0 -0.82921737450E+02 -0.31050086879E+03 -0.17391896498E+03  0.36542819838E+03  0.17770000000E+01 0. -1.
        -15    1    5    5    0    0 -0.24784493446E+03 -0.58860905394E+03 -0.24299777454E+03  0.68332920769E+03  0.17770000000E+01 0.  1.
          2    1    6    6  503    0 -0.33500785202E+02  0.30583408005E+02 -0.12088098626E+03  0.12911181315E+03  0.00000000000E+00 0. -1.
         -2    1    6    6    0  503  0.43891158854E+02  0.93541905993E+01 -0.44229067452E+02  0.63009087559E+02  0.00000000000E+00 0.  1.
<mgrwt>
<rscale>  0 0.98379178E+03</rscale>
<asrwt>0</asrwt>
<pdfrwt beam="1">  1        1 0.21176062E+00 0.98379178E+03</pdfrwt>
<pdfrwt beam="2">  1       -1 0.12094036E+00 0.98379178E+03</pdfrwt>
<totfact> 0.48788738E+00</totfact>
</mgrwt>
</event>
<event>
12    1  0.7781383E-008  0.7648598E+03  0.7818608E-02  0.9612322E-01
          2   -1    0    0  501    0  0.00000000000E+00  0.00000000000E+00  0.68278608165E+03  0.68278608165E+03  0.00000000000E+00 0. -1.
         -2   -1    0    0    0  501 -0.00000000000E+00 -0.00000000000E+00 -0.19537905407E+04  0.19537905407E+04  0.00000000000E+00 0.  1.
         23    2    1    2    0    0  0.57201392465E+03  0.38412428036E+03 -0.15354095610E+04  0.16854461637E+04  0.92167553588E+02 0.  0.
    5000000    2    1    2    0    0 -0.57201392465E+03 -0.38412428036E+03  0.26440510188E+03  0.95113045873E+03  0.59998974897E+03 0.  0.
         23    2    4    4    0    0 -0.23720752588E+03 -0.43500672390E+03  0.32060017679E+03  0.59706866552E+03  0.90599436121E+02 0.  0.
         23    2    4    4    0    0 -0.33480639877E+03  0.50882443533E+02 -0.56195074911E+02  0.35406179320E+03  0.86703628797E+02 0.  0.
          4    1    3    3  502    0  0.21792512339E+03  0.12817953034E+03 -0.46466021290E+03  0.52899004230E+03  0.00000000000E+00 0. -1.
         -4    1    3    3    0  502  0.35408880125E+03  0.25594475002E+03 -0.10707493481E+04  0.11564561214E+04  0.00000000000E+00 0.  1.
         15    1    5    5    0    0 -0.55179302935E+02 -0.15244026909E+03  0.14657412563E+03  0.21856331611E+03  0.17770000000E+01 0. -1.
        -15    1    5    5    0    0 -0.18202822294E+03 -0.28256645480E+03  0.17402605116E+03  0.37850534942E+03  0.17770000000E+01 0.  1.
          3    1    6    6  503    0 -0.20968115210E+03  0.54159702991E+02 -0.71270826874E+02  0.22798901232E+03  0.00000000000E+00 0. -1.
         -3    1    6    6    0  503 -0.12512524667E+03 -0.32772594579E+01  0.15075751962E+02  0.12607278089E+03  0.00000000000E+00 0.  1.
<mgrwt>
<rscale>  0 0.76485982E+03</rscale>
<asrwt>0</asrwt>
<pdfrwt beam="1">  1        2 0.10504401E+00 0.76485982E+03</pdfrwt>
<pdfrwt beam="2">  1       -2 0.30058316E+00 0.76485982E+03</pdfrwt>
<totfact> 0.13868891E+00</totfact>
</mgrwt>
</event>
<event>
12    1  0.7781383E-008  0.1051514E+04  0.7818608E-02  0.9253782E-01
          2   -1    0    0  501    0  0.00000000000E+00  0.00000000000E+00  0.16496777742E+04  0.16496777742E+04  0.00000000000E+00 0. -1.
         -2   -1    0    0    0  501 -0.00000000000E+00 -0.00000000000E+00 -0.76879098639E+03  0.76879098639E+03  0.00000000000E+00 0.  1.
         23    2    1    2    0    0  0.98728545726E+03  0.15171870026E+03  0.84445377941E+02  0.10070140381E+04  0.95891151251E+02 0.  0.
    5000000    2    1    2    0    0 -0.98728545726E+03 -0.15171870026E+03  0.79644140985E+03  0.14114547225E+04  0.60011196975E+03 0.  0.
         23    2    4    4    0    0 -0.98673428355E+03 -0.23403317233E+03  0.60385806973E+03  0.11834746779E+04  0.86900360580E+02 0.  0.
         23    2    4    4    0    0 -0.55117370454E+00  0.82314472071E+02  0.19258334012E+03  0.22798004464E+03  0.90058768363E+02 0.  0.
          3    1    3    3  502    0  0.67846572797E+03  0.14856651349E+03  0.64672451817E+02  0.69754589740E+03  0.00000000000E+00 0. -1.
         -3    1    3    3    0  502  0.30881972929E+03  0.31521867725E+01  0.19772926125E+02  0.30946814066E+03  0.00000000000E+00 0.  1.
         15    1    5    5    0    0 -0.97008592580E+03 -0.21925385646E+03  0.59757464432E+03  0.11602747822E+04  0.17770000000E+01 0. -1.
        -15    1    5    5    0    0 -0.16648357752E+02 -0.14779315873E+02  0.62834254097E+01  0.23199895634E+02  0.17770000000E+01 0.  1.
          1    1    6    6  503    0  0.40095237132E+01  0.41429346892E+02  0.18030673774E+03  0.18504860642E+03  0.00000000000E+00 0. -1.
         -1    1    6    6    0  503 -0.45606974177E+01  0.40885125180E+02  0.12276602382E+02  0.42931438223E+02  0.00000000000E+00 0.  1.
<mgrwt>
<rscale>  0 0.10515139E+04</rscale>
<asrwt>0</asrwt>
<pdfrwt beam="1">  1        2 0.25379658E+00 0.10515139E+04</pdfrwt>
<pdfrwt beam="2">  1       -2 0.11827554E+00 0.10515139E+04</pdfrwt>
<totfact> 0.56986256E+00</totfact>
</mgrwt>
</event>
<event>
12    1  0.7781383E-008  0.8684729E+03  0.7818608E-02  0.9465873E-01
          2   -1    0    0  501    0  0.00000000000E+00  0.00000000000E+00  0.21808704348E+04  0.21808704348E+04  0.00000000000E+00 0. -1.
         -2   -1    0    0    0  501 -0.00000000000E+00 -0.00000000000E+00 -0.40227393361E+03  0.40227393361E+03  0.00000000000E+00 0.  1.
         23    2    1    2    0    0 -0.43255364148E+03  0.67228794666E+03  0.11462866276E+04  0.14004673837E+04  0.90896227766E+02 0.  0.
    5000000    2    1    2    0    0  0.43255364148E+03 -0.67228794666E+03  0.63230987355E+03  0.11826769847E+04  0.59986276591E+03 0.  0.
         23    2    4    4    0    0  0.20779586477E+03 -0.66202076205E+03  0.62749242601E+03  0.93986611530E+03  0.90282662709E+02 0.  0.
         23    2    4    4    0    0  0.22475777671E+03 -0.10267184606E+02  0.48174475400E+01  0.24281086938E+03  0.91172568331E+02 0.  0.
          2    1    3    3  502    0 -0.12245421897E+03  0.12774040710E+03  0.22474664534E+03  0.28604842587E+03  0.00000000000E+00 0. -1.
         -2    1    3    3    0  502 -0.31009942251E+03  0.54454753955E+03  0.92153998230E+03  0.11144189579E+04  0.00000000000E+00 0.  1.
         15    1    5    5    0    0  0.40023328335E+02 -0.24854385057E+03  0.19493551169E+03  0.31840057147E+03  0.17770000000E+01 0. -1.
        -15    1    5    5    0    0  0.16777253643E+03 -0.41347691149E+03  0.43255691432E+03  0.62146554383E+03  0.17770000000E+01 0.  1.
          3    1    6    6  503    0  0.46853703636E+02 -0.31114624126E+02 -0.24424262486E+02  0.61318300505E+02  0.00000000000E+00 0. -1.
         -3    1    6    6    0  503  0.17790407307E+03  0.20847439520E+02  0.29241710026E+02  0.18149256887E+03  0.00000000000E+00 0.  1.
<mgrwt>
<rscale>  0 0.86847291E+03</rscale>
<asrwt>0</asrwt>
<pdfrwt beam="1">  1        2 0.33551852E+00 0.86847291E+03</pdfrwt>
<pdfrwt beam="2">  1       -2 0.61888299E-01 0.86847291E+03</pdfrwt>
<totfact> 0.13120813E+01</totfact>
</mgrwt>
</event>
<event>
12    1  0.7781383E-008  0.8436118E+03  0.7818608E-02  0.9498951E-01
         -2   -1    0    0    0  501 -0.00000000000E+00  0.00000000000E+00  0.35569986576E+03  0.35569986576E+03  0.00000000000E+00 0.  1.
          2   -1    0    0  501    0  0.00000000000E+00 -0.00000000000E+00 -0.43136673007E+04  0.43136673007E+04  0.00000000000E+00 0. -1.
         23    2    1    2    0    0 -0.79509287600E+03 -0.13551899395E+03 -0.28327102796E+03  0.85964806406E+03  0.90632442152E+02 0.  0.
    5000000    2    1    2    0    0  0.79509287600E+03  0.13551899395E+03 -0.36746964070E+04  0.38097191024E+04  0.60002322999E+03 0.  0.
         23    2    4    4    0    0  0.14814106565E+03 -0.10652921131E+03 -0.17616775264E+04  0.17736568458E+04  0.95166440759E+02 0.  0.
         23    2    4    4    0    0  0.64695181035E+03  0.24204820526E+03 -0.19130188806E+04  0.20360622566E+04  0.93671215954E+02 0.  0.
          4    1    3    3  502    0 -0.63124395561E+03 -0.12251239823E+03 -0.18925687446E+03  0.67029574350E+03  0.00000000000E+00 0. -1.
         -4    1    3    3    0  502 -0.16384892039E+03 -0.13006595722E+02 -0.94014153498E+02  0.18935232056E+03  0.00000000000E+00 0.  1.
         15    1    5    5    0    0  0.69937584132E+02 -0.38063648657E+02 -0.39020233741E+03  0.39824757234E+03  0.17770000000E+01 0. -1.
        -15    1    5    5    0    0  0.78203481519E+02 -0.68465562648E+02 -0.13714751890E+04  0.13754092735E+04  0.17770000000E+01 0.  1.
          3    1    6    6  503    0  0.25331832657E+03  0.49803170005E+02 -0.66186500508E+03  0.71043354036E+03  0.00000000000E+00 0. -1.
         -3    1    6    6    0  503  0.39363348377E+03  0.19224503526E+03 -0.12511538755E+04  0.13256287162E+04  0.00000000000E+00 0.  1.
<mgrwt>
<rscale>  0 0.84361185E+03</rscale>
<asrwt>0</asrwt>
<pdfrwt beam="1">  1        2 0.66364112E+00 0.84361185E+03</pdfrwt>
<pdfrwt beam="2">  1       -2 0.54723056E-01 0.84361185E+03</pdfrwt>
<totfact> 0.63955211E-01</totfact>
</mgrwt>
</event>
<event>
12    1  0.7781383E-008  0.4913578E+03  0.7818608E-02  0.1016060E+00
          1   -1    0    0  501    0  0.00000000000E+00  0.00000000000E+00  0.11328416839E+04  0.11328416839E+04  0.00000000000E+00 0. -1.
         -1   -1    0    0    0  501 -0.00000000000E+00 -0.00000000000E+00 -0.28625833272E+03  0.28625833272E+03  0.00000000000E+00 0.  1.
         23    2    1    2    0    0  0.22508174661E+03 -0.21209115107E+03  0.63492138061E+03  0.71167462539E+03  0.87813232798E+02 0.  0.
    5000000    2    1    2    0    0 -0.22508174661E+03  0.21209115107E+03  0.21166197058E+03  0.70742539124E+03  0.60000453778E+03 0.  0.
         23    2    4    4    0    0 -0.54768073130E+02 -0.19298091179E+03  0.29325467939E+02  0.22246886979E+03  0.91603716122E+02 0.  0.
         23    2    4    4    0    0 -0.17031367348E+03  0.40507206286E+03  0.18233650265E+03  0.48495652144E+03  0.94053729392E+02 0.  0.
          3    1    3    3  502    0  0.11667639664E+03 -0.16029107773E+03  0.34615020747E+03  0.39890672752E+03  0.00000000000E+00 0. -1.
         -3    1    3    3    0  502  0.10840534997E+03 -0.51800073336E+02  0.28877117314E+03  0.31276789787E+03  0.00000000000E+00 0.  1.
         15    1    5    5    0    0  0.22712465375E+02 -0.37437216948E+02  0.20715393121E+02  0.48473565346E+02  0.17770000000E+01 0.  1.
        -15    1    5    5    0    0 -0.77480538505E+02 -0.15554369484E+03  0.86100748185E+01  0.17399530445E+03  0.17770000000E+01 0. -1.
          4    1    6    6  503    0 -0.15993709054E+03  0.29011444676E+03  0.15784275706E+03  0.36696130737E+03  0.00000000000E+00 0.  1.
         -4    1    6    6    0  503 -0.10376582944E+02  0.11495761610E+03  0.24493745584E+02  0.11799521408E+03  0.00000000000E+00 0. -1.
<mgrwt>
<rscale>  0 0.49135780E+03</rscale>
<asrwt>0</asrwt>
<pdfrwt beam="1">  1        1 0.17428333E+00 0.49135780E+03</pdfrwt>
<pdfrwt beam="2">  1       -1 0.44039744E-01 0.49135780E+03</pdfrwt>
<totfact> 0.64438164E+01</totfact>
</mgrwt>
</event>
<event>
12    1  0.7781383E-008  0.7966008E+03  0.7818608E-02  0.9564950E-01
          3   -1    0    0  501    0  0.00000000000E+00  0.00000000000E+00  0.11149823747E+04  0.11149823747E+04  0.00000000000E+00 0. -1.
         -3   -1    0    0    0  501 -0.00000000000E+00 -0.00000000000E+00 -0.69290074789E+03  0.69290074789E+03  0.00000000000E+00 0.  1.
         23    2    1    2    0    0 -0.41810047649E+03 -0.54982584635E+03  0.54519974607E+03  0.88469286321E+03  0.91226253552E+02 0.  0.
    5000000    2    1    2    0    0  0.41810047649E+03  0.54982584635E+03 -0.12311811927E+03  0.92319025938E+03  0.60000476161E+03 0.  0.
         23    2    4    4    0    0  0.46531385578E+03  0.15096739221E+03 -0.29297290487E+02  0.49814140310E+03  0.89321824668E+02 0.  0.
         23    2    4    4    0    0 -0.47213379292E+02  0.39885845414E+03 -0.93820828786E+02  0.42504885627E+03  0.10269864985E+03 0.  0.
          1    1    3    3  502    0 -0.21184552503E+03 -0.22316992084E+03  0.20326779716E+03  0.36878332040E+03  0.00000000000E+00 0. -1.
         -1    1    3    3    0  502 -0.20625495146E+03 -0.32665592552E+03  0.34193194891E+03  0.51590954281E+03  0.00000000000E+00 0.  1.
         15    1    5    5    0    0  0.24324757177E+03  0.11598574607E+03  0.11144723462E+02  0.26972103561E+03  0.17770000000E+01 0.  1.
        -15    1    5    5    0    0  0.22206628401E+03  0.34981646139E+02 -0.40442013950E+02  0.22842036749E+03  0.17770000000E+01 0. -1.
          1    1    6    6  503    0 -0.44468466560E+02  0.16190767091E+03  0.57760002314E+01  0.16800268033E+03  0.00000000000E+00 0. -1.
         -1    1    6    6    0  503 -0.27449127322E+01  0.23695078323E+03 -0.99596829017E+02  0.25704617595E+03  0.00000000000E+00 0.  1.
<mgrwt>
<rscale>  0 0.79660085E+03</rscale>
<asrwt>0</asrwt>
<pdfrwt beam="1">  1        3 0.17153575E+00 0.79660085E+03</pdfrwt>
<pdfrwt beam="2">  1       -3 0.10660012E+00 0.79660085E+03</pdfrwt>
<totfact> 0.44019583E-01</totfact>
</mgrwt>
</event>
<event>
12    1  0.7781383E-008  0.8121021E+03  0.7818608E-02  0.9542663E-01
         -1   -1    0    0    0  501 -0.00000000000E+00  0.00000000000E+00  0.36688062394E+04  0.36688062394E+04  0.00000000000E+00 0.  1.
          1   -1    0    0  501    0  0.00000000000E+00 -0.00000000000E+00 -0.19695988754E+03  0.19695988754E+03  0.00000000000E+00 0. -1.
         23    2    1    2    0    0 -0.52784395793E+03 -0.50743081661E+03  0.12642076111E+04  0.14637230970E+04  0.90327975836E+02 0.  0.
    5000000    2    1    2    0    0  0.52784395793E+03  0.50743081661E+03  0.22076387408E+04  0.24020430299E+04  0.60003052441E+03 0.  0.
         23    2    4    4    0    0  0.60848268482E+03  0.44082249462E+03  0.14943314291E+04  0.16750949477E+04  0.91329154769E+02 0.  0.
         23    2    4    4    0    0 -0.80638726888E+02  0.66608321995E+02  0.71330731169E+03  0.72694808217E+03  0.93310880574E+02 0.  0.
          2    1    3    3  502    0 -0.10961719007E+03 -0.12892105982E+03  0.22808837822E+03  0.28400858490E+03  0.00000000000E+00 0. -1.
         -2    1    3    3    0  502 -0.41822676787E+03 -0.37850975680E+03  0.10361192329E+04  0.11797145121E+04  0.00000000000E+00 0.  1.
         15    1    5    5    0    0  0.24694311216E+03  0.23391122835E+03  0.69104067464E+03  0.77021797897E+03  0.17770000000E+01 0.  1.
        -15    1    5    5    0    0  0.36153957267E+03  0.20691126627E+03  0.80329075443E+03  0.90487696876E+03  0.17770000000E+01 0. -1.
          4    1    6    6  503    0 -0.51388460534E+02 -0.98565981829E+01  0.38728354421E+03  0.39080234137E+03  0.00000000000E+00 0. -1.
         -4    1    6    6    0  503 -0.29250266354E+02  0.76464920178E+02  0.32602376748E+03  0.33614574080E+03  0.00000000000E+00 0.  1.
<mgrwt>
<rscale>  0 0.81210214E+03</rscale>
<asrwt>0</asrwt>
<pdfrwt beam="1">  1        1 0.30301524E-01 0.81210214E+03</pdfrwt>
<pdfrwt beam="2">  1       -1 0.56443168E+00 0.81210214E+03</pdfrwt>
<totfact> 0.98272216E-02</totfact>
</mgrwt>
</event>
<event>
12    1  0.7781383E-008  0.1043245E+04  0.7818608E-02  0.9262346E-01
          2   -1    0    0  501    0  0.00000000000E+00  0.00000000000E+00  0.34535154153E+03  0.34535154153E+03  0.00000000000E+00 0. -1.
         -2   -1    0    0    0  501 -0.00000000000E+00 -0.00000000000E+00 -0.34417346115E+04  0.34417346115E+04  0.00000000000E+00 0.  1.
         23    2    1    2    0    0 -0.22432573969E+03  0.94646818052E+03 -0.18759176868E+04  0.21150653970E+04  0.91161459163E+02 0.  0.
    5000000    2    1    2    0    0  0.22432573969E+03 -0.94646818052E+03 -0.12204653832E+04  0.16720207561E+04  0.59999466908E+03 0.  0.
         23    2    4    4    0    0 -0.59578152201E+02 -0.76073411041E+03 -0.66966331460E+03  0.10192918254E+04  0.90779554327E+02 0.  0.
         23    2    4    4    0    0  0.28390389189E+03 -0.18573407011E+03 -0.55080206859E+03  0.65272893065E+03  0.87026280582E+02 0.  0.
          4    1    3    3  502    0 -0.62131965990E+02  0.30973906920E+03 -0.52239757821E+03  0.61048988682E+03  0.00000000000E+00 0. -1.
         -4    1    3    3    0  502 -0.16219377370E+03  0.63672911131E+03 -0.13535201086E+04  0.15045755101E+04  0.00000000000E+00 0.  1.
         15    1    5    5    0    0 -0.17536552482E+02 -0.35844393510E+03 -0.37350626979E+03  0.51797652127E+03  0.17770000000E+01 0.  1.
        -15    1    5    5    0    0 -0.42041599719E+02 -0.40229017530E+03 -0.29615704481E+03  0.50131530415E+03  0.17770000000E+01 0. -1.
          3    1    6    6  503    0  0.16511692748E+03 -0.56241578962E+02 -0.28178700200E+03  0.33140704495E+03  0.00000000000E+00 0. -1.
         -3    1    6    6    0  503  0.11878696441E+03 -0.12949249115E+03 -0.26901506659E+03  0.32132188570E+03  0.00000000000E+00 0.  1.
<mgrwt>
<rscale>  0 0.10432446E+04</rscale>
<asrwt>0</asrwt>
<pdfrwt beam="1">  1        2 0.53131007E-01 0.10432446E+04</pdfrwt>
<pdfrwt beam="2">  1       -2 0.52949763E+00 0.10432446E+04</pdfrwt>
<totfact> 0.10327877E-01</totfact>
</mgrwt>
</event>
<event>
12    1  0.7781383E-008  0.9843430E+03  0.7818608E-02  0.9325886E-01
          1   -1    0    0  501    0  0.00000000000E+00  0.00000000000E+00  0.12295701165E+04  0.12295701165E+04  0.00000000000E+00 0. -1.
         -1   -1    0    0    0  501 -0.00000000000E+00 -0.00000000000E+00 -0.89509999709E+03  0.89509999709E+03  0.00000000000E+00 0.  1.
         23    2    1    2    0    0  0.28748982819E+03  0.90735485645E+03  0.20473171405E+02  0.95653167285E+03  0.92684699779E+02 0.  0.
    5000000    2    1    2    0    0 -0.28748982819E+03 -0.90735485645E+03  0.31399694799E+03  0.11681384407E+04  0.60000841373E+03 0.  0.
         23    2    4    4    0    0 -0.19150988286E+03 -0.89741171536E+03  0.11273077918E+03  0.92892834600E+03  0.90420248453E+02 0.  0.
         23    2    4    4    0    0 -0.95979945337E+02 -0.99431410905E+01  0.20126616881E+03  0.23921009474E+03  0.86037101042E+02 0.  0.
          3    1    3    3  502    0  0.66436279921E+02  0.15224910999E+03 -0.27048747538E+02  0.16830093739E+03  0.00000000000E+00 0.  1.
         -3    1    3    3    0  502  0.22105354827E+03  0.75510574646E+03  0.47521918943E+02  0.78823073546E+03  0.00000000000E+00 0. -1.
         15    1    5    5    0    0 -0.93550594379E+02 -0.55100707926E+03  0.10608143085E+03  0.56887339787E+03  0.17770000000E+01 0.  1.
        -15    1    5    5    0    0 -0.97959288478E+02 -0.34640463610E+03  0.66493483264E+01  0.36005494813E+03  0.17770000000E+01 0. -1.
          1    1    6    6  503    0 -0.81369462910E+02 -0.52374122462E+01  0.71223078866E+02  0.10826424592E+03  0.00000000000E+00 0. -1.
         -1    1    6    6    0  503 -0.14610482427E+02 -0.47057288443E+01  0.13004308995E+03  0.13094584882E+03  0.00000000000E+00 0.  1.
<mgrwt>
<rscale>  0 0.98434303E+03</rscale>
<asrwt>0</asrwt>
<pdfrwt beam="1">  1        1 0.18916463E+00 0.98434303E+03</pdfrwt>
<pdfrwt beam="2">  1       -1 0.13770769E+00 0.98434303E+03</pdfrwt>
<totfact> 0.44735229E+00</totfact>
</mgrwt>
</event>
<event>
12    1  0.7781383E-008  0.1160815E+04  0.7818608E-02  0.9147864E-01
          2   -1    0    0  501    0  0.00000000000E+00  0.00000000000E+00  0.11603375815E+04  0.11603375815E+04  0.00000000000E+00 0. -1.
         -2   -1    0    0    0  501 -0.00000000000E+00 -0.00000000000E+00 -0.14545715477E+04  0.14545715477E+04  0.00000000000E+00 0.  1.
         23    2    1    2    0    0  0.32772093744E+03 -0.10519433379E+04 -0.68538699999E+03  0.13007093063E+04  0.90019779476E+02 0.  0.
    5000000    2    1    2    0    0 -0.32772093744E+03  0.10519433379E+04  0.39115303378E+03  0.13141998230E+04  0.60011222274E+03 0.  0.
         23    2    4    4    0    0 -0.42954107485E+03  0.10210335202E+04  0.32993944723E+03  0.11595159830E+04  0.92748540276E+02 0.  0.
         23    2    4    4    0    0  0.10182013741E+03  0.30909817742E+02  0.61213586553E+02  0.15468383997E+03  0.94112857542E+02 0.  0.
          4    1    3    3  502    0  0.14226205433E+03 -0.31672070399E+03 -0.21122340776E+03  0.40640598473E+03  0.00000000000E+00 0.  1.
         -4    1    3    3    0  502  0.18545888311E+03 -0.73522263391E+03 -0.47416359223E+03  0.89430332155E+03  0.00000000000E+00 0. -1.
         15    1    5    5    0    0 -0.19189278142E+03  0.53900200649E+03  0.20490822267E+03  0.60773064758E+03  0.17770000000E+01 0. -1.
        -15    1    5    5    0    0 -0.23764829344E+03  0.48203151367E+03  0.12503122456E+03  0.55178533543E+03  0.17770000000E+01 0.  1.
          3    1    6    6  503    0  0.55155464132E+02  0.13452002668E+02  0.82792952347E+02  0.10038801999E+03  0.00000000000E+00 0. -1.
         -3    1    6    6    0  503  0.46664673279E+02  0.17457815074E+02 -0.21579365794E+02  0.54295819982E+02  0.00000000000E+00 0.  1.
<mgrwt>
<rscale>  0 0.11608148E+04</rscale>
<asrwt>0</asrwt>
<pdfrwt beam="1">  1        2 0.17851347E+00 0.11608148E+04</pdfrwt>
<pdfrwt beam="2">  1       -2 0.22378024E+00 0.11608148E+04</pdfrwt>
<totfact> 0.18264911E+00</totfact>
</mgrwt>
</event>
<event>
12    1  0.7781383E-008  0.7761715E+03  0.7818608E-02  0.9595163E-01
          3   -1    0    0  501    0  0.00000000000E+00  0.00000000000E+00  0.14428457338E+04  0.14428457338E+04  0.00000000000E+00 0. -1.
         -3   -1    0    0    0  501 -0.00000000000E+00 -0.00000000000E+00 -0.49726781997E+03  0.49726781997E+03  0.00000000000E+00 0.  1.
         23    2    1    2    0    0  0.41611116827E+02  0.70876754603E+03  0.64336015729E+03  0.96259713682E+03  0.92725597799E+02 0.  0.
    5000000    2    1    2    0    0 -0.41611116827E+02 -0.70876754603E+03  0.30221775650E+03  0.97751641690E+03  0.60009986971E+03 0.  0.
         23    2    4    4    0    0 -0.73947103595E+02 -0.74846715025E+03  0.12137288846E+03  0.76769435089E+03  0.94614952343E+02 0.  0.
         23    2    4    4    0    0  0.32335986768E+02  0.39699604218E+02  0.18084486804E+03  0.20982206601E+03  0.93267135016E+02 0.  0.
          3    1    3    3  502    0 -0.20247550030E+02  0.22910840783E+03  0.17141000856E+03  0.28684842139E+03  0.00000000000E+00 0. -1.
         -3    1    3    3    0  502  0.61858666857E+02  0.47965913820E+03  0.47195014873E+03  0.67574871543E+03  0.00000000000E+00 0.  1.
         15    1    5    5    0    0 -0.48626891808E+02 -0.42633041273E+03  0.11605423074E+03  0.44451539639E+03  0.17770000000E+01 0.  1.
        -15    1    5    5    0    0 -0.25320211787E+02 -0.32213673751E+03  0.53186577160E+01  0.32317895450E+03  0.17770000000E+01 0. -1.
          3    1    6    6  503    0  0.54580314426E+02  0.28400391661E+02  0.58293692525E+02  0.84756991202E+02  0.00000000000E+00 0. -1.
         -3    1    6    6    0  503 -0.22244327658E+02  0.11299212557E+02  0.12255117551E+03  0.12506507481E+03  0.00000000000E+00 0.  1.
<mgrwt>
<rscale>  0 0.77617154E+03</rscale>
<asrwt>0</asrwt>
<pdfrwt beam="1">  1        3 0.22197626E+00 0.77617154E+03</pdfrwt>
<pdfrwt beam="2">  1       -3 0.76502742E-01 0.77617154E+03</pdfrwt>
<totfact> 0.45184368E-01</totfact>
</mgrwt>
</event>
<event>
12    1  0.7781383E-008  0.1008876E+04  0.7818608E-02  0.9298863E-01
          1   -1    0    0  501    0  0.00000000000E+00  0.00000000000E+00  0.25354273765E+04  0.25354273765E+04  0.00000000000E+00 0. -1.
         -1   -1    0    0    0  501 -0.00000000000E+00 -0.00000000000E+00 -0.55565017953E+03  0.55565017953E+03  0.00000000000E+00 0.  1.
         23    2    1    2    0    0 -0.84321537048E+01  0.96712563959E+03  0.16349082092E+04  0.19017377948E+04  0.90987272561E+02 0.  0.
    5000000    2    1    2    0    0  0.84321537048E+01 -0.96712563959E+03  0.34486898781E+03  0.11893397612E+04  0.60015943294E+03 0.  0.
         23    2    4    4    0    0 -0.46846330985E+02 -0.93921755762E+03  0.44279680020E+03  0.10436166311E+04  0.93501161682E+02 0.  0.
         23    2    4    4    0    0  0.55278484690E+02 -0.27908081976E+02 -0.97927812397E+02  0.14572313011E+03  0.88378743481E+02 0.  0.
          1    1    3    3  502    0  0.38791551943E+02  0.36930950892E+03  0.59843706290E+03  0.70428773675E+03  0.00000000000E+00 0. -1.
         -1    1    3    3    0  502 -0.47223705648E+02  0.59781613067E+03  0.10364711463E+04  0.11974500581E+04  0.00000000000E+00 0.  1.
         15    1    5    5    0    0 -0.10854008894E+00 -0.73989943782E+03  0.33439933240E+03  0.81195890358E+03  0.17770000000E+01 0. -1.
        -15    1    5    5    0    0 -0.46737790896E+02 -0.19931811980E+03  0.10839746780E+03  0.23165772755E+03  0.17770000000E+01 0.  1.
          3    1    6    6  503    0 -0.12240092121E+02 -0.32196068399E+02 -0.57156884972E+02  0.66733171476E+02  0.00000000000E+00 0. -1.
         -3    1    6    6    0  503  0.67518576811E+02  0.42879864226E+01 -0.40770927425E+02  0.78989958635E+02  0.00000000000E+00 0.  1.
<mgrwt>
<rscale>  0 0.10088762E+04</rscale>
<asrwt>0</asrwt>
<pdfrwt beam="1">  1        1 0.39006574E+00 0.10088762E+04</pdfrwt>
<pdfrwt beam="2">  1       -1 0.85484644E-01 0.10088762E+04</pdfrwt>
<totfact> 0.17621489E+00</totfact>
</mgrwt>
</event>
<event>
12    1  0.7781383E-008  0.7089159E+03  0.7818608E-02  0.9702105E-01
          1   -1    0    0  501    0  0.00000000000E+00  0.00000000000E+00  0.16047958567E+04  0.16047958567E+04  0.00000000000E+00 0. -1.
         -1   -1    0    0    0  501 -0.00000000000E+00 -0.00000000000E+00 -0.40462978481E+03  0.40462978481E+03  0.00000000000E+00 0.  1.
         23    2    1    2    0    0 -0.67284030302E+03  0.13952812103E+03  0.62353185305E+03  0.93025413816E+03  0.66322091943E+02 0.  0.
    5000000    2    1    2    0    0  0.67284030302E+03 -0.13952812103E+03  0.57663421886E+03  0.10791715034E+04  0.59993494765E+03 0.  0.
         23    2    4    4    0    0  0.43561782387E+03 -0.18695278099E+03  0.65028893570E+03  0.81006932152E+03  0.92856744461E+02 0.  0.
         23    2    4    4    0    0  0.23722247915E+03  0.47424659953E+02 -0.73654716833E+02  0.26910218185E+03  0.92018280692E+02 0.  0.
          2    1    3    3  502    0 -0.76469708699E+02  0.31830441590E+02  0.96007344476E+02  0.12679985628E+03  0.00000000000E+00 0. -1.
         -2    1    3    3    0  502 -0.59637059432E+03  0.10769767944E+03  0.52752450857E+03  0.80345428188E+03  0.00000000000E+00 0.  1.
         15    1    5    5    0    0  0.90249221825E+02 -0.20930373535E+02  0.18807862948E+03  0.20966576061E+03  0.17770000000E+01 0. -1.
        -15    1    5    5    0    0  0.34536860204E+03 -0.16602240745E+03  0.46221030622E+03  0.60040356091E+03  0.17770000000E+01 0.  1.
          4    1    6    6  503    0  0.53874112384E+02  0.44290928111E+02  0.42326096862E+01  0.69871462579E+02  0.00000000000E+00 0. -1.
         -4    1    6    6    0  503  0.18334836676E+03  0.31337318420E+01 -0.77887326519E+02  0.19923071927E+03  0.00000000000E+00 0.  1.
<mgrwt>
<rscale>  0 0.70891589E+03</rscale>
<asrwt>0</asrwt>
<pdfrwt beam="1">  1        1 0.24689167E+00 0.70891589E+03</pdfrwt>
<pdfrwt beam="2">  1       -1 0.62250737E-01 0.70891589E+03</pdfrwt>
<totfact> 0.15130395E+01</totfact>
</mgrwt>
</event>
<event>
12    1  0.7781383E-008  0.5856080E+03  0.7818608E-02  0.9935723E-01
         -3   -1    0    0    0  501 -0.00000000000E+00  0.00000000000E+00  0.37323114728E+03  0.37323114728E+03  0.00000000000E+00 0.  1.
          3   -1    0    0  501    0  0.00000000000E+00 -0.00000000000E+00 -0.10194131668E+04  0.10194131668E+04  0.00000000000E+00 0. -1.
         23    2    1    2    0    0 -0.41285732723E+03 -0.18803920273E+03 -0.36575270853E+03  0.59013129441E+03  0.93112761891E+02 0.  0.
    5000000    2    1    2    0    0  0.41285732723E+03  0.18803920273E+03 -0.28042931101E+03  0.80251301970E+03  0.59964709113E+03 0.  0.
         23    2    4    4    0    0  0.54311826563E+03  0.17380698588E+03 -0.28303481928E+03  0.64327988654E+03  0.92271256088E+02 0.  0.
         23    2    4    4    0    0 -0.13026093839E+03  0.14232216852E+02  0.26055082724E+01  0.15923313316E+03  0.90431929954E+02 0.  0.
          2    1    3    3  502    0 -0.22113476170E+03 -0.52091552204E+02 -0.19818865825E+03  0.30148442232E+03  0.00000000000E+00 0.  1.
         -2    1    3    3    0  502 -0.19172256553E+03 -0.13594765053E+03 -0.16756405028E+03  0.28864687209E+03  0.00000000000E+00 0. -1.
         15    1    5    5    0    0  0.36491279609E+03  0.80071893217E+02 -0.21320309197E+03  0.43015296464E+03  0.17770000000E+01 0. -1.
        -15    1    5    5    0    0  0.17820546953E+03  0.93735092663E+02 -0.69831727311E+02  0.21312692190E+03  0.17770000000E+01 0.  1.
          4    1    6    6  503    0 -0.89588750802E+02 -0.35249364351E+01 -0.39577162255E+02  0.98004699985E+02  0.00000000000E+00 0. -1.
         -4    1    6    6    0  503 -0.40672187593E+02  0.17757153287E+02  0.42182670527E+02  0.61228433176E+02  0.00000000000E+00 0.  1.
<mgrwt>
<rscale>  0 0.58560804E+03</rscale>
<asrwt>0</asrwt>
<pdfrwt beam="1">  1        3 0.15683280E+00 0.58560804E+03</pdfrwt>
<pdfrwt beam="2">  1       -3 0.57420176E-01 0.58560804E+03</pdfrwt>
<totfact> 0.22502227E+00</totfact>
</mgrwt>
</event>
<event>
12    1  0.7781383E-008  0.6028163E+03  0.7818608E-02  0.9899580E-01
          2   -1    0    0  501    0  0.00000000000E+00  0.00000000000E+00  0.67209735407E+03  0.67209735407E+03  0.00000000000E+00 0. -1.
         -2   -1    0    0    0  501 -0.00000000000E+00 -0.00000000000E+00 -0.60393412647E+03  0.60393412647E+03  0.00000000000E+00 0.  1.
         23    2    1    2    0    0  0.33488574061E+02 -0.46394311661E+03  0.18473497796E+03  0.50787918520E+03  0.86310802588E+02 0.  0.
    5000000    2    1    2    0    0 -0.33488574061E+02  0.46394311661E+03 -0.11657175035E+03  0.76815229534E+03  0.60008689022E+03 0.  0.
         23    2    4    4    0    0 -0.14384593207E+03  0.55568991523E+03 -0.38004350054E+02  0.58245277430E+03  0.91235791288E+02 0.  0.
         23    2    4    4    0    0  0.11035735801E+03 -0.91746798621E+02 -0.78567400295E+02  0.18569952103E+03  0.87836519728E+02 0.  0.
          3    1    3    3  502    0  0.23706162127E+02 -0.10654055787E+03  0.90779668582E+01  0.10952297510E+03  0.00000000000E+00 0. -1.
         -3    1    3    3    0  502  0.97824119343E+01 -0.35740255874E+03  0.17565701110E+03  0.39835621010E+03  0.00000000000E+00 0.  1.
         15    1    5    5    0    0 -0.35591521456E+02  0.58450613054E+02  0.17178038246E+02  0.70579552938E+02  0.17770000000E+01 0. -1.
        -15    1    5    5    0    0 -0.10825441062E+03  0.49723930217E+03 -0.55182388300E+02  0.51187322137E+03  0.17770000000E+01 0.  1.
          2    1    6    6  503    0  0.77138101529E+02 -0.10102923178E+03 -0.81641121502E+02  0.15107105978E+03  0.00000000000E+00 0. -1.
         -2    1    6    6    0  503  0.33219256482E+02  0.92824331642E+01  0.30737212074E+01  0.34628461253E+02  0.00000000000E+00 0.  1.
<mgrwt>
<rscale>  0 0.60281625E+03</rscale>
<asrwt>0</asrwt>
<pdfrwt beam="1">  1        2 0.10339959E+00 0.60281625E+03</pdfrwt>
<pdfrwt beam="2">  1       -2 0.92912943E-01 0.60281625E+03</pdfrwt>
<totfact> 0.43422325E+01</totfact>
</mgrwt>
</event>
<event>
12    1  0.7781383E-008  0.7312755E+03  0.7818608E-02  0.9665193E-01
          1   -1    0    0  501    0  0.00000000000E+00  0.00000000000E+00  0.17934567941E+04  0.17934567941E+04  0.00000000000E+00 0. -1.
         -1   -1    0    0    0  501 -0.00000000000E+00 -0.00000000000E+00 -0.43146199331E+03  0.43146199331E+03  0.00000000000E+00 0.  1.
         23    2    1    2    0    0 -0.55940588911E+03  0.26591516189E+03  0.15777978607E+02  0.62612788122E+03  0.90229468231E+02 0.  0.
    5000000    2    1    2    0    0  0.55940588911E+03 -0.26591516189E+03  0.13462168222E+04  0.15987909062E+04  0.60015565255E+03 0.  0.
         23    2    4    4    0    0 -0.10240908165E+03  0.34471638983E+01  0.15469063702E+03  0.20632595166E+03  0.90231381477E+02 0.  0.
         23    2    4    4    0    0  0.66181497076E+03 -0.26936232578E+03  0.11915261852E+04  0.13924649545E+04  0.93106828969E+02 0.  0.
          1    1    3    3  502    0 -0.36917863371E+03  0.12913176972E+03 -0.24734652335E+01  0.39111890208E+03  0.00000000000E+00 0. -1.
         -1    1    3    3    0  502 -0.19022725540E+03  0.13678339217E+03  0.18251443841E+02  0.23500897913E+03  0.00000000000E+00 0.  1.
         15    1    5    5    0    0 -0.51129247666E+02 -0.28510418787E+02  0.12696409362E+03  0.13982161043E+03  0.17770000000E+01 0.  1.
        -15    1    5    5    0    0 -0.51279833980E+02  0.31957582686E+02  0.27726543404E+02  0.66504341228E+02  0.17770000000E+01 0. -1.
          1    1    6    6  503    0  0.41855365465E+03 -0.13260832856E+03  0.67168469581E+03  0.80245402436E+03  0.00000000000E+00 0. -1.
         -1    1    6    6    0  503  0.24326131611E+03 -0.13675399723E+03  0.51984148936E+03  0.59001093018E+03  0.00000000000E+00 0.  1.
<mgrwt>
<rscale>  0 0.73127555E+03</rscale>
<asrwt>0</asrwt>
<pdfrwt beam="1">  1        1 0.27591643E+00 0.73127555E+03</pdfrwt>
<pdfrwt beam="2">  1       -1 0.66378769E-01 0.73127555E+03</pdfrwt>
<totfact> 0.98999154E+00</totfact>
</mgrwt>
</event>
<event>
12    1  0.7781383E-008  0.1156309E+04  0.7818608E-02  0.9151983E-01
         -2   -1    0    0    0  501 -0.00000000000E+00  0.00000000000E+00  0.19337702896E+04  0.19337702896E+04  0.00000000000E+00 0.  1.
          2   -1    0    0  501    0  0.00000000000E+00 -0.00000000000E+00 -0.14407593165E+04  0.14407593165E+04  0.00000000000E+00 0. -1.
         23    2    1    2    0    0 -0.91673059791E+03  0.57033959585E+03 -0.97382876386E+03  0.14568682177E+04  0.91871098634E+02 0.  0.
    5000000    2    1    2    0    0  0.91673059791E+03 -0.57033959585E+03  0.14668397369E+04  0.19176613883E+04  0.60010344343E+03 0.  0.
         23    2    4    4    0    0  0.54344106934E+03 -0.88665764169E+01  0.74519704402E+03  0.92585726224E+03  0.80537094584E+02 0.  0.
         23    2    4    4    0    0  0.37328952857E+03 -0.56147301943E+03  0.72164269289E+03  0.99180412610E+03  0.91160433648E+02 0.  0.
          1    1    3    3  502    0 -0.30795778103E+03  0.24343143277E+03 -0.34822562131E+03  0.52474559616E+03  0.00000000000E+00 0. -1.
         -1    1    3    3    0  502 -0.60877281689E+03  0.32690816308E+03 -0.62560314255E+03  0.93212262157E+03  0.00000000000E+00 0.  1.
         15    1    5    5    0    0  0.43969190908E+03 -0.37131509962E+02  0.61641376776E+03  0.75807441241E+03  0.17770000000E+01 0.  1.
        -15    1    5    5    0    0  0.10374916026E+03  0.28264933545E+02  0.12878327627E+03  0.16778284983E+03  0.17770000000E+01 0. -1.
          1    1    6    6  503    0  0.16785639283E+03 -0.17439949086E+03  0.26520893861E+03  0.35906368815E+03  0.00000000000E+00 0. -1.
         -1    1    6    6    0  503  0.20543313574E+03 -0.38707352856E+03  0.45643375428E+03  0.63274043796E+03  0.00000000000E+00 0.  1.
<mgrwt>
<rscale>  0 0.11563091E+04</rscale>
<asrwt>0</asrwt>
<pdfrwt beam="1">  1        2 0.22165528E+00 0.11563091E+04</pdfrwt>
<pdfrwt beam="2">  1       -2 0.29750312E+00 0.11563091E+04</pdfrwt>
<totfact> 0.44309772E-01</totfact>
</mgrwt>
</event>
<event>
12    1  0.7781383E-008  0.5138991E+03  0.7818608E-02  0.1010213E+00
          2   -1    0    0  501    0  0.00000000000E+00  0.00000000000E+00  0.18630740447E+04  0.18630740447E+04  0.00000000000E+00 0. -1.
         -2   -1    0    0    0  501 -0.00000000000E+00 -0.00000000000E+00 -0.14934346357E+03  0.14934346357E+03  0.00000000000E+00 0.  1.
         23    2    1    2    0    0 -0.33132120304E+03  0.67587754822E+02  0.75773732248E+03  0.83398274247E+03  0.83782579844E+02 0.  0.
    5000000    2    1    2    0    0  0.33132120304E+03 -0.67587754822E+02  0.95599325867E+03  0.11784347658E+04  0.60036950493E+03 0.  0.
         23    2    4    4    0    0  0.45197050321E+03  0.86833692304E+02  0.58940610633E+03  0.75347893347E+03  0.92268733098E+02 0.  0.
         23    2    4    4    0    0 -0.12064930017E+03 -0.15442144713E+03  0.36658715233E+03  0.42495583233E+03  0.88312412558E+02 0.  0.
          2    1    3    3  502    0 -0.18370133675E+03 -0.11841694946E+01  0.35903945041E+03  0.40330746376E+03  0.00000000000E+00 0. -1.
         -2    1    3    3    0  502 -0.14761986629E+03  0.68771924317E+02  0.39869787207E+03  0.43067527871E+03  0.00000000000E+00 0.  1.
         15    1    5    5    0    0  0.35135551380E+03  0.10578658554E+03  0.46552324873E+03  0.59275336490E+03  0.17770000000E+01 0.  1.
        -15    1    5    5    0    0  0.10061498941E+03 -0.18952893239E+02  0.12388285760E+03  0.16072556857E+03  0.17770000000E+01 0. -1.
          2    1    6    6  503    0 -0.40101407804E+02 -0.11584833112E+03  0.24648157790E+03  0.27528553717E+03  0.00000000000E+00 0.  1.
         -2    1    6    6    0  503 -0.80547892370E+02 -0.38573116004E+02  0.12010557444E+03  0.14967029516E+03  0.00000000000E+00 0. -1.
<mgrwt>
<rscale>  0 0.51389912E+03</rscale>
<asrwt>0</asrwt>
<pdfrwt beam="1">  1        2 0.28662676E+00 0.51389912E+03</pdfrwt>
<pdfrwt beam="2">  1       -2 0.22975919E-01 0.51389912E+03</pdfrwt>
<totfact> 0.13948847E+02</totfact>
</mgrwt>
</event>
<event>
12    1  0.7781383E-008  0.1667597E+04  0.7818608E-02  0.8780064E-01
          2   -1    0    0  501    0  0.00000000000E+00  0.00000000000E+00  0.18178301350E+04  0.18178301350E+04  0.00000000000E+00 0. -1.
         -2   -1    0    0    0  501 -0.00000000000E+00 -0.00000000000E+00 -0.17007784488E+04  0.17007784488E+04  0.00000000000E+00 0.  1.
         23    2    1    2    0    0 -0.16517680042E+04 -0.15743318619E+03  0.45320766431E+03  0.17224418350E+04  0.91027138773E+02 0.  0.
    5000000    2    1    2    0    0  0.16517680042E+04  0.15743318619E+03 -0.33615597817E+03  0.17961667488E+04  0.60007616181E+03 0.  0.
         23    2    4    4    0    0  0.24761607672E+03 -0.29084717338E+02  0.13896784305E+03  0.29948665988E+03  0.90667280836E+02 0.  0.
         23    2    4    4    0    0  0.14041519275E+04  0.18651790353E+03 -0.47512382122E+03  0.14966800889E+04  0.88752911156E+02 0.  0.
          1    1    3    3  502    0 -0.14938914649E+04 -0.12463041758E+03  0.38777304828E+03  0.15484225479E+04  0.00000000000E+00 0. -1.
         -1    1    3    3    0  502 -0.15787653932E+03 -0.32802768616E+02  0.65434616029E+02  0.17401928707E+03  0.00000000000E+00 0.  1.
         15    1    5    5    0    0  0.94534246297E+02  0.20295884631E+02  0.87987049044E+02  0.13074220889E+03  0.17770000000E+01 0. -1.
        -15    1    5    5    0    0  0.15308183042E+03 -0.49380601969E+02  0.50980794005E+02  0.16874445099E+03  0.17770000000E+01 0.  1.
          2    1    6    6  503    0  0.59840937195E+03  0.10347386937E+03 -0.16473353833E+03  0.62923585144E+03  0.00000000000E+00 0. -1.
         -2    1    6    6    0  503  0.80574255558E+03  0.83044034163E+02 -0.31039028289E+03  0.86744423751E+03  0.00000000000E+00 0.  1.
<mgrwt>
<rscale>  0 0.16675968E+04</rscale>
<asrwt>0</asrwt>
<pdfrwt beam="1">  1        2 0.27966617E+00 0.16675968E+04</pdfrwt>
<pdfrwt beam="2">  1       -2 0.26165822E+00 0.16675968E+04</pdfrwt>
<totfact> 0.42401791E-01</totfact>
</mgrwt>
</event>
<event>
12    1  0.7781383E-008  0.6157193E+03  0.7818608E-02  0.9873320E-01
         -1   -1    0    0    0  501 -0.00000000000E+00  0.00000000000E+00  0.58689459813E+03  0.58689459813E+03  0.00000000000E+00 0.  1.
          1   -1    0    0  501    0  0.00000000000E+00 -0.00000000000E+00 -0.89999916926E+03  0.89999916926E+03  0.00000000000E+00 0. -1.
         23    2    1    2    0    0 -0.34797678586E+03 -0.46794834301E+03 -0.27083965194E+03  0.64937292984E+03  0.90926287315E+02 0.  0.
    5000000    2    1    2    0    0  0.34797678586E+03  0.46794834301E+03 -0.42264919192E+02  0.83752083755E+03  0.59965934889E+03 0.  0.
         23    2    4    4    0    0  0.38695493878E+03  0.46904481249E+03 -0.20512897251E+03  0.64773987695E+03  0.88044829810E+02 0.  0.
         23    2    4    4    0    0 -0.38978152927E+02 -0.10964694725E+01  0.16286405332E+03  0.18978096060E+03  0.89283898280E+02 0.  0.
          1    1    3    3  502    0 -0.84309999186E+01 -0.14725702942E+02  0.72735352368E+01  0.18461646774E+02  0.00000000000E+00 0. -1.
         -1    1    3    3    0  502 -0.33954578594E+03 -0.45322264007E+03 -0.27811318717E+03  0.63091128307E+03  0.00000000000E+00 0.  1.
         15    1    5    5    0    0  0.29331090101E+03  0.37676696060E+03 -0.12428137870E+03  0.49338995336E+03  0.17770000000E+01 0. -1.
        -15    1    5    5    0    0  0.93644037770E+02  0.92277851884E+02 -0.80847593809E+02  0.15434992359E+03  0.17770000000E+01 0.  1.
          1    1    6    6  503    0 -0.93041297057E+01 -0.19879521080E+01  0.15963521273E+03  0.15991847901E+03  0.00000000000E+00 0. -1.
         -1    1    6    6    0  503 -0.29674023221E+02  0.89148263543E+00  0.32288405844E+01  0.29862481593E+02  0.00000000000E+00 0.  1.
<mgrwt>
<rscale>  0 0.61571925E+03</rscale>
<asrwt>0</asrwt>
<pdfrwt beam="1">  1        1 0.13846141E+00 0.61571925E+03</pdfrwt>
<pdfrwt beam="2">  1       -1 0.90291476E-01 0.61571925E+03</pdfrwt>
<totfact> 0.22815919E+01</totfact>
</mgrwt>
</event>
<event>
12    1  0.7781383E-008  0.7080844E+03  0.7818608E-02  0.9703506E-01
          2   -1    0    0  501    0  0.00000000000E+00  0.00000000000E+00  0.44894991749E+04  0.44894991749E+04  0.00000000000E+00 0.  1.
         -2   -1    0    0    0  501 -0.00000000000E+00 -0.00000000000E+00 -0.14919376631E+03  0.14919376631E+03  0.00000000000E+00 0. -1.
         23    2    1    2    0    0 -0.23565495102E+03  0.54686401419E+03  0.81596539917E+03  0.10144025521E+04  0.92841257902E+02 0.  0.
    5000000    2    1    2    0    0  0.23565495102E+03 -0.54686401419E+03  0.35243400094E+04  0.36242903891E+04  0.59992900951E+03 0.  0.
         23    2    4    4    0    0  0.32996208603E+03 -0.85106057578E+02  0.18030292670E+04  0.18372726350E+04  0.92402264411E+02 0.  0.
         23    2    4    4    0    0 -0.94307135009E+02 -0.46175795661E+03  0.17213107424E+04  0.17870177541E+04  0.91692612439E+02 0.  0.
          4    1    3    3  502    0 -0.21635544434E+03  0.40813647860E+03  0.60539280004E+03  0.76150213776E+03  0.00000000000E+00 0. -1.
         -4    1    3    3    0  502 -0.19299506684E+02  0.13872753559E+03  0.21057259913E+03  0.25290041437E+03  0.00000000000E+00 0.  1.
         15    1    5    5    0    0  0.28533186478E+03 -0.63221024109E+02  0.16672126015E+04  0.16926346881E+04  0.17770000000E+01 0. -1.
        -15    1    5    5    0    0  0.44630221249E+02 -0.21885033468E+02  0.13581666550E+03  0.14463794694E+03  0.17770000000E+01 0.  1.
          2    1    6    6  503    0 -0.96053230795E+02 -0.44088712258E+03  0.16910480694E+04  0.17502146300E+04  0.00000000000E+00 0. -1.
         -2    1    6    6    0  503  0.17460957853E+01 -0.20870834027E+02  0.30262673004E+02  0.36803124063E+02  0.00000000000E+00 0.  1.
<mgrwt>
<rscale>  0 0.70808445E+03</rscale>
<asrwt>0</asrwt>
<pdfrwt beam="1">  1        2 0.69069208E+00 0.70808445E+03</pdfrwt>
<pdfrwt beam="2">  1       -2 0.22952891E-01 0.70808445E+03</pdfrwt>
<totfact> 0.24125002E+00</totfact>
</mgrwt>
</event>
<event>
12    1  0.7781383E-008  0.9485136E+03  0.7818608E-02  0.9366890E-01
          1   -1    0    0  501    0  0.00000000000E+00  0.00000000000E+00  0.97744118204E+03  0.97744118204E+03  0.00000000000E+00 0. -1.
         -1   -1    0    0    0  501 -0.00000000000E+00 -0.00000000000E+00 -0.10288319673E+04  0.10288319673E+04  0.00000000000E+00 0.  1.
         23    2    1    2    0    0  0.57449761184E+03  0.64195435045E+03  0.27077560374E+03  0.90810041954E+03  0.95781262843E+02 0.  0.
    5000000    2    1    2    0    0 -0.57449761184E+03 -0.64195435045E+03 -0.32216638904E+03  0.10981727298E+04  0.60003272267E+03 0.  0.
         23    2    4    4    0    0 -0.58196245361E+03 -0.71324075351E+03 -0.32747294487E+03  0.98112263069E+03  0.89277191684E+02 0.  0.
         23    2    4    4    0    0  0.74648417718E+01  0.71286403052E+02  0.53065558331E+01  0.11705009916E+03  0.92385556527E+02 0.  0.
          1    1    3    3  502    0  0.30666695086E+03  0.39513422932E+03  0.12322267845E+03  0.51513057220E+03  0.00000000000E+00 0. -1.
         -1    1    3    3    0  502  0.26783066098E+03  0.24682012113E+03  0.14755292529E+03  0.39296984734E+03  0.00000000000E+00 0.  1.
         15    1    5    5    0    0 -0.35189271410E+03 -0.36272114842E+03 -0.18925137201E+03  0.53964280157E+03  0.17770000000E+01 0.  1.
        -15    1    5    5    0    0 -0.23006973951E+03 -0.35051960508E+03 -0.13822157287E+03  0.44147982912E+03  0.17770000000E+01 0. -1.
          3    1    6    6  503    0  0.40810049524E+02  0.60419090936E+02  0.24691559696E+02  0.76977917690E+02  0.00000000000E+00 0. -1.
         -3    1    6    6    0  503 -0.33345207752E+02  0.10867312116E+02 -0.19385003863E+02  0.40072181465E+02  0.00000000000E+00 0.  1.
<mgrwt>
<rscale>  0 0.94851363E+03</rscale>
<asrwt>0</asrwt>
<pdfrwt beam="1">  1        1 0.15037557E+00 0.94851363E+03</pdfrwt>
<pdfrwt beam="2">  1       -1 0.15828184E+00 0.94851363E+03</pdfrwt>
<totfact> 0.47887985E+00</totfact>
</mgrwt>
</event>
<event>
12    1  0.7781383E-008  0.5871384E+03  0.7818608E-02  0.9932455E-01
         -2   -1    0    0    0  501 -0.00000000000E+00  0.00000000000E+00  0.46491481003E+03  0.46491481003E+03  0.00000000000E+00 0.  1.
          2   -1    0    0  501    0  0.00000000000E+00 -0.00000000000E+00 -0.94183231052E+03  0.94183231052E+03  0.00000000000E+00 0. -1.
         23    2    1    2    0    0  0.45528882906E+03 -0.23139268087E+03 -0.81360453115E+02  0.52495277558E+03  0.90141015260E+02 0.  0.
    5000000    2    1    2    0    0 -0.45528882906E+03  0.23139268087E+03 -0.39555704737E+03  0.88179434497E+03  0.60022112464E+03 0.  0.
         23    2    4    4    0    0 -0.23460806460E+03  0.33366211719E+03 -0.45252899788E+03  0.61614943136E+03  0.92120982497E+02 0.  0.
         23    2    4    4    0    0 -0.22068076445E+03 -0.10226943633E+03  0.56971950504E+02  0.26564491361E+03  0.90345888540E+02 0.  0.
          1    1    3    3  502    0  0.36715983075E+03 -0.14645715575E+03 -0.75346661406E+02  0.40240919370E+03  0.00000000000E+00 0. -1.
         -1    1    3    3    0  502  0.88128998305E+02 -0.84935525114E+02 -0.60137917091E+01  0.12254358188E+03  0.00000000000E+00 0.  1.
         15    1    5    5    0    0 -0.13614525806E+03  0.14166693069E+03 -0.26745356788E+03  0.33187289622E+03  0.17770000000E+01 0.  1.
        -15    1    5    5    0    0 -0.98462806540E+02  0.19199518651E+03 -0.18507543000E+03  0.28427653514E+03  0.17770000000E+01 0. -1.
          1    1    6    6  503    0 -0.16747031242E+03 -0.66422506784E+02  0.80472945652E+02  0.19731738375E+03  0.00000000000E+00 0. -1.
         -1    1    6    6    0  503 -0.53210452038E+02 -0.35846929543E+02 -0.23500995148E+02  0.68327529860E+02  0.00000000000E+00 0.  1.
<mgrwt>
<rscale>  0 0.58713838E+03</rscale>
<asrwt>0</asrwt>
<pdfrwt beam="1">  1        2 0.14489728E+00 0.58713838E+03</pdfrwt>
<pdfrwt beam="2">  1       -2 0.71525356E-01 0.58713838E+03</pdfrwt>
<totfact> 0.50245837E+01</totfact>
</mgrwt>
</event>
<event>
12    1  0.7781383E-008  0.5367629E+03  0.7818608E-02  0.1004605E+00
         -1   -1    0    0    0  501 -0.00000000000E+00  0.00000000000E+00  0.84560634383E+02  0.84560634383E+02  0.00000000000E+00 0.  1.
          1   -1    0    0  501    0  0.00000000000E+00 -0.00000000000E+00 -0.38462853374E+04  0.38462853374E+04  0.00000000000E+00 0. -1.
         23    2    1    2    0    0 -0.40071532792E+03 -0.81631635054E+01 -0.11464193136E+04  0.12178349201E+04  0.90582772011E+02 0.  0.
    5000000    2    1    2    0    0  0.40071532792E+03  0.81631635054E+01 -0.26153053894E+04  0.27130110517E+04  0.59997272917E+03 0.  0.
         23    2    4    4    0    0  0.50797672202E+03  0.84106134005E+02 -0.15530766026E+04  0.16387993563E+04  0.92207400764E+02 0.  0.
         23    2    4    4    0    0 -0.10726139411E+03 -0.75942970500E+02 -0.10622287867E+04  0.10742116954E+04  0.91260230572E+02 0.  0.
          1    1    3    3  502    0 -0.25361796690E+03 -0.36081625641E+02 -0.81147143495E+03  0.85094644166E+03  0.00000000000E+00 0. -1.
         -1    1    3    3    0  502 -0.14709736101E+03  0.27918462135E+02 -0.33494787869E+03  0.36688847841E+03  0.00000000000E+00 0.  1.
         15    1    5    5    0    0  0.15001424927E+03  0.48920184462E+02 -0.36978793708E+03  0.40204941932E+03  0.17770000000E+01 0. -1.
        -15    1    5    5    0    0  0.35796247275E+03  0.35185949543E+02 -0.11832886656E+04  0.12367499370E+04  0.17770000000E+01 0.  1.
          3    1    6    6  503    0 -0.99672820528E+01 -0.47840842095E+02 -0.19246914212E+03  0.19857609008E+03  0.00000000000E+00 0. -1.
         -3    1    6    6    0  503 -0.97294112055E+02 -0.28102128405E+02 -0.86975964460E+03  0.87563560528E+03  0.00000000000E+00 0.  1.
<mgrwt>
<rscale>  0 0.53676288E+03</rscale>
<asrwt>0</asrwt>
<pdfrwt beam="1">  1        1 0.59173630E+00 0.53676288E+03</pdfrwt>
<pdfrwt beam="2">  1       -1 0.13009326E-01 0.53676288E+03</pdfrwt>
<totfact> 0.61654218E+00</totfact>
</mgrwt>
</event>
<event>
12    1  0.7781383E-008  0.1080396E+04  0.7818608E-02  0.9224512E-01
         -2   -1    0    0    0  501 -0.00000000000E+00  0.00000000000E+00  0.18686916514E+04  0.18686916514E+04  0.00000000000E+00 0. -1.
          2   -1    0    0  501    0  0.00000000000E+00 -0.00000000000E+00 -0.79133580508E+03  0.79133580508E+03  0.00000000000E+00 0.  1.
         23    2    1    2    0    0  0.95851086667E+02  0.10584448011E+04  0.55883069378E+02  0.10685139828E+04  0.95427386482E+02 0.  0.
    5000000    2    1    2    0    0 -0.95851086667E+02 -0.10584448011E+04  0.10214727770E+04  0.15915134737E+04  0.60001306241E+03 0.  0.
         23    2    4    4    0    0  0.41262246442E+02 -0.65754033316E+03  0.25751984014E+03  0.71327909334E+03  0.91590033387E+02 0.  0.
         23    2    4    4    0    0 -0.13711333311E+03 -0.40090446798E+03  0.76395293682E+03  0.87823438038E+03  0.90261169008E+02 0.  0.
          1    1    3    3  502    0  0.79732833904E+01  0.47606282111E+03  0.57072949408E+02  0.47953801147E+03  0.00000000000E+00 0. -1.
         -1    1    3    3    0  502  0.87877803276E+02  0.58238198003E+03 -0.11898800299E+01  0.58897597132E+03  0.00000000000E+00 0.  1.
         15    1    5    5    0    0  0.59918682164E+02 -0.56411833176E+03  0.19761101198E+03  0.60072706821E+03  0.17770000000E+01 0. -1.
        -15    1    5    5    0    0 -0.18656435722E+02 -0.93422001405E+02  0.59908828162E+02  0.11255202513E+03  0.17770000000E+01 0.  1.
          3    1    6    6  503    0 -0.10064482943E+03 -0.15696379949E+03  0.33825795438E+03  0.38624533620E+03  0.00000000000E+00 0. -1.
         -3    1    6    6    0  503 -0.36468503681E+02 -0.24394066849E+03  0.42569498245E+03  0.49198904417E+03  0.00000000000E+00 0.  1.
<mgrwt>
<rscale>  0 0.10803963E+04</rscale>
<asrwt>0</asrwt>
<pdfrwt beam="1">  1        2 0.12174397E+00 0.10803963E+04</pdfrwt>
<pdfrwt beam="2">  1       -2 0.28749102E+00 0.10803963E+04</pdfrwt>
<totfact> 0.13151759E+00</totfact>
</mgrwt>
</event>
<event>
12    1  0.7781383E-008  0.1246087E+04  0.7818608E-02  0.9073447E-01
         -1   -1    0    0    0  501 -0.00000000000E+00  0.00000000000E+00  0.14346371267E+04  0.14346371267E+04  0.00000000000E+00 0.  1.
          1   -1    0    0  501    0  0.00000000000E+00 -0.00000000000E+00 -0.11118294790E+04  0.11118294790E+04  0.00000000000E+00 0. -1.
         23    2    1    2    0    0 -0.11694382602E+04  0.15273439214E+03  0.31178727158E+03  0.12233990678E+04  0.92630110781E+02 0.  0.
    5000000    2    1    2    0    0  0.11694382602E+04 -0.15273439214E+03  0.11020376122E+02  0.13230675378E+04  0.59956035713E+03 0.  0.
         23    2    4    4    0    0  0.30228018091E+03 -0.30161235307E+03 -0.16872417484E+02  0.43798691930E+03  0.95940313264E+02 0.  0.
         23    2    4    4    0    0  0.86715807932E+03  0.14887796094E+03  0.27892793606E+02  0.88508061850E+03  0.91988648828E+02 0.  0.
          4    1    3    3  502    0 -0.11008731581E+04  0.13602672414E+03  0.31387212980E+03  0.11527969005E+04  0.00000000000E+00 0. -1.
         -4    1    3    3    0  502 -0.68565102148E+02  0.16707668000E+02 -0.20848582237E+01  0.70602167363E+02  0.00000000000E+00 0.  1.
         15    1    5    5    0    0  0.13250541104E+03 -0.11512399931E+03  0.38657689603E+02  0.17974647109E+03  0.17770000000E+01 0.  1.
        -15    1    5    5    0    0  0.16977476987E+03 -0.18648835377E+03 -0.55530107087E+02  0.25824044822E+03  0.17770000000E+01 0. -1.
          2    1    6    6  503    0  0.83195080766E+02 -0.12749433457E+02  0.74423271612E+00  0.84169610903E+02  0.00000000000E+00 0. -1.
         -2    1    6    6    0  503  0.78396299856E+03  0.16162739440E+03  0.27148560890E+02  0.80091100759E+03  0.00000000000E+00 0.  1.
<mgrwt>
<rscale>  0 0.12460867E+04</rscale>
<asrwt>0</asrwt>
<pdfrwt beam="1">  1        1 0.17105069E+00 0.12460867E+04</pdfrwt>
<pdfrwt beam="2">  1       -1 0.22071340E+00 0.12460867E+04</pdfrwt>
<totfact> 0.13189359E+00</totfact>
</mgrwt>
</event>
<event>
12    1  0.7781383E-008  0.1422043E+04  0.7818608E-02  0.8938015E-01
          2   -1    0    0  501    0  0.00000000000E+00  0.00000000000E+00  0.28415957897E+04  0.28415957897E+04  0.00000000000E+00 0.  1.
         -2   -1    0    0    0  501 -0.00000000000E+00 -0.00000000000E+00 -0.71972697875E+03  0.71972697875E+03  0.00000000000E+00 0. -1.
         23    2    1    2    0    0 -0.91925678095E+03  0.10061997805E+04  0.11230750054E+04  0.17682698270E+04  0.89496848199E+02 0.  0.
    5000000    2    1    2    0    0  0.91925678095E+03 -0.10061997805E+04  0.99879380552E+03  0.17930529414E+04  0.59998229720E+03 0.  0.
         23    2    4    4    0    0  0.33001579208E+03 -0.77867203810E+03  0.54314866922E+03  0.10089881748E+04  0.88352102382E+02 0.  0.
         23    2    4    4    0    0  0.58924098887E+03 -0.22752774243E+03  0.45564513630E+03  0.78406476661E+03  0.90394974764E+02 0.  0.
          1    1    3    3  502    0 -0.57436778322E+03  0.56736171840E+03  0.64457235510E+03  0.10330881816E+04  0.00000000000E+00 0. -1.
         -1    1    3    3    0  502 -0.34488899772E+03  0.43883806213E+03  0.47850265028E+03  0.73518164548E+03  0.00000000000E+00 0.  1.
         15    1    5    5    0    0  0.45543945547E+02 -0.10802270955E+03  0.41030983159E+02  0.12421697172E+03  0.17770000000E+01 0. -1.
        -15    1    5    5    0    0  0.28447184653E+03 -0.67064932854E+03  0.50211768606E+03  0.88477120304E+03  0.17770000000E+01 0.  1.
          1    1    6    6  503    0  0.46300266506E+03 -0.16119192023E+03  0.30899895525E+03  0.57951243071E+03  0.00000000000E+00 0. -1.
         -1    1    6    6    0  503  0.12623832381E+03 -0.66335822198E+02  0.14664618105E+03  0.20455233590E+03  0.00000000000E+00 0.  1.
<mgrwt>
<rscale>  0 0.14220434E+04</rscale>
<asrwt>0</asrwt>
<pdfrwt beam="1">  1        2 0.43716858E+00 0.14220434E+04</pdfrwt>
<pdfrwt beam="2">  1       -2 0.11072723E+00 0.14220434E+04</pdfrwt>
<totfact> 0.13557875E+00</totfact>
</mgrwt>
</event>
<event>
12    1  0.7781383E-008  0.5047217E+03  0.7818608E-02  0.1012554E+00
         -2   -1    0    0    0  501 -0.00000000000E+00  0.00000000000E+00  0.74955961133E+02  0.74955961133E+02  0.00000000000E+00 0.  1.
          2   -1    0    0  501    0  0.00000000000E+00 -0.00000000000E+00 -0.44520272972E+04  0.44520272972E+04  0.00000000000E+00 0. -1.
         23    2    1    2    0    0  0.23960175082E+03  0.23963258844E+03 -0.66687402505E+03  0.75334998558E+03  0.89344608417E+02 0.  0.
    5000000    2    1    2    0    0 -0.23960175082E+03 -0.23963258844E+03 -0.37101973110E+04  0.37736332727E+04  0.59992600717E+03 0.  0.
         23    2    4    4    0    0  0.11010327582E+03  0.11242896602E+03 -0.93138981479E+03  0.94913965765E+03  0.92822943776E+02 0.  0.
         23    2    4    4    0    0 -0.34970502664E+03 -0.35206155446E+03 -0.27788074962E+04  0.28244936151E+04  0.98752908020E+02 0.  0.
          4    1    3    3  502    0  0.16172043629E+03  0.12132412781E+03 -0.46180340143E+03  0.50411846334E+03  0.00000000000E+00 0. -1.
         -4    1    3    3    0  502  0.77881314530E+02  0.11830846064E+03 -0.20507062362E+03  0.24923152225E+03  0.00000000000E+00 0.  1.
         15    1    5    5    0    0  0.17409456305E+02  0.38659082692E+02 -0.49932032997E+03  0.50112030841E+03  0.17770000000E+01 0. -1.
        -15    1    5    5    0    0  0.92693819511E+02  0.73769883324E+02 -0.43206948482E+03  0.44801934925E+03  0.17770000000E+01 0.  1.
          4    1    6    6  503    0 -0.10176530740E+03 -0.48395572398E+02 -0.54175535685E+03  0.55335086147E+03  0.00000000000E+00 0. -1.
         -4    1    6    6    0  503 -0.24793971924E+03 -0.30366598206E+03 -0.22370521394E+04  0.22711427536E+04  0.00000000000E+00 0.  1.
<mgrwt>
<rscale>  0 0.50472174E+03</rscale>
<asrwt>0</asrwt>
<pdfrwt beam="1">  1        2 0.68492760E+00 0.50472174E+03</pdfrwt>
<pdfrwt beam="2">  1       -2 0.11531681E-01 0.50472174E+03</pdfrwt>
<totfact> 0.89612354E+00</totfact>
</mgrwt>
</event>
<event>
12    1  0.7781383E-008  0.1140594E+04  0.7818608E-02  0.9166505E-01
          2   -1    0    0  501    0  0.00000000000E+00  0.00000000000E+00  0.17725652442E+04  0.17725652442E+04  0.00000000000E+00 0. -1.
         -2   -1    0    0    0  501 -0.00000000000E+00 -0.00000000000E+00 -0.79045551540E+03  0.79045551540E+03  0.00000000000E+00 0.  1.
         23    2    1    2    0    0 -0.10462704247E+04  0.25697571406E+03  0.19134257182E+03  0.10980728878E+04  0.91835547598E+02 0.  0.
    5000000    2    1    2    0    0  0.10462704247E+04 -0.25697571406E+03  0.79076715703E+03  0.14649478719E+04  0.60003437518E+03 0.  0.
         23    2    4    4    0    0  0.20824523302E+03 -0.27978338907E+03  0.38946546184E+03  0.53084328463E+03  0.92013178402E+02 0.  0.
         23    2    4    4    0    0  0.83802519170E+03  0.22807675016E+02  0.40130169519E+03  0.93410458724E+03  0.93284068115E+02 0.  0.
          4    1    3    3  502    0 -0.66121875186E+03  0.11687584841E+03  0.11333448765E+03  0.68096615763E+03  0.00000000000E+00 0.  1.
         -4    1    3    3    0  502 -0.38505167287E+03  0.14009986565E+03  0.78008084167E+02  0.41710673014E+03  0.00000000000E+00 0. -1.
         15    1    5    5    0    0  0.16326164777E+03 -0.15674417507E+03  0.21084842474E+03  0.30932720217E+03  0.17770000000E+01 0.  1.
        -15    1    5    5    0    0  0.44983585247E+02 -0.12303921400E+03  0.17861703709E+03  0.22151608247E+03  0.17770000000E+01 0. -1.
          1    1    6    6  503    0  0.22215818757E+03  0.43643894368E+02  0.89046622212E+02  0.24328656096E+03  0.00000000000E+00 0. -1.
         -1    1    6    6    0  503  0.61586700413E+03 -0.20836219353E+02  0.31225507298E+03  0.69081802627E+03  0.00000000000E+00 0.  1.
<mgrwt>
<rscale>  0 0.11405943E+04</rscale>
<asrwt>0</asrwt>
<pdfrwt beam="1">  1        2 0.27270234E+00 0.11405943E+04</pdfrwt>
<pdfrwt beam="2">  1       -2 0.12160854E+00 0.11405943E+04</pdfrwt>
<totfact> 0.45031580E+00</totfact>
</mgrwt>
</event>
<event>
12    1  0.7781383E-008  0.5870646E+03  0.7818608E-02  0.9932612E-01
         -2   -1    0    0    0  501 -0.00000000000E+00  0.00000000000E+00  0.10179846814E+04  0.10179846814E+04  0.00000000000E+00 0.  1.
          2   -1    0    0  501    0  0.00000000000E+00 -0.00000000000E+00 -0.44073659273E+03  0.44073659273E+03  0.00000000000E+00 0. -1.
         23    2    1    2    0    0  0.11557300503E+03  0.50249813610E+03  0.94829817701E+02  0.53220458585E+03  0.91583462474E+02 0.  0.
    5000000    2    1    2    0    0 -0.11557300503E+03 -0.50249813610E+03  0.48241827099E+03  0.92651668830E+03  0.59987022699E+03 0.  0.
         23    2    4    4    0    0  0.82214423571E+02 -0.42593009404E+03  0.53129252746E+03  0.69192819499E+03  0.91198798469E+02 0.  0.
         23    2    4    4    0    0 -0.19778742860E+03 -0.76568042067E+02 -0.48874256469E+02  0.23458849330E+03  0.87524489532E+02 0.  0.
          1    1    3    3  502    0  0.31904519538E+02  0.20060943505E+03  0.80834444654E+02  0.21862353771E+03  0.00000000000E+00 0. -1.
         -1    1    3    3    0  502  0.83668485489E+02  0.30188870106E+03  0.13995373047E+02  0.31358104815E+03  0.00000000000E+00 0.  1.
         15    1    5    5    0    0  0.10770545925E+02 -0.27818858868E+03  0.31453201064E+03  0.42004575819E+03  0.17770000000E+01 0. -1.
        -15    1    5    5    0    0  0.71443877647E+02 -0.14774150536E+03  0.21676051682E+03  0.27188243680E+03  0.17770000000E+01 0.  1.
          4    1    6    6  503    0 -0.72097251774E+02 -0.94306163646E+01  0.21275528367E+02  0.75760136917E+02  0.00000000000E+00 0. -1.
         -4    1    6    6    0  503 -0.12569017682E+03 -0.67137425703E+02 -0.70149784836E+02  0.15882835639E+03  0.00000000000E+00 0.  1.
<mgrwt>
<rscale>  0 0.58706458E+03</rscale>
<asrwt>0</asrwt>
<pdfrwt beam="1">  1        2 0.67805630E-01 0.58706458E+03</pdfrwt>
<pdfrwt beam="2">  1       -2 0.15661303E+00 0.58706458E+03</pdfrwt>
<totfact> 0.19580636E+01</totfact>
</mgrwt>
</event>
<event>
12    1  0.7781383E-008  0.9055626E+03  0.7818608E-02  0.9418654E-01
          2   -1    0    0  501    0  0.00000000000E+00  0.00000000000E+00  0.13720622407E+04  0.13720622407E+04  0.00000000000E+00 0. -1.
         -2   -1    0    0    0  501 -0.00000000000E+00 -0.00000000000E+00 -0.62315367204E+03  0.62315367204E+03  0.00000000000E+00 0.  1.
         23    2    1    2    0    0 -0.60343908964E+03  0.53751200207E+03  0.51231606318E+03  0.96139527977E+03  0.93569482781E+02 0.  0.
    5000000    2    1    2    0    0  0.60343908964E+03 -0.53751200207E+03  0.23659250551E+03  0.10338206330E+04  0.59979263104E+03 0.  0.
         23    2    4    4    0    0 -0.21506912667E+02 -0.32720791039E+03  0.71560175952E+02  0.34784592155E+03  0.91369373643E+02 0.  0.
         23    2    4    4    0    0  0.62494600231E+03 -0.21030409168E+03  0.16503232956E+03  0.68597471144E+03  0.92413841795E+02 0.  0.
          3    1    3    3  502    0 -0.17089901727E+02  0.43731149538E+02  0.29706261245E+02  0.55560238823E+02  0.00000000000E+00 0. -1.
         -3    1    3    3    0  502 -0.58634918791E+03  0.49378085253E+03  0.48260980193E+03  0.90583504095E+03  0.00000000000E+00 0.  1.
         15    1    5    5    0    0 -0.52062729653E+02 -0.16485442655E+03  0.16389883344E+02  0.17366431924E+03  0.17770000000E+01 0. -1.
        -15    1    5    5    0    0  0.30555816985E+02 -0.16235348385E+03  0.55170292608E+02  0.17418160231E+03  0.17770000000E+01 0.  1.
          3    1    6    6  503    0  0.48054061364E+03 -0.16731168674E+03  0.86728992175E+02  0.51617283924E+03  0.00000000000E+00 0. -1.
         -3    1    6    6    0  503  0.14440538866E+03 -0.42992404943E+02  0.78303337388E+02  0.16980187220E+03  0.00000000000E+00 0.  1.
<mgrwt>
<rscale>  0 0.90556261E+03</rscale>
<asrwt>0</asrwt>
<pdfrwt beam="1">  1        2 0.21108650E+00 0.90556261E+03</pdfrwt>
<pdfrwt beam="2">  1       -2 0.95869796E-01 0.90556261E+03</pdfrwt>
<totfact> 0.13757587E+01</totfact>
</mgrwt>
</event>
<event>
12    1  0.7781383E-008  0.5224472E+03  0.7818608E-02  0.1008080E+00
          2   -1    0    0  501    0  0.00000000000E+00  0.00000000000E+00  0.56795027447E+03  0.56795027447E+03  0.00000000000E+00 0. -1.
         -2   -1    0    0    0  501 -0.00000000000E+00 -0.00000000000E+00 -0.75121971794E+03  0.75121971794E+03  0.00000000000E+00 0.  1.
         23    2    1    2    0    0 -0.36549576958E+02 -0.50799468036E+03 -0.10608368753E+03  0.52821662917E+03  0.91458141867E+02 0.  0.
    5000000    2    1    2    0    0  0.36549576958E+02  0.50799468036E+03 -0.77185755945E+02  0.79095336324E+03  0.60021255823E+03 0.  0.
         23    2    4    4    0    0  0.28536132853E+02  0.18260729305E+03  0.24772560173E+03  0.32177524936E+03  0.89507558306E+02 0.  0.
         23    2    4    4    0    0  0.80134441049E+01  0.32538738731E+03 -0.32491135768E+03  0.46917811388E+03  0.92841505205E+02 0.  0.
          3    1    3    3  502    0  0.16869960460E+02 -0.13983506080E+03 -0.60960114461E+02  0.15347499911E+03  0.00000000000E+00 0. -1.
         -3    1    3    3    0  502 -0.53419537419E+02 -0.36815961956E+03 -0.45123573072E+02  0.37474163006E+03  0.00000000000E+00 0.  1.
         15    1    5    5    0    0 -0.27396821621E+02  0.55368229146E+02  0.10955371816E+03  0.12578315279E+03  0.17770000000E+01 0.  1.
        -15    1    5    5    0    0  0.55932954475E+02  0.12723906390E+03  0.13817188357E+03  0.19599209657E+03  0.17770000000E+01 0. -1.
          1    1    6    6  503    0  0.34966007048E+02  0.18119407087E+03 -0.13227216952E+03  0.22704589800E+03  0.00000000000E+00 0. -1.
         -1    1    6    6    0  503 -0.26952562944E+02  0.14419331644E+03 -0.19263918815E+03  0.24213221588E+03  0.00000000000E+00 0.  1.
<mgrwt>
<rscale>  0 0.52244720E+03</rscale>
<asrwt>0</asrwt>
<pdfrwt beam="1">  1        2 0.87376966E-01 0.52244720E+03</pdfrwt>
<pdfrwt beam="2">  1       -2 0.11557226E+00 0.52244720E+03</pdfrwt>
<totfact> 0.31929157E+01</totfact>
</mgrwt>
</event>
<event>
12    1  0.7781383E-008  0.2144741E+04  0.7818608E-02  0.8541787E-01
          1   -1    0    0  501    0  0.00000000000E+00  0.00000000000E+00  0.22304041438E+04  0.22304041438E+04  0.00000000000E+00 0. -1.
         -1   -1    0    0    0  501 -0.00000000000E+00 -0.00000000000E+00 -0.27320617754E+04  0.27320617754E+04  0.00000000000E+00 0.  1.
         23    2    1    2    0    0  0.19889985617E+04 -0.71691881253E+03  0.95916946326E+03  0.23234816334E+04  0.92048787638E+02 0.  0.
    5000000    2    1    2    0    0 -0.19889985617E+04  0.71691881253E+03 -0.14608270949E+04  0.26389842858E+04  0.60011198712E+03 0.  0.
         23    2    4    4    0    0 -0.18756178863E+04  0.54653998399E+03 -0.11991770872E+04  0.22940962483E+04  0.90573178335E+02 0.  0.
         23    2    4    4    0    0 -0.11338067544E+03  0.17037882854E+03 -0.26165000775E+03  0.34488803749E+03  0.92751868276E+02 0.  0.
          4    1    3    3  502    0  0.54973717061E+03 -0.16199855282E+03  0.28491381676E+03  0.64002372678E+03  0.00000000000E+00 0. -1.
         -4    1    3    3    0  502  0.14392613911E+04 -0.55492025971E+03  0.67425564650E+03  0.16834579066E+04  0.00000000000E+00 0.  1.
         15    1    5    5    0    0 -0.10359509264E+04  0.27317077306E+03 -0.61548713915E+03  0.12355744289E+04  0.17770000000E+01 0. -1.
        -15    1    5    5    0    0 -0.83966695990E+03  0.27336921093E+03 -0.58368994801E+03  0.10585218194E+04  0.17770000000E+01 0.  1.
          3    1    6    6  503    0 -0.11953035968E+03  0.17486558936E+03 -0.23144779762E+03  0.31374123773E+03  0.00000000000E+00 0. -1.
         -3    1    6    6    0  503  0.61496842332E+01 -0.44867608185E+01 -0.30202210128E+02  0.31146799762E+02  0.00000000000E+00 0.  1.
<mgrwt>
<rscale>  0 0.21447411E+04</rscale>
<asrwt>0</asrwt>
<pdfrwt beam="1">  1        1 0.34313910E+00 0.21447411E+04</pdfrwt>
<pdfrwt beam="2">  1       -1 0.42031719E+00 0.21447411E+04</pdfrwt>
<totfact> 0.93740535E-03</totfact>
</mgrwt>
</event>
<event>
12    1  0.7781383E-008  0.6300257E+03  0.7818608E-02  0.9844999E-01
          2   -1    0    0  501    0  0.00000000000E+00  0.00000000000E+00  0.55315035711E+03  0.55315035711E+03  0.00000000000E+00 0. -1.
         -2   -1    0    0    0  501 -0.00000000000E+00 -0.00000000000E+00 -0.82430483915E+03  0.82430483915E+03  0.00000000000E+00 0.  1.
         23    2    1    2    0    0 -0.45113163357E+03 -0.29219065926E+03 -0.12168912233E+03  0.55835488115E+03  0.89759671616E+02 0.  0.
    5000000    2    1    2    0    0  0.45113163357E+03  0.29219065926E+03 -0.14946535972E+03  0.81910031511E+03  0.59974186139E+03 0.  0.
         23    2    4    4    0    0  0.16090584420E+03 -0.12887038546E+03 -0.19700186734E+03  0.29915417963E+03  0.90472208479E+02 0.  0.
         23    2    4    4    0    0  0.29022578937E+03  0.42106104471E+03  0.47536507621E+02  0.51994613549E+03  0.80999086770E+02 0.  0.
          3    1    3    3  502    0 -0.73234643448E+02 -0.57377498835E+02 -0.56093925668E+02  0.10863709712E+03  0.00000000000E+00 0. -1.
         -3    1    3    3    0  502 -0.37789699012E+03 -0.23481316042E+03 -0.65595196657E+02  0.44971778403E+03  0.00000000000E+00 0.  1.
         15    1    5    5    0    0  0.36380719013E+02 -0.35393703699E+02 -0.10909623147E+03  0.12033875696E+03  0.17770000000E+01 0.  1.
        -15    1    5    5    0    0  0.12452512519E+03 -0.93476681761E+02 -0.87905635869E+02  0.17881542266E+03  0.17770000000E+01 0. -1.
          4    1    6    6  503    0  0.28834178279E+02  0.85612916169E+02 -0.96518238282E+01  0.90852291964E+02  0.00000000000E+00 0.  1.
         -4    1    6    6    0  503  0.26139161109E+03  0.33544812855E+03  0.57188331449E+02  0.42909384352E+03  0.00000000000E+00 0. -1.
<mgrwt>
<rscale>  0 0.63002573E+03</rscale>
<asrwt>0</asrwt>
<pdfrwt beam="1">  1        2 0.85100056E-01 0.63002573E+03</pdfrwt>
<pdfrwt beam="2">  1       -2 0.12681613E+00 0.63002573E+03</pdfrwt>
<totfact> 0.25885977E+01</totfact>
</mgrwt>
</event>
<event>
12    1  0.7781383E-008  0.1065731E+04  0.7818608E-02  0.9239252E-01
         -2   -1    0    0    0  501 -0.00000000000E+00  0.00000000000E+00  0.12116540782E+04  0.12116540782E+04  0.00000000000E+00 0.  1.
          2   -1    0    0  501    0  0.00000000000E+00 -0.00000000000E+00 -0.10522876570E+04  0.10522876570E+04  0.00000000000E+00 0. -1.
         23    2    1    2    0    0 -0.69696436372E+03 -0.75331521814E+03 -0.13495919620E+03  0.10392247505E+04  0.92363169971E+02 0.  0.
    5000000    2    1    2    0    0  0.69696436372E+03  0.75331521814E+03  0.29432561736E+03  0.12247169847E+04  0.60005081575E+03 0.  0.
         23    2    4    4    0    0  0.59878706193E+03  0.75799583776E+03  0.82383624710E+02  0.97375088654E+03  0.91104839710E+02 0.  0.
         23    2    4    4    0    0  0.98177301789E+02 -0.46806196204E+01  0.21194199265E+03  0.25096609819E+03  0.91672697179E+02 0.  0.
          4    1    3    3  502    0 -0.35139888508E+03 -0.31265874459E+03 -0.55494959919E+02  0.47362047842E+03  0.00000000000E+00 0. -1.
         -4    1    3    3    0  502 -0.34556547865E+03 -0.44065647355E+03 -0.79464236281E+02  0.56560427205E+03  0.00000000000E+00 0.  1.
         15    1    5    5    0    0  0.54633037034E+03  0.67264623778E+03  0.48274948042E+02  0.86790751989E+03  0.17770000000E+01 0. -1.
        -15    1    5    5    0    0  0.52456691598E+02  0.85349599986E+02  0.34108676668E+02  0.10584336665E+03  0.17770000000E+01 0.  1.
          3    1    6    6  503    0  0.11426332690E+03 -0.14990560437E+02  0.18426096868E+03  0.21733138143E+03  0.00000000000E+00 0. -1.
         -3    1    6    6    0  503 -0.16086025113E+02  0.10309940816E+02  0.27681023968E+02  0.33634716759E+02  0.00000000000E+00 0.  1.
<mgrwt>
<rscale>  0 0.10657310E+04</rscale>
<asrwt>0</asrwt>
<pdfrwt beam="1">  1        2 0.16189041E+00 0.10657310E+04</pdfrwt>
<pdfrwt beam="2">  1       -2 0.18640832E+00 0.10657310E+04</pdfrwt>
<totfact> 0.37654850E+00</totfact>
</mgrwt>
</event>
<event>
12    1  0.7781383E-008  0.5765405E+03  0.7818608E-02  0.9955309E-01
         -2   -1    0    0    0  501 -0.00000000000E+00  0.00000000000E+00  0.72354845810E+03  0.72354845810E+03  0.00000000000E+00 0.  1.
          2   -1    0    0  501    0  0.00000000000E+00 -0.00000000000E+00 -0.17758574841E+04  0.17758574841E+04  0.00000000000E+00 0. -1.
         23    2    1    2    0    0 -0.42294433101E+03  0.21503295445E+02 -0.15515710531E+04  0.16114007754E+04  0.99475763138E+02 0.  0.
    5000000    2    1    2    0    0  0.42294433101E+03 -0.21503295445E+02  0.49926202707E+03  0.88800516679E+03  0.59995525311E+03 0.  0.
         23    2    4    4    0    0 -0.50162897814E+02 -0.19119820914E+03  0.10263502210E+03  0.24128705846E+03  0.92803153608E+02 0.  0.
         23    2    4    4    0    0  0.47310722883E+03  0.16969491370E+03  0.39662700496E+03  0.64671810834E+03  0.91129122033E+02 0.  0.
          1    1    3    3  502    0 -0.38628187184E+03 -0.10368589143E+02 -0.13738201161E+04  0.14271310043E+04  0.00000000000E+00 0. -1.
         -1    1    3    3    0  502 -0.36662459174E+02  0.31871884589E+02 -0.17775093703E+03  0.18426977113E+03  0.00000000000E+00 0.  1.
         15    1    5    5    0    0  0.14944151863E+02 -0.34069711910E+02  0.51724483704E+02  0.63738943261E+02  0.17770000000E+01 0. -1.
        -15    1    5    5    0    0 -0.65107049677E+02 -0.15712849723E+03  0.50910538397E+02  0.17754811519E+03  0.17770000000E+01 0.  1.
          1    1    6    6  503    0  0.38899086308E+03  0.10034663004E+03  0.30749444433E+03  0.50590134514E+03  0.00000000000E+00 0. -1.
         -1    1    6    6    0  503  0.84116365748E+02  0.69348283657E+02  0.89132560632E+02  0.14081676320E+03  0.00000000000E+00 0.  1.
<mgrwt>
<rscale>  0 0.57654051E+03</rscale>
<asrwt>0</asrwt>
<pdfrwt beam="1">  1        2 0.27320885E+00 0.57654051E+03</pdfrwt>
<pdfrwt beam="2">  1       -2 0.11131515E+00 0.57654051E+03</pdfrwt>
<totfact> 0.60390157E+00</totfact>
</mgrwt>
</event>
<event>
12    1  0.7781383E-008  0.8215964E+03  0.7818608E-02  0.9529273E-01
         -2   -1    0    0    0  501 -0.00000000000E+00  0.00000000000E+00  0.12941362289E+04  0.12941362289E+04  0.00000000000E+00 0. -1.
          2   -1    0    0  501    0  0.00000000000E+00 -0.00000000000E+00 -0.84450073814E+03  0.84450073814E+03  0.00000000000E+00 0.  1.
         23    2    1    2    0    0 -0.13225774602E+03  0.70500230104E+03 -0.44250441403E+03  0.84620351567E+03  0.75695955268E+02 0.  0.
    5000000    2    1    2    0    0  0.13225774602E+03 -0.70500230104E+03  0.89213990484E+03  0.12924334514E+04  0.59995854912E+03 0.  0.
         23    2    4    4    0    0 -0.20655281698E+03 -0.41468274740E+03  0.53818942066E+03  0.71571051237E+03  0.89262745932E+02 0.  0.
         23    2    4    4    0    0  0.33881056300E+03 -0.29031955364E+03  0.35395048418E+03  0.57672293904E+03  0.90831505234E+02 0.  0.
          3    1    3    3  502    0 -0.14968179303E+02  0.12927369124E+03 -0.11424653120E+03  0.17317044647E+03  0.00000000000E+00 0. -1.
         -3    1    3    3    0  502 -0.11728956672E+03  0.57572860979E+03 -0.32825788283E+03  0.67303306920E+03  0.00000000000E+00 0.  1.
         15    1    5    5    0    0 -0.12485135509E+03 -0.32986246341E+03  0.37958908876E+03  0.51815841175E+03  0.17770000000E+01 0.  1.
        -15    1    5    5    0    0 -0.81701461886E+02 -0.84820283997E+02  0.15860033190E+03  0.19755210062E+03  0.17770000000E+01 0. -1.
          2    1    6    6  503    0  0.29280783402E+03 -0.20292489110E+03  0.28588889555E+03  0.45677937748E+03  0.00000000000E+00 0. -1.
         -2    1    6    6    0  503  0.46002728977E+02 -0.87394662539E+02  0.68061588631E+02  0.11994356156E+03  0.00000000000E+00 0.  1.
<mgrwt>
<rscale>  0 0.82159637E+03</rscale>
<asrwt>0</asrwt>
<pdfrwt beam="1">  1        2 0.12992319E+00 0.82159637E+03</pdfrwt>
<pdfrwt beam="2">  1       -2 0.19909788E+00 0.82159637E+03</pdfrwt>
<totfact> 0.43723109E+00</totfact>
</mgrwt>
</event>
<event>
12    1  0.7781383E-008  0.2102152E+04  0.7818608E-02  0.8560296E-01
          2   -1    0    0  501    0  0.00000000000E+00  0.00000000000E+00  0.31805258995E+04  0.31805258995E+04  0.00000000000E+00 0.  1.
         -2   -1    0    0    0  501 -0.00000000000E+00 -0.00000000000E+00 -0.13959373469E+04  0.13959373469E+04  0.00000000000E+00 0. -1.
         23    2    1    2    0    0 -0.73497137792E+03 -0.19273667570E+04  0.92649283526E+03  0.22631393203E+04  0.92114423355E+02 0.  0.
    5000000    2    1    2    0    0  0.73497137792E+03  0.19273667570E+04  0.85809571732E+03  0.23133239261E+04  0.60017812740E+03 0.  0.
         23    2    4    4    0    0  0.57247380007E+03  0.73376003286E+03  0.29545073222E+03  0.98074546854E+03  0.91872200905E+02 0.  0.
         23    2    4    4    0    0  0.16249757785E+03  0.11936067241E+04  0.56264498510E+03  0.13325784576E+04  0.89963834804E+02 0.  0.
          4    1    3    3  502    0 -0.23512703089E+03 -0.59498400690E+03  0.33361892624E+03  0.72152080848E+03  0.00000000000E+00 0. -1.
         -4    1    3    3    0  502 -0.49984434703E+03 -0.13323827501E+04  0.59287390903E+03  0.15416185118E+04  0.00000000000E+00 0.  1.
         15    1    5    5    0    0  0.22916202994E+02  0.99553460455E+01  0.16910115328E+02  0.30222028456E+02  0.17770000000E+01 0.  1.
        -15    1    5    5    0    0  0.54955759707E+03  0.72380468682E+03  0.27854061689E+03  0.95052344008E+03  0.17770000000E+01 0. -1.
          3    1    6    6  503    0  0.11968123938E+03  0.56265315131E+03  0.25254699837E+03  0.62823733901E+03  0.00000000000E+00 0. -1.
         -3    1    6    6    0  503  0.42816338469E+02  0.63095357284E+03  0.31009798673E+03  0.70434111856E+03  0.00000000000E+00 0.  1.
<mgrwt>
<rscale>  0 0.21021520E+04</rscale>
<asrwt>0</asrwt>
<pdfrwt beam="1">  1        2 0.48931167E+00 0.21021520E+04</pdfrwt>
<pdfrwt beam="2">  1       -2 0.21475959E+00 0.21021520E+04</pdfrwt>
<totfact> 0.12585741E-01</totfact>
</mgrwt>
</event>
<event>
12    1  0.8325326E-008  0.8717365E+03  0.7818608E-02  0.9461619E-01
          2   -1    0    0  501    0  0.00000000000E+00  0.00000000000E+00  0.18423439247E+04  0.18423439247E+04  0.00000000000E+00 0. -1.
         -2   -1    0    0    0  501 -0.00000000000E+00 -0.00000000000E+00 -0.57712208031E+03  0.57712208031E+03  0.00000000000E+00 0.  1.
         23    2    1    2    0    0 -0.63198165496E+03  0.52747160149E+03  0.44298854010E+02  0.82936543603E+03  0.90870982367E+02 0.  0.
    5000000    2    1    2    0    0  0.63198165496E+03 -0.52747160149E+03  0.12209229904E+04  0.15901005690E+04  0.60011646243E+03 0.  0.
         23    2    4    4    0    0  0.50034622493E+03 -0.57767523445E+03  0.11934761467E+04  0.14201362191E+04  0.91359437079E+02 0.  0.
         23    2    4    4    0    0  0.13163543003E+03  0.50203632962E+02  0.27446843705E+02  0.16996434992E+03  0.91028895473E+02 0.  0.
          1    1    3    3  502    0 -0.43047734557E+03  0.30597070930E+03  0.43436492992E+02  0.52992032318E+03  0.00000000000E+00 0. -1.
         -1    1    3    3    0  502 -0.20150430939E+03  0.22150089219E+03  0.86236101762E+00  0.29944511285E+03  0.00000000000E+00 0.  1.
         15    1    5    5    0    0  0.28321835870E+03 -0.34530315078E+03  0.77579605387E+03  0.89515896889E+03  0.17770000000E+01 0. -1.
        -15    1    5    5    0    0  0.21712786622E+03 -0.23237208367E+03  0.41768009280E+03  0.52497725018E+03  0.17770000000E+01 0.  1.
          3    1    6    6  503    0  0.64270557910E+02 -0.45785369466E+01 -0.24326124071E+02  0.68872548428E+02  0.00000000000E+00 0. -1.
         -3    1    6    6    0  503  0.67364872121E+02  0.54782169908E+02  0.51772967777E+02  0.10109180149E+03  0.00000000000E+00 0.  1.
<mgrwt>
<rscale>  0 0.87173649E+03</rscale>
<asrwt>0</asrwt>
<pdfrwt beam="1">  1        2 0.28343752E+00 0.87173649E+03</pdfrwt>
<pdfrwt beam="2">  1       -2 0.88788013E-01 0.87173649E+03</pdfrwt>
<totfact> 0.90437859E+00</totfact>
</mgrwt>
</event>
<event>
12    1  0.1003360E-007  0.1067043E+04  0.7818608E-02  0.9237923E-01
          1   -1    0    0  501    0  0.00000000000E+00  0.00000000000E+00  0.23432216885E+04  0.23432216885E+04  0.00000000000E+00 0. -1.
         -1   -1    0    0    0  501 -0.00000000000E+00 -0.00000000000E+00 -0.64692719431E+03  0.64692719431E+03  0.00000000000E+00 0.  1.
         23    2    1    2    0    0 -0.47081537124E+03  0.93517933169E+03  0.20379674000E+03  0.10708301949E+04  0.94428274078E+02 0.  0.
    5000000    2    1    2    0    0  0.47081537124E+03 -0.93517933169E+03  0.14924977542E+04  0.19193186879E+04  0.60000598591E+03 0.  0.
         23    2    4    4    0    0  0.35106155371E+03 -0.45425860180E+03  0.12078441425E+04  0.13401120006E+04  0.86125547179E+02 0.  0.
         23    2    4    4    0    0  0.11975381753E+03 -0.48092072989E+03  0.28465361169E+03  0.57920668723E+03  0.93952023043E+02 0.  0.
          4    1    3    3  502    0 -0.30709778209E+03  0.51055714120E+03  0.12956664406E+03  0.60972547711E+03  0.00000000000E+00 0. -1.
         -4    1    3    3    0  502 -0.16371758915E+03  0.42462219050E+03  0.74230095936E+02  0.46110471783E+03  0.00000000000E+00 0.  1.
         15    1    5    5    0    0  0.18337950266E+03 -0.17784375846E+03  0.48171742201E+03  0.54526257603E+03  0.17770000000E+01 0.  1.
        -15    1    5    5    0    0  0.16768205105E+03 -0.27641484334E+03  0.72612672050E+03  0.79484942462E+03  0.17770000000E+01 0. -1.
          3    1    6    6  503    0  0.13451886413E+03 -0.39564960251E+03  0.23542831877E+03  0.47964614671E+03  0.00000000000E+00 0. -1.
         -3    1    6    6    0  503 -0.14765046604E+02 -0.85271127385E+02  0.49225292917E+02  0.99560540524E+02  0.00000000000E+00 0.  1.
<mgrwt>
<rscale>  0 0.10670433E+04</rscale>
<asrwt>0</asrwt>
<pdfrwt beam="1">  1        1 0.36049564E+00 0.10670433E+04</pdfrwt>
<pdfrwt beam="2">  1       -1 0.99527262E-01 0.10670433E+04</pdfrwt>
<totfact> 0.16852328E+00</totfact>
</mgrwt>
</event>
<event>
12    1  0.7781383E-008  0.4840174E+03  0.7818608E-02  0.1018037E+00
         -2   -1    0    0    0  501 -0.00000000000E+00  0.00000000000E+00  0.43272650106E+03  0.43272650106E+03  0.00000000000E+00 0.  1.
          2   -1    0    0  501    0  0.00000000000E+00 -0.00000000000E+00 -0.10008420195E+04  0.10008420195E+04  0.00000000000E+00 0. -1.
         23    2    1    2    0    0 -0.37051838469E+03 -0.14778775988E+03  0.13127081019E+03  0.42944581216E+03  0.89814167088E+02 0.  0.
    5000000    2    1    2    0    0  0.37051838469E+03  0.14778775988E+03 -0.69938632864E+03  0.10041227084E+04  0.59999673456E+03 0.  0.
         23    2    4    4    0    0  0.70987751913E+02 -0.10986144474E+03 -0.55010697637E+03  0.57270667445E+03  0.90920028286E+02 0.  0.
         23    2    4    4    0    0  0.29953063278E+03  0.25764920462E+03 -0.14927935226E+03  0.43141603395E+03  0.87941780303E+02 0.  0.
          2    1    3    3  502    0 -0.95224444460E+02 -0.77890129734E+02  0.58606541130E+02  0.13626919606E+03  0.00000000000E+00 0. -1.
         -2    1    3    3    0  502 -0.27529394023E+03 -0.69897630150E+02  0.72664269060E+02  0.29317661610E+03  0.00000000000E+00 0.  1.
         15    1    5    5    0    0  0.87169820907E+02 -0.57448570903E+02 -0.36007709846E+03  0.37491010995E+03  0.17770000000E+01 0. -1.
        -15    1    5    5    0    0 -0.16182068994E+02 -0.52412873838E+02 -0.19002987791E+03  0.19779656450E+03  0.17770000000E+01 0.  1.
          3    1    6    6  503    0  0.10240206566E+03  0.45395985341E+02 -0.65986862947E+02  0.13000478691E+03  0.00000000000E+00 0. -1.
         -3    1    6    6    0  503  0.19712856712E+03  0.21225321928E+03 -0.83292489314E+02  0.30141124704E+03  0.00000000000E+00 0.  1.
<mgrwt>
<rscale>  0 0.48401741E+03</rscale>
<asrwt>0</asrwt>
<pdfrwt beam="1">  1        2 0.15397570E+00 0.48401741E+03</pdfrwt>
<pdfrwt beam="2">  1       -2 0.66573308E-01 0.48401741E+03</pdfrwt>
<totfact> 0.54473010E+01</totfact>
</mgrwt>
</event>
<event>
12    1  0.7781383E-008  0.7538193E+03  0.7818608E-02  0.9629377E-01
         -1   -1    0    0    0  501 -0.00000000000E+00  0.00000000000E+00  0.27781723224E+03  0.27781723224E+03  0.00000000000E+00 0.  1.
          1   -1    0    0  501    0  0.00000000000E+00 -0.00000000000E+00 -0.23960471875E+04  0.23960471875E+04  0.00000000000E+00 0. -1.
         23    2    1    2    0    0 -0.13300664726E+03  0.63944735516E+03 -0.13401307034E+04  0.14937015882E+04  0.92792478660E+02 0.  0.
    5000000    2    1    2    0    0  0.13300664726E+03 -0.63944735516E+03 -0.77809925182E+03  0.11801628315E+04  0.60063480999E+03 0.  0.
         23    2    4    4    0    0  0.13674034688E+03 -0.73169604763E+03 -0.71289614933E+03  0.10347787703E+04  0.92028012791E+02 0.  0.
         23    2    4    4    0    0 -0.37336996249E+01  0.92248692471E+02 -0.65203102488E+02  0.14538406122E+03  0.91440247740E+02 0.  0.
          1    1    3    3  502    0 -0.77339417216E+02  0.49686023496E+03 -0.10910008555E+04  0.12013052673E+04  0.00000000000E+00 0. -1.
         -1    1    3    3    0  502 -0.55667230040E+02  0.14258712021E+03 -0.24912984786E+03  0.29239632084E+03  0.00000000000E+00 0.  1.
         15    1    5    5    0    0 -0.99019441427E+01 -0.12799927489E+03 -0.10988491443E+03  0.16899619823E+03  0.17770000000E+01 0.  1.
        -15    1    5    5    0    0  0.14664229102E+03 -0.60369677275E+03 -0.60301123490E+03  0.86578257206E+03  0.17770000000E+01 0. -1.
          3    1    6    6  503    0  0.19272524464E+02  0.55201825105E+02 -0.80215480315E+02  0.99263260960E+02  0.00000000000E+00 0. -1.
         -3    1    6    6    0  503 -0.23006224089E+02  0.37046867366E+02  0.15012377828E+02  0.46120800259E+02  0.00000000000E+00 0.  1.
<mgrwt>
<rscale>  0 0.75381931E+03</rscale>
<asrwt>0</asrwt>
<pdfrwt beam="1">  1        1 0.36862264E+00 0.75381931E+03</pdfrwt>
<pdfrwt beam="2">  1       -1 0.42741113E-01 0.75381931E+03</pdfrwt>
<totfact> 0.90657876E+00</totfact>
</mgrwt>
</event>
<event>
12    1  0.7781383E-008  0.8591831E+03  0.7818608E-02  0.9478094E-01
         -2   -1    0    0    0  501 -0.00000000000E+00  0.00000000000E+00  0.39157897374E+03  0.39157897374E+03  0.00000000000E+00 0.  1.
          2   -1    0    0  501    0  0.00000000000E+00 -0.00000000000E+00 -0.22463234044E+04  0.22463234044E+04  0.00000000000E+00 0. -1.
         23    2    1    2    0    0 -0.72160969196E+03  0.34415700412E+03 -0.11923800344E+04  0.14387082584E+04  0.94587078529E+02 0.  0.
    5000000    2    1    2    0    0  0.72160969196E+03 -0.34415700412E+03 -0.66236439625E+03  0.11991941197E+04  0.60014610910E+03 0.  0.
         23    2    4    4    0    0  0.10036047070E+03 -0.26023933829E+03 -0.43810706670E+03  0.52634948114E+03  0.85494076607E+02 0.  0.
         23    2    4    4    0    0  0.62124922126E+03 -0.83917665836E+02 -0.22425732954E+03  0.67284463855E+03  0.97137985403E+02 0.  0.
          3    1    3    3  502    0 -0.49904042600E+03  0.25010048156E+03 -0.90432738063E+03  0.10627321436E+04  0.00000000000E+00 0. -1.
         -3    1    3    3    0  502 -0.22256926597E+03  0.94056522564E+02 -0.28805265374E+03  0.37597611482E+03  0.00000000000E+00 0.  1.
         15    1    5    5    0    0  0.78271780070E+02 -0.88606915983E+02 -0.16389679104E+03  0.20209644469E+03  0.17770000000E+01 0. -1.
        -15    1    5    5    0    0  0.22088690629E+02 -0.17163242230E+03 -0.27421027567E+03  0.32425303645E+03  0.17770000000E+01 0.  1.
          2    1    6    6  503    0  0.37616967794E+03 -0.61079376731E+02 -0.18487790021E+03  0.42357308089E+03  0.00000000000E+00 0. -1.
         -2    1    6    6    0  503  0.24507954332E+03 -0.22838289104E+02 -0.39379429328E+02  0.24927155766E+03  0.00000000000E+00 0.  1.
<mgrwt>
<rscale>  0 0.85918313E+03</rscale>
<asrwt>0</asrwt>
<pdfrwt beam="1">  1        2 0.34558821E+00 0.85918313E+03</pdfrwt>
<pdfrwt beam="2">  1       -2 0.60242921E-01 0.85918313E+03</pdfrwt>
<totfact> 0.12796114E+01</totfact>
</mgrwt>
</event>
<event>
12    1  0.7781383E-008  0.5049028E+03  0.7818608E-02  0.1012507E+00
         -2   -1    0    0    0  501 -0.00000000000E+00  0.00000000000E+00  0.88528516061E+03  0.88528516061E+03  0.00000000000E+00 0.  1.
          2   -1    0    0  501    0  0.00000000000E+00 -0.00000000000E+00 -0.62814107538E+03  0.62814107538E+03  0.00000000000E+00 0. -1.
         23    2    1    2    0    0  0.73564140556E+02  0.35316901727E+03  0.62179629658E+03  0.72439713666E+03  0.89333866031E+02 0.  0.
    5000000    2    1    2    0    0 -0.73564140556E+02 -0.35316901727E+03 -0.36465221134E+03  0.78902909933E+03  0.59954620074E+03 0.  0.
         23    2    4    4    0    0 -0.24752005487E+02 -0.48658380096E+03 -0.15213904770E+03  0.51851680380E+03  0.91306784248E+02 0.  0.
         23    2    4    4    0    0 -0.48812135069E+02  0.13341478369E+03 -0.21251316365E+03  0.27051229554E+03  0.88503831983E+02 0.  0.
          2    1    3    3  502    0  0.55341667055E+01  0.21312053387E+03  0.31513998907E+03  0.38047891094E+03  0.00000000000E+00 0. -1.
         -2    1    3    3    0  502  0.68029973851E+02  0.14004848340E+03  0.30665630751E+03  0.34391822572E+03  0.00000000000E+00 0.  1.
         15    1    5    5    0    0  0.30989124613E+02 -0.10231807195E+03 -0.23536644958E+02  0.10948262454E+03  0.17770000000E+01 0. -1.
        -15    1    5    5    0    0 -0.55741130099E+02 -0.38426572901E+03 -0.12860240274E+03  0.40903417925E+03  0.17770000000E+01 0.  1.
          4    1    6    6  503    0 -0.34303675836E+02  0.47622079002E+02 -0.24997136581E+02  0.63792330429E+02  0.00000000000E+00 0. -1.
         -4    1    6    6    0  503 -0.14508459233E+02  0.85792704690E+02 -0.18751602707E+03  0.20671996511E+03  0.00000000000E+00 0.  1.
<mgrwt>
<rscale>  0 0.50490281E+03</rscale>
<asrwt>0</asrwt>
<pdfrwt beam="1">  1        2 0.96637088E-01 0.50490281E+03</pdfrwt>
<pdfrwt beam="2">  1       -2 0.13619772E+00 0.50490281E+03</pdfrwt>
<totfact> 0.18852192E+01</totfact>
</mgrwt>
</event>
<event>
12    1  0.7781383E-008  0.1656056E+04  0.7818608E-02  0.8786832E-01
          3   -1    0    0  501    0  0.00000000000E+00  0.00000000000E+00  0.16681508268E+04  0.16681508268E+04  0.00000000000E+00 0. -1.
         -3   -1    0    0    0  501 -0.00000000000E+00 -0.00000000000E+00 -0.16877559940E+04  0.16877559940E+04  0.00000000000E+00 0.  1.
         23    2    1    2    0    0 -0.94068552575E+03 -0.13206821544E+04  0.59516982861E+02  0.16251670196E+04  0.92384842644E+02 0.  0.
    5000000    2    1    2    0    0  0.94068552575E+03  0.13206821544E+04 -0.79122150017E+02  0.17307398012E+04  0.60009110427E+03 0.  0.
         23    2    4    4    0    0  0.57836477611E+03  0.11188163359E+04  0.10483277636E+03  0.12670780933E+04  0.90780922230E+02 0.  0.
         23    2    4    4    0    0  0.36232074964E+03  0.20186581847E+03 -0.18395492637E+03  0.46366170783E+03  0.95481045673E+02 0.  0.
          2    1    3    3  502    0 -0.13165387172E+02 -0.44486237322E+02  0.35172731995E+01  0.46526593914E+02  0.00000000000E+00 0.  1.
         -2    1    3    3    0  502 -0.92752013858E+03 -0.12761959171E+04  0.55999709662E+02  0.15786404257E+04  0.00000000000E+00 0. -1.
         15    1    5    5    0    0  0.28902693551E+03  0.65519491772E+03  0.50895534302E+02  0.71792093074E+03  0.17770000000E+01 0. -1.
        -15    1    5    5    0    0  0.28933784060E+03  0.46362141820E+03  0.53937242053E+02  0.54915716259E+03  0.17770000000E+01 0.  1.
          1    1    6    6  503    0  0.27684738015E+03  0.19711277834E+03 -0.14191018104E+03  0.36828849937E+03  0.00000000000E+00 0. -1.
         -1    1    6    6    0  503  0.85473369487E+02  0.47530401265E+01 -0.42044745327E+02  0.95373208458E+02  0.00000000000E+00 0.  1.
<mgrwt>
<rscale>  0 0.16560561E+04</rscale>
<asrwt>0</asrwt>
<pdfrwt beam="1">  1        3 0.25663859E+00 0.16560561E+04</pdfrwt>
<pdfrwt beam="2">  1       -3 0.25965477E+00 0.16560561E+04</pdfrwt>
<totfact> 0.10286259E-02</totfact>
</mgrwt>
</event>
<event>
12    1  0.7781383E-008  0.6863638E+03  0.7818608E-02  0.9740840E-01
         -2   -1    0    0    0  501 -0.00000000000E+00  0.00000000000E+00  0.12336115161E+04  0.12336115161E+04  0.00000000000E+00 0.  1.
          2   -1    0    0  501    0  0.00000000000E+00 -0.00000000000E+00 -0.42471546324E+03  0.42471546324E+03  0.00000000000E+00 0. -1.
         23    2    1    2    0    0  0.50568480552E+03  0.27857422502E+03  0.50320241064E+03  0.77126442636E+03  0.91188968226E+02 0.  0.
    5000000    2    1    2    0    0 -0.50568480552E+03 -0.27857422502E+03  0.30569364222E+03  0.88706255298E+03  0.60009220011E+03 0.  0.
         23    2    4    4    0    0 -0.87069326112E+02 -0.34137517382E+03  0.13696842611E+02  0.36399209042E+03  0.90468566587E+02 0.  0.
         23    2    4    4    0    0 -0.41861547940E+03  0.62800948800E+02  0.29199679961E+03  0.52307046257E+03  0.95695867519E+02 0.  0.
          3    1    3    3  502    0  0.36542926523E+03  0.15369690234E+03  0.33045620613E+03  0.51610327440E+03  0.00000000000E+00 0. -1.
         -3    1    3    3    0  502  0.14025554029E+03  0.12487732267E+03  0.17274620451E+03  0.25516115197E+03  0.00000000000E+00 0.  1.
         15    1    5    5    0    0 -0.30325457031E+02 -0.27366797606E+03  0.84792287343E+01  0.27547930868E+03  0.17770000000E+01 0.  1.
        -15    1    5    5    0    0 -0.56743869081E+02 -0.67707197761E+02  0.52176138764E+01  0.88512781736E+02  0.17770000000E+01 0. -1.
          3    1    6    6  503    0 -0.13346647753E+03  0.33338278374E+01  0.44169681691E+02  0.14062494733E+03  0.00000000000E+00 0. -1.
         -3    1    6    6    0  503 -0.28514900188E+03  0.59467120963E+02  0.24782711792E+03  0.38244551523E+03  0.00000000000E+00 0.  1.
<mgrwt>
<rscale>  0 0.68636384E+03</rscale>
<asrwt>0</asrwt>
<pdfrwt beam="1">  1        2 0.65340841E-01 0.68636384E+03</pdfrwt>
<pdfrwt beam="2">  1       -2 0.18978639E+00 0.68636384E+03</pdfrwt>
<totfact> 0.11830939E+01</totfact>
</mgrwt>
</event>
<event>
12    1  0.7781383E-008  0.9998661E+03  0.7818608E-02  0.9308692E-01
         -1   -1    0    0    0  501 -0.00000000000E+00  0.00000000000E+00  0.14999171970E+04  0.14999171970E+04  0.00000000000E+00 0.  1.
          1   -1    0    0  501    0  0.00000000000E+00 -0.00000000000E+00 -0.83625757476E+03  0.83625757476E+03  0.00000000000E+00 0. -1.
         23    2    1    2    0    0 -0.96758163583E+03 -0.26670229754E+02  0.69750842613E+03  0.11968177948E+04  0.94495006080E+02 0.  0.
    5000000    2    1    2    0    0  0.96758163583E+03  0.26670229754E+02 -0.33848803896E+02  0.11393569770E+04  0.60005254466E+03 0.  0.
         23    2    4    4    0    0  0.95046082614E+03  0.58493416066E+02  0.11284066336E+03  0.96309155184E+03  0.89526868384E+02 0.  0.
         23    2    4    4    0    0  0.17120809687E+02 -0.31823186312E+02 -0.14668946725E+03  0.17626542515E+03  0.90806734276E+02 0.  0.
          4    1    3    3  502    0 -0.71613350850E+03 -0.58035945884E+02  0.49587575762E+03  0.87298805261E+03  0.00000000000E+00 0. -1.
         -4    1    3    3    0  502 -0.25144812733E+03  0.31365716130E+02  0.20163266851E+03  0.32382974214E+03  0.00000000000E+00 0.  1.
         15    1    5    5    0    0  0.81119504079E+03  0.49189426518E+02  0.12791596460E+03  0.82269231527E+03  0.17770000000E+01 0.  1.
        -15    1    5    5    0    0  0.13926578535E+03  0.93039895480E+01 -0.15075301242E+02  0.14039923657E+03  0.17770000000E+01 0. -1.
          1    1    6    6  503    0  0.38709504905E+02 -0.36815530245E+02 -0.38547211007E+02  0.65876372955E+02  0.00000000000E+00 0. -1.
         -1    1    6    6    0  503 -0.21588695218E+02  0.49923439332E+01 -0.10814225625E+03  0.11038905220E+03  0.00000000000E+00 0.  1.
<mgrwt>
<rscale>  0 0.99986608E+03</rscale>
<asrwt>0</asrwt>
<pdfrwt beam="1">  1        1 0.12865501E+00 0.99986608E+03</pdfrwt>
<pdfrwt beam="2">  1       -1 0.23075649E+00 0.99986608E+03</pdfrwt>
<totfact> 0.19315660E+00</totfact>
</mgrwt>
</event>
<event>
12    1  0.7781383E-008  0.6536992E+03  0.7818608E-02  0.9799863E-01
          1   -1    0    0  501    0  0.00000000000E+00  0.00000000000E+00  0.18158190021E+04  0.18158190021E+04  0.00000000000E+00 0. -1.
         -1   -1    0    0    0  501 -0.00000000000E+00 -0.00000000000E+00 -0.41866297936E+03  0.41866297936E+03  0.00000000000E+00 0.  1.
         23    2    1    2    0    0  0.46618342883E+03  0.42561376432E+03  0.11734028224E+04  0.13352942120E+04  0.87535039190E+02 0.  0.
    5000000    2    1    2    0    0 -0.46618342883E+03 -0.42561376432E+03  0.22375320029E+03  0.89918776949E+03  0.59999923706E+03 0.  0.
         23    2    4    4    0    0  0.76394246310E+00 -0.22570031991E+02  0.25909153752E+03  0.27563696717E+03  0.91308942099E+02 0.  0.
         23    2    4    4    0    0 -0.46694737129E+03 -0.40304373233E+03 -0.35338337226E+02  0.62355080232E+03  0.84158821683E+02 0.  0.
          3    1    3    3  502    0  0.30309781922E+03  0.28279962760E+03  0.68039259156E+03  0.79672956267E+03  0.00000000000E+00 0. -1.
         -3    1    3    3    0  502  0.16308560961E+03  0.14281413672E+03  0.49301023088E+03  0.53856464928E+03  0.00000000000E+00 0.  1.
         15    1    5    5    0    0  0.90237531301E+01  0.16597827362E+02  0.67597976058E+01  0.20143698428E+02  0.17770000000E+01 0.  1.
        -15    1    5    5    0    0 -0.82598106670E+01 -0.39167859352E+02  0.25233173991E+03  0.25549326875E+03  0.17770000000E+01 0. -1.
          1    1    6    6  503    0 -0.32304701288E+03 -0.28835815815E+03  0.13271573334E+02  0.43322734743E+03  0.00000000000E+00 0. -1.
         -1    1    6    6    0  503 -0.14390035841E+03 -0.11468557418E+03 -0.48609910560E+02  0.19032345488E+03  0.00000000000E+00 0.  1.
<mgrwt>
<rscale>  0 0.65369915E+03</rscale>
<asrwt>0</asrwt>
<pdfrwt beam="1">  1        1 0.27935677E+00 0.65369915E+03</pdfrwt>
<pdfrwt beam="2">  1       -1 0.64409690E-01 0.65369915E+03</pdfrwt>
<totfact> 0.10295437E+01</totfact>
</mgrwt>
</event>
<event>
12    1  0.7781383E-008  0.4624727E+03  0.7818608E-02  0.1024066E+00
         -2   -1    0    0    0  501 -0.00000000000E+00  0.00000000000E+00  0.12764850049E+03  0.12764850049E+03  0.00000000000E+00 0.  1.
          2   -1    0    0  501    0  0.00000000000E+00 -0.00000000000E+00 -0.23306126972E+04  0.23306126972E+04  0.00000000000E+00 0. -1.
         23    2    1    2    0    0  0.14553989533E+03  0.33452560326E+03 -0.59869782349E+03  0.70703152398E+03  0.91461749808E+02 0.  0.
    5000000    2    1    2    0    0 -0.14553989533E+03 -0.33452560326E+03 -0.16042663733E+04  0.17512296738E+04  0.60003794335E+03 0.  0.
         23    2    4    4    0    0 -0.25611418249E+03 -0.30610713935E+03 -0.54422844566E+03  0.68104472864E+03  0.91330532239E+02 0.  0.
         23    2    4    4    0    0  0.11057428715E+03 -0.28418463913E+02 -0.10600379276E+04  0.10701849451E+04  0.92634371034E+02 0.  0.
          3    1    3    3  502    0  0.13731682225E+03  0.21797188260E+03 -0.38030968301E+03  0.45935074428E+03  0.00000000000E+00 0. -1.
         -3    1    3    3    0  502  0.82230730794E+01  0.11655372066E+03 -0.21838814048E+03  0.24768077970E+03  0.00000000000E+00 0.  1.
         15    1    5    5    0    0 -0.12200946639E+03 -0.95500767428E+02 -0.26046935527E+03  0.30307449452E+03  0.17770000000E+01 0.  1.
        -15    1    5    5    0    0 -0.13410471610E+03 -0.21060637192E+03 -0.28375909039E+03  0.37797023412E+03  0.17770000000E+01 0. -1.
          3    1    6    6  503    0  0.24064714528E+02 -0.51040252322E+02 -0.47782080931E+03  0.48114129281E+03  0.00000000000E+00 0. -1.
         -3    1    6    6    0  503  0.86509572625E+02  0.22621788408E+02 -0.58221711830E+03  0.58904365230E+03  0.00000000000E+00 0.  1.
<mgrwt>
<rscale>  0 0.46247272E+03</rscale>
<asrwt>0</asrwt>
<pdfrwt beam="1">  1        2 0.35855576E+00 0.46247272E+03</pdfrwt>
<pdfrwt beam="2">  1       -2 0.19638233E-01 0.46247272E+03</pdfrwt>
<totfact> 0.10339938E+02</totfact>
</mgrwt>
</event>
<event>
12    1  0.7781383E-008  0.1286524E+04  0.7818608E-02  0.9040321E-01
         -2   -1    0    0    0  501 -0.00000000000E+00  0.00000000000E+00  0.84852517111E+03  0.84852517111E+03  0.00000000000E+00 0.  1.
          2   -1    0    0  501    0  0.00000000000E+00 -0.00000000000E+00 -0.30484825462E+04  0.30484825462E+04  0.00000000000E+00 0. -1.
         23    2    1    2    0    0  0.11987429043E+04  0.39377710682E+03  0.30163917256E+02  0.12653774659E+04  0.90693488498E+02 0.  0.
    5000000    2    1    2    0    0 -0.11987429043E+04 -0.39377710682E+03 -0.22301212923E+04  0.26316302514E+04  0.59999320085E+03 0.  0.
         23    2    4    4    0    0 -0.63387213083E+03 -0.38866216659E+03 -0.16717881849E+04  0.18320094914E+04  0.92362780910E+02 0.  0.
         23    2    4    4    0    0 -0.56487077347E+03 -0.51149402265E+01 -0.55833310740E+03  0.79962076000E+03  0.92478903921E+02 0.  0.
          4    1    3    3  502    0  0.25402185224E+03  0.89689858316E+02 -0.30259051133E+02  0.27108482487E+03  0.00000000000E+00 0. -1.
         -4    1    3    3    0  502  0.94472105206E+03  0.30408724850E+03  0.60422968390E+02  0.99429264104E+03  0.00000000000E+00 0.  1.
         15    1    5    5    0    0 -0.37666269960E+03 -0.19465325746E+03 -0.10312867826E+04  0.11150427192E+04  0.17770000000E+01 0.  1.
        -15    1    5    5    0    0 -0.25720943123E+03 -0.19400890913E+03 -0.64050140233E+03  0.71696677221E+03  0.17770000000E+01 0. -1.
          2    1    6    6  503    0 -0.22136648671E+03 -0.81010685482E+01 -0.15790212550E+03  0.27203277374E+03  0.00000000000E+00 0. -1.
         -2    1    6    6    0  503 -0.34350428676E+03  0.29861283218E+01 -0.40043098190E+03  0.52758798626E+03  0.00000000000E+00 0.  1.
<mgrwt>
<rscale>  0 0.12865235E+04</rscale>
<asrwt>0</asrwt>
<pdfrwt beam="1">  1        2 0.46899733E+00 0.12865235E+04</pdfrwt>
<pdfrwt beam="2">  1       -2 0.13054233E+00 0.12865235E+04</pdfrwt>
<totfact> 0.68064560E-01</totfact>
</mgrwt>
</event>
<event>
12    1  0.7781383E-008  0.7123001E+03  0.7818608E-02  0.9696426E-01
          2   -1    0    0  501    0  0.00000000000E+00  0.00000000000E+00  0.18337175921E+04  0.18337175921E+04  0.00000000000E+00 0. -1.
         -2   -1    0    0    0  501 -0.00000000000E+00 -0.00000000000E+00 -0.31731497516E+03  0.31731497516E+03  0.00000000000E+00 0.  1.
         23    2    1    2    0    0  0.37421508445E+03 -0.51399722028E+03  0.53854763070E+03  0.83926003160E+03  0.10046779695E+03 0.  0.
    5000000    2    1    2    0    0 -0.37421508445E+03  0.51399722028E+03  0.97785498619E+03  0.13117725356E+04  0.60026389139E+03 0.  0.
         23    2    4    4    0    0 -0.45029650141E+03  0.32761133691E+03  0.39595816278E+03  0.68921606901E+03  0.90220817199E+02 0.  0.
         23    2    4    4    0    0  0.76081416962E+02  0.18638588336E+03  0.58189682340E+03  0.62255646660E+03  0.91894295235E+02 0.  0.
          4    1    3    3  502    0  0.17560925625E+02 -0.73009404356E+02  0.45879643760E+02  0.87998300806E+02  0.00000000000E+00 0. -1.
         -4    1    3    3    0  502  0.35665415882E+03 -0.44098781592E+03  0.49266798694E+03  0.75126173079E+03  0.00000000000E+00 0.  1.
         15    1    5    5    0    0 -0.10263929944E+03  0.11998459456E+03  0.13230956244E+03  0.20600996763E+03  0.17770000000E+01 0.  1.
        -15    1    5    5    0    0 -0.34765720197E+03  0.20762674235E+03  0.26364860034E+03  0.48320610138E+03  0.17770000000E+01 0. -1.
          1    1    6    6  503    0  0.22657582793E+02 -0.28782769840E+01  0.39767225607E+02  0.45859380380E+02  0.00000000000E+00 0. -1.
         -1    1    6    6    0  503  0.53423834170E+02  0.18926416035E+03  0.54212959780E+03  0.57669708622E+03  0.00000000000E+00 0.  1.
<mgrwt>
<rscale>  0 0.71230006E+03</rscale>
<asrwt>0</asrwt>
<pdfrwt beam="1">  1        2 0.28211039E+00 0.71230006E+03</pdfrwt>
<pdfrwt beam="2">  1       -2 0.48817690E-01 0.71230006E+03</pdfrwt>
<totfact> 0.33946258E+01</totfact>
</mgrwt>
</event>
<event>
12    1  0.7781383E-008  0.5766808E+03  0.7818608E-02  0.9955003E-01
          1   -1    0    0  501    0  0.00000000000E+00  0.00000000000E+00  0.12372114928E+04  0.12372114928E+04  0.00000000000E+00 0. -1.
         -1   -1    0    0    0  501 -0.00000000000E+00 -0.00000000000E+00 -0.40805455546E+03  0.40805455546E+03  0.00000000000E+00 0.  1.
         23    2    1    2    0    0 -0.53544031329E+03 -0.84754743854E+02  0.58278651114E+03  0.80017606229E+03  0.82230878649E+02 0.  0.
    5000000    2    1    2    0    0  0.53544031329E+03  0.84754743854E+02  0.24637042621E+03  0.84508998598E+03  0.59966574172E+03 0.  0.
         23    2    4    4    0    0  0.24779337028E+03  0.15500521959E+03  0.39679265473E+03  0.50108141219E+03  0.90609041195E+02 0.  0.
         23    2    4    4    0    0  0.28764694301E+03 -0.70250475732E+02 -0.15042222852E+03  0.34400857378E+03  0.89661356444E+02 0.  0.
          1    1    3    3  502    0 -0.12347762992E+03 -0.46967977833E+02  0.10964023381E+03  0.17167905202E+03  0.00000000000E+00 0. -1.
         -1    1    3    3    0  502 -0.41196268337E+03 -0.37786766021E+02  0.47314627733E+03  0.62849701027E+03  0.00000000000E+00 0.  1.
         15    1    5    5    0    0  0.10130198850E+03  0.11172566523E+03  0.22858546945E+03  0.27385980304E+03  0.17770000000E+01 0.  1.
        -15    1    5    5    0    0  0.14649138177E+03  0.43279554351E+02  0.16820718528E+03  0.22722160916E+03  0.17770000000E+01 0. -1.
          4    1    6    6  503    0  0.21938756446E+03 -0.22216754035E+02 -0.13663872687E+03  0.25941208392E+03  0.00000000000E+00 0.  1.
         -4    1    6    6    0  503  0.68259378546E+02 -0.48033721698E+02 -0.13783501645E+02  0.84596489863E+02  0.00000000000E+00 0. -1.
<mgrwt>
<rscale>  0 0.57668083E+03</rscale>
<asrwt>0</asrwt>
<pdfrwt beam="1">  1        1 0.19034023E+00 0.57668083E+03</pdfrwt>
<pdfrwt beam="2">  1       -1 0.62777624E-01 0.57668083E+03</pdfrwt>
<totfact> 0.27245416E+01</totfact>
</mgrwt>
</event>
<event>
12    1  0.7781383E-008  0.7379894E+03  0.7818608E-02  0.9654384E-01
         -2   -1    0    0    0  501 -0.00000000000E+00  0.00000000000E+00  0.66630351915E+03  0.66630351915E+03  0.00000000000E+00 0. -1.
          2   -1    0    0  501    0  0.00000000000E+00 -0.00000000000E+00 -0.97881828806E+03  0.97881828806E+03  0.00000000000E+00 0.  1.
         23    2    1    2    0    0  0.68871679953E+03 -0.47895452533E+02 -0.19347637509E+03  0.72273954094E+03  0.91074321229E+02 0.  0.
    5000000    2    1    2    0    0 -0.68871679953E+03  0.47895452533E+02 -0.11903839382E+03  0.92238226627E+03  0.59999508464E+03 0.  0.
         23    2    4    4    0    0 -0.61399478555E+02  0.10981739780E+03 -0.22906091811E+03  0.27637400126E+03  0.89910664207E+02 0.  0.
         23    2    4    4    0    0 -0.62731732098E+03 -0.61921945272E+02  0.11002252429E+03  0.64600826501E+03  0.88658750872E+02 0.  0.
          2    1    3    3  502    0  0.19549283571E+03  0.18875377479E+01 -0.94841094720E+02  0.21729207270E+03  0.00000000000E+00 0. -1.
         -2    1    3    3    0  502  0.49322396383E+03 -0.49782990280E+02 -0.98635280365E+02  0.50544746824E+03  0.00000000000E+00 0.  1.
         15    1    5    5    0    0 -0.84298287231E+02  0.86728048070E+02 -0.19310964930E+03  0.22786498181E+03  0.17770000000E+01 0. -1.
        -15    1    5    5    0    0  0.22898808676E+02  0.23089349734E+02 -0.35951268807E+02  0.48509019448E+02  0.17770000000E+01 0.  1.
          3    1    6    6  503    0 -0.55563095472E+03 -0.44264239683E+02  0.69271485600E+02  0.56167928525E+03  0.00000000000E+00 0. -1.
         -3    1    6    6    0  503 -0.71686366255E+02 -0.17657705589E+02  0.40751038687E+02  0.84328979761E+02  0.00000000000E+00 0.  1.
<mgrwt>
<rscale>  0 0.73798939E+03</rscale>
<asrwt>0</asrwt>
<pdfrwt beam="1">  1        2 0.15058743E+00 0.73798939E+03</pdfrwt>
<pdfrwt beam="2">  1       -2 0.10250823E+00 0.73798939E+03</pdfrwt>
<totfact> 0.20596068E+01</totfact>
</mgrwt>
</event>
<event>
12    1  0.7781383E-008  0.6256814E+03  0.7818608E-02  0.9853513E-01
          1   -1    0    0  501    0  0.00000000000E+00  0.00000000000E+00  0.14147139929E+04  0.14147139929E+04  0.00000000000E+00 0. -1.
         -1   -1    0    0    0  501 -0.00000000000E+00 -0.00000000000E+00 -0.39248832146E+03  0.39248832146E+03  0.00000000000E+00 0.  1.
         23    2    1    2    0    0  0.61014582777E+03 -0.37077962968E+01  0.56756789468E+03  0.83823193500E+03  0.90596814963E+02 0.  0.
    5000000    2    1    2    0    0 -0.61014582777E+03  0.37077962968E+01  0.45465777675E+03  0.96897037935E+03  0.59991518000E+03 0.  0.
         23    2    4    4    0    0 -0.34872868601E+03 -0.66295100881E+02  0.55553606332E+03  0.66557734088E+03  0.91466617935E+02 0.  0.
         23    2    4    4    0    0 -0.26141714176E+03  0.70002897178E+02 -0.10087828657E+03  0.30339303847E+03  0.92906294029E+02 0.  0.
          2    1    3    3  502    0  0.31819831697E+03 -0.15326104418E+02  0.23705892259E+03  0.39709191780E+03  0.00000000000E+00 0.  1.
         -2    1    3    3    0  502  0.29194751080E+03  0.11618308121E+02  0.33050897208E+03  0.44114001720E+03  0.00000000000E+00 0. -1.
         15    1    5    5    0    0 -0.28681090328E+02 -0.21884111360E+02  0.23449245579E+02  0.43064418255E+02  0.17770000000E+01 0.  1.
        -15    1    5    5    0    0 -0.32004759568E+03 -0.44410989521E+02  0.53208681774E+03  0.62251292262E+03  0.17770000000E+01 0. -1.
          1    1    6    6  503    0 -0.26697383589E+03  0.68547311724E+02 -0.88079621792E+02  0.28936444628E+03  0.00000000000E+00 0. -1.
         -1    1    6    6    0  503  0.55566941313E+01  0.14555854536E+01 -0.12798664780E+02  0.14028592190E+02  0.00000000000E+00 0.  1.
<mgrwt>
<rscale>  0 0.62568139E+03</rscale>
<asrwt>0</asrwt>
<pdfrwt beam="1">  1        1 0.21764830E+00 0.62568139E+03</pdfrwt>
<pdfrwt beam="2">  1       -1 0.60382820E-01 0.62568139E+03</pdfrwt>
<totfact> 0.21936979E+01</totfact>
</mgrwt>
</event>
<event>
12    1  0.7781383E-008  0.6052045E+03  0.7818608E-02  0.9894667E-01
          2   -1    0    0  501    0  0.00000000000E+00  0.00000000000E+00  0.54340368037E+03  0.54340368037E+03  0.00000000000E+00 0. -1.
         -2   -1    0    0    0  501 -0.00000000000E+00 -0.00000000000E+00 -0.83309555330E+03  0.83309555330E+03  0.00000000000E+00 0.  1.
         23    2    1    2    0    0 -0.11904356922E+03  0.51828603563E+03 -0.66038822486E+02  0.54394869620E+03  0.93419868943E+02 0.  0.
    5000000    2    1    2    0    0  0.11904356922E+03 -0.51828603563E+03 -0.22365305045E+03  0.83255053748E+03  0.60027320811E+03 0.  0.
         23    2    4    4    0    0  0.23810451865E+03 -0.17276985913E+03 -0.31928456281E+03  0.44376957695E+03  0.91900050865E+02 0.  0.
         23    2    4    4    0    0 -0.11906094943E+03 -0.34551617650E+03  0.95631512366E+02  0.38878096053E+03  0.91914695276E+02 0.  0.
          2    1    3    3  502    0 -0.46994470566E+01  0.19631053754E+03 -0.46014276267E+02  0.20168595780E+03  0.00000000000E+00 0. -1.
         -2    1    3    3    0  502 -0.11434412216E+03  0.32197549809E+03 -0.20024546219E+02  0.34226273840E+03  0.00000000000E+00 0.  1.
         15    1    5    5    0    0  0.12533569735E+03 -0.11098004743E+03 -0.24023490499E+03  0.29281662395E+03  0.17770000000E+01 0. -1.
        -15    1    5    5    0    0  0.11276882131E+03 -0.61789811698E+02 -0.79049657826E+02  0.15095295300E+03  0.17770000000E+01 0.  1.
          2    1    6    6  503    0 -0.93604552111E+02 -0.13487465178E+03  0.51542369884E+02  0.17207440182E+03  0.00000000000E+00 0. -1.
         -2    1    6    6    0  503 -0.25456397320E+02 -0.21064152473E+03  0.44089142483E+02  0.21670655871E+03  0.00000000000E+00 0.  1.
<mgrwt>
<rscale>  0 0.60520446E+03</rscale>
<asrwt>0</asrwt>
<pdfrwt beam="1">  1        2 0.83600566E-01 0.60520446E+03</pdfrwt>
<pdfrwt beam="2">  1       -2 0.12816855E+00 0.60520446E+03</pdfrwt>
<totfact> 0.25802083E+01</totfact>
</mgrwt>
</event>
<event>
12    1  0.7781383E-008  0.5470100E+03  0.7818608E-02  0.1002188E+00
          1   -1    0    0  501    0  0.00000000000E+00  0.00000000000E+00  0.30494948095E+03  0.30494948095E+03  0.00000000000E+00 0. -1.
         -1   -1    0    0    0  501 -0.00000000000E+00 -0.00000000000E+00 -0.15681586402E+04  0.15681586402E+04  0.00000000000E+00 0.  1.
         23    2    1    2    0    0  0.37755588739E+03  0.13001772545E+03  0.10853596779E+02  0.40955547435E+03  0.90359443219E+02 0.  0.
    5000000    2    1    2    0    0 -0.37755588739E+03 -0.13001772545E+03 -0.12740627561E+04  0.14635526468E+04  0.59941420290E+03 0.  0.
         23    2    4    4    0    0  0.62365949368E+02  0.13747638215E+03 -0.16907385008E+03  0.24114621527E+03  0.82318060416E+02 0.  0.
         23    2    4    4    0    0 -0.43992183675E+03 -0.26749410761E+03 -0.11049889060E+04  0.12224064316E+04  0.90513432792E+02 0.  0.
          1    1    3    3  502    0  0.16515227744E+03  0.31824021293E+02 -0.33216044878E+02  0.17143905247E+03  0.00000000000E+00 0. -1.
         -1    1    3    3    0  502  0.21240360995E+03  0.98193704160E+02  0.44069641657E+02  0.23811642188E+03  0.00000000000E+00 0.  1.
         15    1    5    5    0    0  0.12172145682E+02  0.11315192948E+03 -0.94082702096E+02  0.14766933615E+03  0.17770000000E+01 0. -1.
        -15    1    5    5    0    0  0.50193803687E+02  0.24324452669E+02 -0.74991147981E+02  0.93476879124E+02  0.17770000000E+01 0.  1.
          3    1    6    6  503    0 -0.36366908941E+03 -0.17883173024E+03 -0.83337304945E+03  0.92668583343E+03  0.00000000000E+00 0. -1.
         -3    1    6    6    0  503 -0.76252747349E+02 -0.88662377361E+02 -0.27161585654E+03  0.29572059814E+03  0.00000000000E+00 0.  1.
<mgrwt>
<rscale>  0 0.54701004E+03</rscale>
<asrwt>0</asrwt>
<pdfrwt beam="1">  1        1 0.46915305E-01 0.54701004E+03</pdfrwt>
<pdfrwt beam="2">  1       -1 0.24125518E+00 0.54701004E+03</pdfrwt>
<totfact> 0.72971933E+00</totfact>
</mgrwt>
</event>
<event>
12    1  0.7781383E-008  0.1144084E+04  0.7818608E-02  0.9163259E-01
         -1   -1    0    0    0  501 -0.00000000000E+00  0.00000000000E+00  0.52915663715E+03  0.52915663715E+03  0.00000000000E+00 0.  1.
          1   -1    0    0  501    0  0.00000000000E+00 -0.00000000000E+00 -0.32674093468E+04  0.32674093468E+04  0.00000000000E+00 0. -1.
         23    2    1    2    0    0 -0.52612970458E+02  0.11193503310E+04 -0.20827275291E+04  0.23663827222E+04  0.79372155566E+02 0.  0.
    5000000    2    1    2    0    0  0.52612970458E+02 -0.11193503310E+04 -0.65552518052E+03  0.14301832618E+04  0.59999800983E+03 0.  0.
         23    2    4    4    0    0  0.27126300184E+02 -0.10205929430E+04 -0.74118117933E+03  0.12653772637E+04  0.97387306057E+02 0.  0.
         23    2    4    4    0    0  0.25486670274E+02 -0.98757387953E+02  0.85655998810E+02  0.16480599806E+03  0.97064281934E+02 0.  0.
          3    1    3    3  502    0  0.20370722387E+02  0.34645222055E+03 -0.63965039562E+03  0.72773397342E+03  0.00000000000E+00 0. -1.
         -3    1    3    3    0  502 -0.72983692845E+02  0.77289811044E+03 -0.14430771335E+04  0.16386487488E+04  0.00000000000E+00 0.  1.
         15    1    5    5    0    0 -0.30711415904E+02 -0.60134143206E+03 -0.42191481254E+03  0.73523463993E+03  0.17770000000E+01 0. -1.
        -15    1    5    5    0    0  0.57837716087E+02 -0.41925151097E+03 -0.31926636679E+03  0.53014262378E+03  0.17770000000E+01 0.  1.
          1    1    6    6  503    0 -0.46520867770E+00  0.18918414748E+02  0.20171858487E+02  0.27659116228E+02  0.00000000000E+00 0. -1.
         -1    1    6    6    0  503  0.25951878952E+02 -0.11767580270E+03  0.65484140322E+02  0.13714688183E+03  0.00000000000E+00 0.  1.
<mgrwt>
<rscale>  0 0.11440841E+04</rscale>
<asrwt>0</asrwt>
<pdfrwt beam="1">  1        1 0.50267836E+00 0.11440841E+04</pdfrwt>
<pdfrwt beam="2">  1       -1 0.81408713E-01 0.11440841E+04</pdfrwt>
<totfact> 0.57398012E-01</totfact>
</mgrwt>
</event>
<event>
12    1  0.7781383E-008  0.6943255E+03  0.7818608E-02  0.9726986E-01
          1   -1    0    0  501    0  0.00000000000E+00  0.00000000000E+00  0.36673103489E+04  0.36673103489E+04  0.00000000000E+00 0. -1.
         -1   -1    0    0    0  501 -0.00000000000E+00 -0.00000000000E+00 -0.18499116959E+03  0.18499116959E+03  0.00000000000E+00 0.  1.
         23    2    1    2    0    0  0.57524391114E+03 -0.31558029639E+03  0.21572846946E+04  0.22567247103E+04  0.91829645605E+02 0.  0.
    5000000    2    1    2    0    0 -0.57524391114E+03  0.31558029639E+03  0.13250344848E+04  0.15955768082E+04  0.59971033372E+03 0.  0.
         23    2    4    4    0    0 -0.59516278149E+03  0.29789244018E+03  0.72728929567E+03  0.99015122876E+03  0.92147131371E+02 0.  0.
         23    2    4    4    0    0  0.19918870351E+02  0.17687856208E+02  0.59774518908E+03  0.60542557946E+03  0.92364492872E+02 0.  0.
          2    1    3    3  502    0  0.51818712829E+03 -0.26623114990E+03  0.19832045786E+04  0.20670020139E+04  0.00000000000E+00 0.  1.
         -2    1    3    3    0  502  0.57056782858E+02 -0.49349146484E+02  0.17408011601E+03  0.18972269637E+03  0.00000000000E+00 0. -1.
         15    1    5    5    0    0 -0.31351406732E+03  0.19530502566E+03  0.35650967867E+03  0.51335897009E+03  0.17770000000E+01 0. -1.
        -15    1    5    5    0    0 -0.28164871418E+03  0.10258741452E+03  0.37077961700E+03  0.47679225867E+03  0.17770000000E+01 0.  1.
          1    1    6    6  503    0  0.54677383119E+00  0.35311446368E+02  0.85434449197E+02  0.92445888582E+02  0.00000000000E+00 0. -1.
         -1    1    6    6    0  503  0.19372096519E+02 -0.17623590160E+02  0.51231073988E+03  0.51297969088E+03  0.00000000000E+00 0.  1.
<mgrwt>
<rscale>  0 0.69432554E+03</rscale>
<asrwt>0</asrwt>
<pdfrwt beam="1">  1        1 0.56420154E+00 0.69432554E+03</pdfrwt>
<pdfrwt beam="2">  1       -1 0.28460183E-01 0.69432554E+03</pdfrwt>
<totfact> 0.22632840E+00</totfact>
</mgrwt>
</event>
<event>
12    1  0.7781383E-008  0.1611027E+04  0.7818608E-02  0.8813802E-01
         -1   -1    0    0    0  501 -0.00000000000E+00  0.00000000000E+00  0.94709856681E+03  0.94709856681E+03  0.00000000000E+00 0.  1.
          1   -1    0    0  501    0  0.00000000000E+00 -0.00000000000E+00 -0.41821423393E+04  0.41821423393E+04  0.00000000000E+00 0. -1.
         23    2    1    2    0    0  0.13144917040E+04  0.91137987364E+03 -0.15867003924E+03  0.16103391436E+04  0.97541078552E+02 0.  0.
    5000000    2    1    2    0    0 -0.13144917040E+04 -0.91137987364E+03 -0.30763737332E+04  0.35189017625E+04  0.60007712317E+03 0.  0.
         23    2    4    4    0    0 -0.13952087977E+03 -0.90365703742E+02 -0.10136377398E+03  0.21541960490E+03  0.92189778131E+02 0.  0.
         23    2    4    4    0    0 -0.11749708242E+04 -0.82101416989E+03 -0.29750099593E+04  0.33034821576E+04  0.87689241745E+02 0.  0.
          1    1    3    3  502    0  0.34218136814E+03  0.27234315381E+03 -0.10744676750E+02  0.43746351871E+03  0.00000000000E+00 0. -1.
         -1    1    3    3    0  502  0.97231033586E+03  0.63903671983E+03 -0.14792536249E+03  0.11728756249E+04  0.00000000000E+00 0.  1.
         15    1    5    5    0    0 -0.11760799461E+03 -0.10760124278E+03 -0.98375271684E+02  0.18732463707E+03  0.17770000000E+01 0. -1.
        -15    1    5    5    0    0 -0.21912885161E+02  0.17235539042E+02 -0.29885022993E+01  0.28094967826E+02  0.17770000000E+01 0.  1.
          2    1    6    6  503    0 -0.56989764043E+03 -0.37587865930E+03 -0.15081960637E+04  0.16555130484E+04  0.00000000000E+00 0.  1.
         -2    1    6    6    0  503 -0.60507318380E+03 -0.44513551060E+03 -0.14668138956E+04  0.16479691092E+04  0.00000000000E+00 0. -1.
<mgrwt>
<rscale>  0 0.16110274E+04</rscale>
<asrwt>0</asrwt>
<pdfrwt beam="1">  1        1 0.64340652E+00 0.16110274E+04</pdfrwt>
<pdfrwt beam="2">  1       -1 0.14570747E+00 0.16110274E+04</pdfrwt>
<totfact> 0.23554386E-02</totfact>
</mgrwt>
</event>
<event>
12    1  0.7781383E-008  0.1342363E+04  0.7818608E-02  0.8996630E-01
          1   -1    0    0  501    0  0.00000000000E+00  0.00000000000E+00  0.26298464150E+04  0.26298464150E+04  0.00000000000E+00 0. -1.
         -1   -1    0    0    0  501 -0.00000000000E+00 -0.00000000000E+00 -0.69876329207E+03  0.69876329207E+03  0.00000000000E+00 0.  1.
         23    2    1    2    0    0 -0.65008580897E+03  0.11107908304E+04  0.87750441421E+03  0.15603899389E+04  0.91295874722E+02 0.  0.
    5000000    2    1    2    0    0  0.65008580897E+03 -0.11107908304E+04  0.10535787087E+04  0.17682197681E+04  0.60008768114E+03 0.  0.
         23    2    4    4    0    0  0.48641988411E+03 -0.31467588133E+03  0.57392738567E+03  0.81992912844E+03  0.85240352480E+02 0.  0.
         23    2    4    4    0    0  0.16366592486E+03 -0.79611494904E+03  0.47965132305E+03  0.94829063969E+03  0.92758819364E+02 0.  0.
          1    1    3    3  502    0 -0.33004842069E+03  0.47409922053E+03  0.39420538652E+03  0.69935678853E+03  0.00000000000E+00 0. -1.
         -1    1    3    3    0  502 -0.32003738828E+03  0.63669160985E+03  0.48329902769E+03  0.86103315042E+03  0.00000000000E+00 0.  1.
         15    1    5    5    0    0  0.44066904419E+03 -0.26562065545E+03  0.53535479651E+03  0.74253044044E+03  0.17770000000E+01 0. -1.
        -15    1    5    5    0    0  0.45750839919E+02 -0.49055225887E+02  0.38572589158E+02  0.77398687996E+02  0.17770000000E+01 0.  1.
          2    1    6    6  503    0  0.11649854852E+03 -0.58708966477E+03  0.39898203879E+03  0.71932805698E+03  0.00000000000E+00 0. -1.
         -2    1    6    6    0  503  0.47167376340E+02 -0.20902528427E+03  0.80669284259E+02  0.22896258271E+03  0.00000000000E+00 0.  1.
<mgrwt>
<rscale>  0 0.13423629E+04</rscale>
<asrwt>0</asrwt>
<pdfrwt beam="1">  1        1 0.40459175E+00 0.13423629E+04</pdfrwt>
<pdfrwt beam="2">  1       -1 0.10750205E+00 0.13423629E+04</pdfrwt>
<totfact> 0.86219419E-01</totfact>
</mgrwt>
</event>
<event>
12    1  0.8194357E-008  0.6115734E+03  0.7818608E-02  0.9881682E-01
         -2   -1    0    0    0  501 -0.00000000000E+00  0.00000000000E+00  0.62459575124E+03  0.62459575124E+03  0.00000000000E+00 0.  1.
          2   -1    0    0  501    0  0.00000000000E+00 -0.00000000000E+00 -0.10468239982E+04  0.10468239982E+04  0.00000000000E+00 0. -1.
         23    2    1    2    0    0 -0.15682042482E+02  0.57539401534E+03  0.21814577308E+03  0.62191867466E+03  0.88718995879E+02 0.  0.
    5000000    2    1    2    0    0  0.15682042482E+02 -0.57539401534E+03 -0.64037402006E+03  0.10495010748E+04  0.60004118281E+03 0.  0.
         23    2    4    4    0    0  0.15121659598E+03 -0.30104169021E+03 -0.15775740903E+02  0.34815192514E+03  0.86419504930E+02 0.  0.
         23    2    4    4    0    0 -0.13553455350E+03 -0.27435232513E+03 -0.62459827916E+03  0.70134914965E+03  0.90159890682E+02 0.  0.
          1    1    3    3  502    0 -0.35137853806E+02  0.42945487584E+03  0.12892420079E+03  0.44976394775E+03  0.00000000000E+00 0. -1.
         -1    1    3    3    0  502  0.19455811324E+02  0.14593913951E+03  0.89221572293E+02  0.17215472691E+03  0.00000000000E+00 0.  1.
         15    1    5    5    0    0  0.43111592597E+02 -0.61336043836E+02  0.30848066539E+02  0.81089337326E+02  0.17770000000E+01 0. -1.
        -15    1    5    5    0    0  0.10810500339E+03 -0.23970564638E+03 -0.46623807442E+02  0.26706258782E+03  0.17770000000E+01 0.  1.
          2    1    6    6  503    0 -0.78087490377E+02 -0.18551208077E+03 -0.31159706118E+03  0.37095163674E+03  0.00000000000E+00 0. -1.
         -2    1    6    6    0  503 -0.57447063123E+02 -0.88840244363E+02 -0.31300121798E+03  0.33039751291E+03  0.00000000000E+00 0.  1.
<mgrwt>
<rscale>  0 0.61157339E+03</rscale>
<asrwt>0</asrwt>
<pdfrwt beam="1">  1        2 0.16104984E+00 0.61157339E+03</pdfrwt>
<pdfrwt beam="2">  1       -2 0.96091655E-01 0.61157339E+03</pdfrwt>
<totfact> 0.22052613E+01</totfact>
</mgrwt>
</event>
<event>
12    1  0.7781383E-008  0.1163791E+04  0.7818608E-02  0.9145154E-01
          2   -1    0    0  501    0  0.00000000000E+00  0.00000000000E+00  0.95374185654E+03  0.95374185654E+03  0.00000000000E+00 0. -1.
         -2   -1    0    0    0  501 -0.00000000000E+00 -0.00000000000E+00 -0.14490632240E+04  0.14490632240E+04  0.00000000000E+00 0.  1.
         23    2    1    2    0    0 -0.13828778987E+03 -0.10871801987E+04 -0.27708567008E+03  0.11344385163E+04  0.95341394015E+02 0.  0.
    5000000    2    1    2    0    0  0.13828778987E+03  0.10871801987E+04 -0.21823569735E+03  0.12683665643E+04  0.60003551939E+03 0.  0.
         23    2    4    4    0    0 -0.14470947589E+03  0.80456734703E+02  0.23009592112E+02  0.19106811255E+03  0.92538984944E+02 0.  0.
         23    2    4    4    0    0  0.28299726576E+03  0.10067234640E+04 -0.24124528946E+03  0.10772984517E+04  0.93771419041E+02 0.  0.
          1    1    3    3  502    0 -0.18493728338E+02 -0.40998792932E+03 -0.13650113962E+03  0.43250974705E+03  0.00000000000E+00 0.  1.
         -1    1    3    3    0  502 -0.11979406153E+03 -0.67719226935E+03 -0.14058453046E+03  0.70192876921E+03  0.00000000000E+00 0. -1.
         15    1    5    5    0    0 -0.96780380100E+02  0.83910213816E+01 -0.11578315765E+02  0.97847158043E+02  0.17770000000E+01 0.  1.
        -15    1    5    5    0    0 -0.47929095790E+02  0.72065713321E+02  0.34587907876E+02  0.93220954511E+02  0.17770000000E+01 0. -1.
          2    1    6    6  503    0  0.88639555603E+02  0.31463246860E+03 -0.12039806015E+03  0.34834789220E+03  0.00000000000E+00 0. -1.
         -2    1    6    6    0  503  0.19435771016E+03  0.69209099536E+03 -0.12084722931E+03  0.72895055950E+03  0.00000000000E+00 0.  1.
<mgrwt>
<rscale>  0 0.11637907E+04</rscale>
<asrwt>0</asrwt>
<pdfrwt beam="1">  1        2 0.14672952E+00 0.11637907E+04</pdfrwt>
<pdfrwt beam="2">  1       -2 0.22293280E+00 0.11637907E+04</pdfrwt>
<totfact> 0.24974772E+00</totfact>
</mgrwt>
</event>
<event>
12    1  0.7781383E-008  0.7146979E+03  0.7818608E-02  0.9692422E-01
         -3   -1    0    0    0  501 -0.00000000000E+00  0.00000000000E+00  0.19887233633E+04  0.19887233633E+04  0.00000000000E+00 0.  1.
          3   -1    0    0  501    0  0.00000000000E+00 -0.00000000000E+00 -0.59211781786E+03  0.59211781786E+03  0.00000000000E+00 0. -1.
         23    2    1    2    0    0 -0.66109648412E+03 -0.91873861792E+02  0.15316629122E+04  0.16732758634E+04  0.91495740927E+02 0.  0.
    5000000    2    1    2    0    0  0.66109648412E+03  0.91873861792E+02 -0.13505736677E+03  0.90756531775E+03  0.59995411981E+03 0.  0.
         23    2    4    4    0    0  0.39852953118E+03 -0.11507559285E+03  0.15860369689E+03  0.45351603490E+03  0.91942818940E+02 0.  0.
         23    2    4    4    0    0  0.26256695294E+03  0.20694945464E+03 -0.29366106365E+03  0.45404928285E+03  0.90301990002E+02 0.  0.
          4    1    3    3  502    0 -0.61153004524E+03 -0.86096998755E+02  0.13440355179E+04  0.14791258103E+04  0.00000000000E+00 0. -1.
         -4    1    3    3    0  502 -0.49566438882E+02 -0.57768630369E+01  0.18762739432E+03  0.19415005307E+03  0.00000000000E+00 0.  1.
         15    1    5    5    0    0  0.32431103731E+03 -0.10866365635E+03  0.16295982931E+03  0.37887267364E+03  0.17770000000E+01 0.  1.
        -15    1    5    5    0    0  0.74218493872E+02 -0.64119364967E+01 -0.43561324208E+01  0.74643361265E+02  0.17770000000E+01 0. -1.
          1    1    6    6  503    0  0.50043441429E+02  0.19226121173E+01 -0.54809244050E+02  0.74243489282E+02  0.00000000000E+00 0. -1.
         -1    1    6    6    0  503  0.21252351151E+03  0.20502684252E+03 -0.23885181960E+03  0.37980579357E+03  0.00000000000E+00 0.  1.
<mgrwt>
<rscale>  0 0.71469788E+03</rscale>
<asrwt>0</asrwt>
<pdfrwt beam="1">  1        3 0.91095050E-01 0.71469788E+03</pdfrwt>
<pdfrwt beam="2">  1       -3 0.30595744E+00 0.71469788E+03</pdfrwt>
<totfact> 0.10132455E-01</totfact>
</mgrwt>
</event>
<event>
12    1  0.7781383E-008  0.1325013E+04  0.7818608E-02  0.9009961E-01
         -1   -1    0    0    0  501 -0.00000000000E+00  0.00000000000E+00  0.21272115826E+04  0.21272115826E+04  0.00000000000E+00 0.  1.
          1   -1    0    0  501    0  0.00000000000E+00 -0.00000000000E+00 -0.83877332846E+03  0.83877332846E+03  0.00000000000E+00 0. -1.
         23    2    1    2    0    0  0.62374936225E+02  0.12629322246E+04  0.53128292958E+03  0.13746696993E+04  0.92556979917E+02 0.  0.
    5000000    2    1    2    0    0 -0.62374936225E+02 -0.12629322246E+04  0.75715532458E+03  0.15913152117E+04  0.60009289370E+03 0.  0.
         23    2    4    4    0    0  0.16573125417E+03 -0.11105057228E+03  0.16334234210E+03  0.27275496877E+03  0.88968949922E+02 0.  0.
         23    2    4    4    0    0 -0.22810619040E+03 -0.11518816523E+04  0.59381298248E+03  0.13185602430E+04  0.84400718218E+02 0.  0.
          3    1    3    3  502    0  0.37736762221E+02  0.57098512499E+03  0.19165857982E+03  0.60347418122E+03  0.00000000000E+00 0. -1.
         -3    1    3    3    0  502  0.24638174004E+02  0.69194709956E+03  0.33962434976E+03  0.77119551812E+03  0.00000000000E+00 0.  1.
         15    1    5    5    0    0  0.63641425368E+02 -0.78673982060E+02  0.38563021263E+02  0.10830554378E+03  0.17770000000E+01 0. -1.
        -15    1    5    5    0    0  0.10208982880E+03 -0.32376590221E+02  0.12477932084E+03  0.16444942499E+03  0.17770000000E+01 0.  1.
          3    1    6    6  503    0 -0.14932774984E+03 -0.92361271784E+03  0.48157425277E+03  0.10522703979E+04  0.00000000000E+00 0. -1.
         -3    1    6    6    0  503 -0.78778440560E+02 -0.22826893444E+03  0.11223872970E+03  0.26628984504E+03  0.00000000000E+00 0.  1.
<mgrwt>
<rscale>  0 0.13250131E+04</rscale>
<asrwt>0</asrwt>
<pdfrwt beam="1">  1        1 0.12904205E+00 0.13250131E+04</pdfrwt>
<pdfrwt beam="2">  1       -1 0.32726332E+00 0.13250131E+04</pdfrwt>
<totfact> 0.43722881E-01</totfact>
</mgrwt>
</event>
<event>
12    1  0.7781383E-008  0.6595376E+03  0.7818608E-02  0.9789045E-01
         -2   -1    0    0    0  501 -0.00000000000E+00  0.00000000000E+00  0.98978702718E+03  0.98978702718E+03  0.00000000000E+00 0.  1.
          2   -1    0    0  501    0  0.00000000000E+00 -0.00000000000E+00 -0.63915145939E+03  0.63915145939E+03  0.00000000000E+00 0. -1.
         23    2    1    2    0    0  0.30112905627E+03  0.57402097248E+03  0.35685300062E+03  0.74564078593E+03  0.91963754914E+02 0.  0.
    5000000    2    1    2    0    0 -0.30112905627E+03 -0.57402097248E+03 -0.62174328333E+01  0.88329770064E+03  0.59999782175E+03 0.  0.
         23    2    4    4    0    0 -0.29534221973E+03 -0.48619385756E+03 -0.23462730162E+03  0.62204781746E+03  0.91005618829E+02 0.  0.
         23    2    4    4    0    0 -0.57868365396E+01 -0.87827114913E+02  0.22840986879E+03  0.26124988317E+03  0.91287149736E+02 0.  0.
          3    1    3    3  502    0  0.13764635310E+03  0.35624494287E+03  0.22235154232E+03  0.44192441233E+03  0.00000000000E+00 0. -1.
         -3    1    3    3    0  502  0.16348270317E+03  0.21777602961E+03  0.13450145830E+03  0.30371637360E+03  0.00000000000E+00 0.  1.
         15    1    5    5    0    0 -0.27895925098E+02 -0.87865942873E+02 -0.66388965454E+02  0.11361892015E+03  0.17770000000E+01 0. -1.
        -15    1    5    5    0    0 -0.26744629463E+03 -0.39832791469E+03 -0.16823833617E+03  0.50842889731E+03  0.17770000000E+01 0.  1.
          3    1    6    6  503    0  0.11364325512E+02 -0.50772543458E+02  0.32981968490E+02  0.61602023579E+02  0.00000000000E+00 0. -1.
         -3    1    6    6    0  503 -0.17151162052E+02 -0.37054571455E+02  0.19542790030E+03  0.19964785959E+03  0.00000000000E+00 0.  1.
<mgrwt>
<rscale>  0 0.65953762E+03</rscale>
<asrwt>0</asrwt>
<pdfrwt beam="1">  1        2 0.98330993E-01 0.65953762E+03</pdfrwt>
<pdfrwt beam="2">  1       -2 0.15227493E+00 0.65953762E+03</pdfrwt>
<totfact> 0.13543396E+01</totfact>
</mgrwt>
</event>
<event>
12    1  0.7781383E-008  0.6125211E+03  0.7818608E-02  0.9879764E-01
          1   -1    0    0  501    0  0.00000000000E+00  0.00000000000E+00  0.12428839327E+04  0.12428839327E+04  0.00000000000E+00 0. -1.
         -1   -1    0    0    0  501 -0.00000000000E+00 -0.00000000000E+00 -0.45675689848E+03  0.45675689848E+03  0.00000000000E+00 0.  1.
         23    2    1    2    0    0  0.16260427607E+03  0.44792826318E+03  0.79762863743E+03  0.93340616182E+03  0.89194955648E+02 0.  0.
    5000000    2    1    2    0    0 -0.16260427607E+03 -0.44792826318E+03 -0.11501603263E+02  0.76623466932E+03  0.59991949630E+03 0.  0.
         23    2    4    4    0    0  0.19122121795E+03 -0.30542336517E+03 -0.22292393111E+02  0.37273667576E+03  0.92664407854E+02 0.  0.
         23    2    4    4    0    0 -0.35382549402E+03 -0.14250489801E+03  0.10790789848E+02  0.39349799356E+03  0.96042197045E+02 0.  0.
          1    1    3    3  502    0  0.11365562447E+03  0.27021087427E+03  0.40818740336E+03  0.50254201199E+03  0.00000000000E+00 0. -1.
         -1    1    3    3    0  502  0.48948651605E+02  0.17771738890E+03  0.38944123407E+03  0.43086414983E+03  0.00000000000E+00 0.  1.
         15    1    5    5    0    0  0.71131777444E+02 -0.13345544069E+03  0.35124398814E+02  0.15526417981E+03  0.17770000000E+01 0.  1.
        -15    1    5    5    0    0  0.12008944051E+03 -0.17196792448E+03 -0.57416791925E+02  0.21747249595E+03  0.17770000000E+01 0. -1.
          3    1    6    6  503    0 -0.21428131688E+03 -0.11885656404E+03 -0.28296782450E+02  0.24666591470E+03  0.00000000000E+00 0. -1.
         -3    1    6    6    0  503 -0.13954417714E+03 -0.23648333976E+02  0.39087572298E+02  0.14683207886E+03  0.00000000000E+00 0.  1.
<mgrwt>
<rscale>  0 0.61252114E+03</rscale>
<asrwt>0</asrwt>
<pdfrwt beam="1">  1        1 0.19121291E+00 0.61252114E+03</pdfrwt>
<pdfrwt beam="2">  1       -1 0.70270292E-01 0.61252114E+03</pdfrwt>
<totfact> 0.21397644E+01</totfact>
</mgrwt>
</event>
<event>
12    1  0.7781383E-008  0.1285050E+04  0.7818608E-02  0.9041505E-01
         -2   -1    0    0    0  501 -0.00000000000E+00  0.00000000000E+00  0.16098203301E+04  0.16098203301E+04  0.00000000000E+00 0. -1.
          2   -1    0    0  501    0  0.00000000000E+00 -0.00000000000E+00 -0.11562137155E+04  0.11562137155E+04  0.00000000000E+00 0.  1.
         23    2    1    2    0    0  0.41125562158E+03  0.12131834528E+04  0.13030514844E+02  0.12844479061E+04  0.93227424355E+02 0.  0.
    5000000    2    1    2    0    0 -0.41125562158E+03 -0.12131834528E+04  0.44057609973E+03  0.14815861395E+04  0.60003742603E+03 0.  0.
         23    2    4    4    0    0 -0.24050659023E+02 -0.15204699394E+03  0.28610944709E+03  0.33778943339E+03  0.92446541457E+02 0.  0.
         23    2    4    4    0    0 -0.38720496256E+03 -0.10611364589E+04  0.15446665264E+03  0.11437967061E+04  0.92047220277E+02 0.  0.
          4    1    3    3  502    0  0.25189195867E+03  0.84997429363E+03  0.35032227273E+02  0.88720522746E+03  0.00000000000E+00 0. -1.
         -4    1    3    3    0  502  0.15936366291E+03  0.36320915916E+03 -0.22001712429E+02  0.39724267860E+03  0.00000000000E+00 0.  1.
         15    1    5    5    0    0  0.12767727428E+01 -0.32035486504E+02  0.69303667487E+01  0.32849509227E+02  0.17770000000E+01 0.  1.
        -15    1    5    5    0    0 -0.25327431766E+02 -0.12001150744E+03  0.27917908034E+03  0.30493992416E+03  0.17770000000E+01 0. -1.
          2    1    6    6  503    0 -0.15422133603E+03 -0.31891662155E+03  0.24580970055E+02  0.35510034649E+03  0.00000000000E+00 0. -1.
         -2    1    6    6    0  503 -0.23298362653E+03 -0.74221983730E+03  0.12988568259E+03  0.78869635960E+03  0.00000000000E+00 0.  1.
<mgrwt>
<rscale>  0 0.12850503E+04</rscale>
<asrwt>0</asrwt>
<pdfrwt beam="1">  1        2 0.17787903E+00 0.12850503E+04</pdfrwt>
<pdfrwt beam="2">  1       -2 0.24766467E+00 0.12850503E+04</pdfrwt>
<totfact> 0.12889150E+00</totfact>
</mgrwt>
</event>
<event>
12    1  0.7781383E-008  0.1210813E+04  0.7818608E-02  0.9103445E-01
         -1   -1    0    0    0  501 -0.00000000000E+00  0.00000000000E+00  0.98818463983E+03  0.98818463983E+03  0.00000000000E+00 0.  1.
          1   -1    0    0  501    0  0.00000000000E+00 -0.00000000000E+00 -0.16757256821E+04  0.16757256821E+04  0.00000000000E+00 0. -1.
         23    2    1    2    0    0 -0.96761706408E+03  0.70271655004E+03 -0.10168382633E+03  0.12036290086E+04  0.91048654613E+02 0.  0.
    5000000    2    1    2    0    0  0.96761706408E+03 -0.70271655004E+03 -0.58585721595E+03  0.14602813133E+04  0.59924911689E+03 0.  0.
         23    2    4    4    0    0  0.11493583304E+03 -0.68696745963E+02 -0.32336409045E+03  0.36193401140E+03  0.92208486550E+02 0.  0.
         23    2    4    4    0    0  0.85268123105E+03 -0.63401980407E+03 -0.26249312549E+03  0.10983473019E+04  0.91748356490E+02 0.  0.
          1    1    3    3  502    0 -0.49753741543E+03  0.41576878214E+03 -0.65896228799E+02  0.65172806670E+03  0.00000000000E+00 0. -1.
         -1    1    3    3    0  502 -0.47007964865E+03  0.28694776790E+03 -0.35787597533E+02  0.55190094194E+03  0.00000000000E+00 0.  1.
         15    1    5    5    0    0  0.11417939593E+03 -0.30817274787E+02 -0.19484534300E+03  0.22793530727E+03  0.17770000000E+01 0.  1.
        -15    1    5    5    0    0  0.75643710456E+00 -0.37879471176E+02 -0.12851874745E+03  0.13399870413E+03  0.17770000000E+01 0. -1.
          1    1    6    6  503    0  0.54917867397E+03 -0.46041624577E+03 -0.18708302529E+03  0.74066213193E+03  0.00000000000E+00 0. -1.
         -1    1    6    6    0  503  0.30350255707E+03 -0.17360355830E+03 -0.75410100200E+02  0.35768516997E+03  0.00000000000E+00 0.  1.
<mgrwt>
<rscale>  0 0.12108127E+04</rscale>
<asrwt>0</asrwt>
<pdfrwt beam="1">  1        1 0.25780395E+00 0.12108127E+04</pdfrwt>
<pdfrwt beam="2">  1       -1 0.15202841E+00 0.12108127E+04</pdfrwt>
<totfact> 0.16326325E+00</totfact>
</mgrwt>
</event>
<event>
12    1  0.7781383E-008  0.8185514E+03  0.7818608E-02  0.9533546E-01
         -2   -1    0    0    0  501 -0.00000000000E+00  0.00000000000E+00  0.52848583387E+03  0.52848583387E+03  0.00000000000E+00 0. -1.
          2   -1    0    0  501    0  0.00000000000E+00 -0.00000000000E+00 -0.13943897297E+04  0.13943897297E+04  0.00000000000E+00 0.  1.
         23    2    1    2    0    0 -0.63207968904E+03 -0.40032310108E+03 -0.44673989892E+03  0.87620440050E+03  0.91511177503E+02 0.  0.
    5000000    2    1    2    0    0  0.63207968904E+03  0.40032310108E+03 -0.41916399691E+03  0.10466711631E+04  0.60003228976E+03 0.  0.
         23    2    4    4    0    0  0.17542412670E+03 -0.93226237534E+02  0.47417435642E+02  0.22334940346E+03  0.90397938176E+02 0.  0.
         23    2    4    4    0    0  0.45665556234E+03  0.49354933861E+03 -0.46658143256E+03  0.82332175962E+03  0.89639469021E+02 0.  0.
          1    1    3    3  502    0 -0.16147256167E+03 -0.14737942174E+03 -0.11085893955E+03  0.24511994330E+03  0.00000000000E+00 0. -1.
         -1    1    3    3    0  502 -0.47060712737E+03 -0.25294367934E+03 -0.33588095937E+03  0.63108445720E+03  0.00000000000E+00 0.  1.
         15    1    5    5    0    0  0.99130670299E+02 -0.11248721608E+02 -0.45356520372E+01  0.99885701680E+02  0.17770000000E+01 0.  1.
        -15    1    5    5    0    0  0.76293456406E+02 -0.81977515927E+02  0.51953087679E+02  0.12346370178E+03  0.17770000000E+01 0. -1.
          2    1    6    6  503    0  0.17064789160E+03  0.18827156652E+03 -0.12462122168E+03  0.28301472499E+03  0.00000000000E+00 0. -1.
         -2    1    6    6    0  503  0.28600767074E+03  0.30527777209E+03 -0.34196021087E+03  0.54030703463E+03  0.00000000000E+00 0.  1.
<mgrwt>
<rscale>  0 0.81855136E+03</rscale>
<asrwt>0</asrwt>
<pdfrwt beam="1">  1        2 0.21452150E+00 0.81855136E+03</pdfrwt>
<pdfrwt beam="2">  1       -2 0.81305513E-01 0.81855136E+03</pdfrwt>
<totfact> 0.19705404E+01</totfact>
</mgrwt>
</event>
<event>
12    1  0.7781383E-008  0.1569410E+04  0.7818608E-02  0.8839564E-01
          2   -1    0    0  501    0  0.00000000000E+00  0.00000000000E+00  0.32636328253E+04  0.32636328253E+04  0.00000000000E+00 0. -1.
         -2   -1    0    0    0  501 -0.00000000000E+00 -0.00000000000E+00 -0.82834819383E+03  0.82834819383E+03  0.00000000000E+00 0.  1.
         23    2    1    2    0    0 -0.15572015604E+04 -0.11319365821E+03  0.15396688978E+04  0.21946695374E+04  0.91129356041E+02 0.  0.
    5000000    2    1    2    0    0  0.15572015604E+04  0.11319365821E+03  0.89561573368E+03  0.18973114817E+04  0.59997817656E+03 0.  0.
         23    2    4    4    0    0  0.58412968029E+03  0.15073664754E+03  0.63639637963E+02  0.61336614344E+03  0.90768948927E+02 0.  0.
         23    2    4    4    0    0  0.97307188012E+03 -0.37542989331E+02  0.83197609571E+03  0.12839453383E+04  0.89738776389E+02 0.  0.
          1    1    3    3  502    0 -0.14449776317E+04 -0.97079394103E+02  0.14572877724E+04  0.20545248639E+04  0.00000000000E+00 0. -1.
         -1    1    3    3    0  502 -0.11222392873E+03 -0.16114264105E+02  0.82381125419E+02  0.14014467351E+03  0.00000000000E+00 0.  1.
         15    1    5    5    0    0  0.25669444786E+03  0.61168927073E+02  0.72894444136E+02  0.27377077075E+03  0.17770000000E+01 0. -1.
        -15    1    5    5    0    0  0.32743523243E+03  0.89567720467E+02 -0.92548061727E+01  0.33959537269E+03  0.17770000000E+01 0.  1.
          3    1    6    6  503    0  0.43688764811E+03 -0.11606393681E+02  0.31552783905E+03  0.53903927748E+03  0.00000000000E+00 0. -1.
         -3    1    6    6    0  503  0.53618423200E+03 -0.25936595650E+02  0.51644825666E+03  0.74490606082E+03  0.00000000000E+00 0.  1.
<mgrwt>
<rscale>  0 0.15694101E+04</rscale>
<asrwt>0</asrwt>
<pdfrwt beam="1">  1        2 0.50209735E+00 0.15694101E+04</pdfrwt>
<pdfrwt beam="2">  1       -2 0.12743818E+00 0.15694101E+04</pdfrwt>
<totfact> 0.50902012E-01</totfact>
</mgrwt>
</event>
<event>
12    1  0.7781383E-008  0.9343175E+03  0.7818608E-02  0.9383671E-01
          1   -1    0    0  501    0  0.00000000000E+00  0.00000000000E+00  0.24420658509E+04  0.24420658509E+04  0.00000000000E+00 0. -1.
         -1   -1    0    0    0  501 -0.00000000000E+00 -0.00000000000E+00 -0.61686145560E+03  0.61686145560E+03  0.00000000000E+00 0.  1.
         23    2    1    2    0    0 -0.46160476650E+03  0.77298101941E+03  0.17552259631E+04  0.19747779858E+04  0.91385420012E+02 0.  0.
    5000000    2    1    2    0    0  0.46160476650E+03 -0.77298101941E+03  0.69978432236E+02  0.10841493207E+04  0.59992012113E+03 0.  0.
         23    2    4    4    0    0  0.91686709294E+01 -0.31145213368E+03  0.24604359928E+03  0.40754017818E+03  0.92005695400E+02 0.  0.
         23    2    4    4    0    0  0.45243609557E+03 -0.46152888574E+03 -0.17606516704E+03  0.67660914250E+03  0.95360661322E+02 0.  0.
          3    1    3    3  502    0 -0.33595671602E+03  0.50960280443E+03  0.12576711694E+04  0.13979623398E+04  0.00000000000E+00 0. -1.
         -3    1    3    3    0  502 -0.12564805049E+03  0.26337821498E+03  0.49755479372E+03  0.57681564601E+03  0.00000000000E+00 0.  1.
         15    1    5    5    0    0  0.30685068243E+02 -0.19038861583E+03  0.19541199409E+03  0.27455127684E+03  0.17770000000E+01 0. -1.
        -15    1    5    5    0    0 -0.21516397314E+02 -0.12106351785E+03  0.50631605189E+02  0.13298890134E+03  0.17770000000E+01 0.  1.
          1    1    6    6  503    0  0.33713693733E+03 -0.38733394087E+03 -0.11350060908E+03  0.52590045116E+03  0.00000000000E+00 0. -1.
         -1    1    6    6    0  503  0.11529915825E+03 -0.74194944862E+02 -0.62564557959E+02  0.15070869135E+03  0.00000000000E+00 0.  1.
<mgrwt>
<rscale>  0 0.93431754E+03</rscale>
<asrwt>0</asrwt>
<pdfrwt beam="1">  1        1 0.37570243E+00 0.93431754E+03</pdfrwt>
<pdfrwt beam="2">  1       -1 0.94901763E-01 0.93431754E+03</pdfrwt>
<totfact> 0.16399692E+00</totfact>
</mgrwt>
</event>
<event>
12    1  0.7781383E-008  0.8751706E+03  0.7818608E-02  0.9457163E-01
          2   -1    0    0  501    0  0.00000000000E+00  0.00000000000E+00  0.16263562071E+04  0.16263562071E+04  0.00000000000E+00 0. -1.
         -2   -1    0    0    0  501 -0.00000000000E+00 -0.00000000000E+00 -0.53075415246E+03  0.53075415246E+03  0.00000000000E+00 0.  1.
         23    2    1    2    0    0  0.19760851245E+03  0.80208616645E+03  0.40277055712E+03  0.92329266357E+03  0.88622109672E+02 0.  0.
    5000000    2    1    2    0    0 -0.19760851245E+03 -0.80208616645E+03  0.69283149755E+03  0.12338176960E+04  0.59991606113E+03 0.  0.
         23    2    4    4    0    0  0.10002391635E+03 -0.77634178376E+02 -0.35385733109E+02  0.16050335197E+03  0.92072397558E+02 0.  0.
         23    2    4    4    0    0 -0.29763242880E+03 -0.72445198807E+03  0.72821723066E+03  0.10733143441E+04  0.91036258780E+02 0.  0.
          2    1    3    3  502    0 -0.51546871025E+01  0.71268193555E+02  0.22764880624E+02  0.74993106360E+02  0.00000000000E+00 0. -1.
         -2    1    3    3    0  502  0.20276319956E+03  0.73081797290E+03  0.38000567649E+03  0.84829955721E+03  0.00000000000E+00 0.  1.
         15    1    5    5    0    0  0.90787905151E+02 -0.85521357026E+02 -0.18063587749E+01  0.12475081920E+03  0.17770000000E+01 0.  1.
        -15    1    5    5    0    0  0.92360111938E+01  0.78871786498E+01 -0.33579374334E+02  0.35752532771E+02  0.17770000000E+01 0. -1.
          1    1    6    6  503    0 -0.27222117539E+03 -0.64699070791E+03  0.68613173624E+03  0.98156920486E+03  0.00000000000E+00 0.  1.
         -1    1    6    6    0  503 -0.25411253405E+02 -0.77461280165E+02  0.42085494426E+02  0.91745139193E+02  0.00000000000E+00 0. -1.
<mgrwt>
<rscale>  0 0.87517059E+03</rscale>
<asrwt>0</asrwt>
<pdfrwt beam="1">  1        2 0.25020865E+00 0.87517059E+03</pdfrwt>
<pdfrwt beam="2">  1       -2 0.81654486E-01 0.87517059E+03</pdfrwt>
<totfact> 0.14386322E+01</totfact>
</mgrwt>
</event>
<event>
12    1  0.7781383E-008  0.7778484E+03  0.7818608E-02  0.9592646E-01
         -3   -1    0    0    0  501 -0.00000000000E+00  0.00000000000E+00  0.18226378443E+04  0.18226378443E+04  0.00000000000E+00 0.  1.
          3   -1    0    0  501    0  0.00000000000E+00 -0.00000000000E+00 -0.51245831308E+03  0.51245831308E+03  0.00000000000E+00 0. -1.
         23    2    1    2    0    0  0.64951105165E+03 -0.39707777863E+03  0.82742632416E+02  0.77107213044E+03  0.90390921135E+02 0.  0.
    5000000    2    1    2    0    0 -0.64951105165E+03  0.39707777863E+03  0.12274368988E+04  0.15640240269E+04  0.60002870582E+03 0.  0.
         23    2    4    4    0    0 -0.64803203188E+03  0.36129418925E+03  0.12469961325E+04  0.14538302319E+04  0.90244019750E+02 0.  0.
         23    2    4    4    0    0 -0.14790197719E+01  0.35783589380E+02 -0.19559233749E+02  0.11019379503E+03  0.10235944544E+03 0.  0.
          1    1    3    3  502    0  0.22147560666E+03 -0.89937370829E+02  0.10053771372E+02  0.23925144375E+03  0.00000000000E+00 0. -1.
         -1    1    3    3    0  502  0.42803544499E+03 -0.30714040780E+03  0.72688861044E+02  0.53182068669E+03  0.00000000000E+00 0.  1.
         15    1    5    5    0    0 -0.29022079944E+03  0.11179151611E+03  0.50319848238E+03  0.59155500665E+03  0.17770000000E+01 0.  1.
        -15    1    5    5    0    0 -0.35781123244E+03  0.24950267314E+03  0.74379765013E+03  0.86227522522E+03  0.17770000000E+01 0. -1.
          1    1    6    6  503    0 -0.42430844629E+01  0.38494750221E+02 -0.58993617702E+02  0.70569798709E+02  0.00000000000E+00 0. -1.
         -1    1    6    6    0  503  0.27640646910E+01 -0.27111608405E+01  0.39434383953E+02  0.39623996321E+02  0.00000000000E+00 0.  1.
<mgrwt>
<rscale>  0 0.77784842E+03</rscale>
<asrwt>0</asrwt>
<pdfrwt beam="1">  1        3 0.78839742E-01 0.77784842E+03</pdfrwt>
<pdfrwt beam="2">  1       -3 0.28040582E+00 0.77784842E+03</pdfrwt>
<totfact> 0.19341185E-01</totfact>
</mgrwt>
</event>
<event>
12    1  0.7781383E-008  0.2334687E+03  0.7818608E-02  0.1124222E+00
          2   -1    0    0  501    0  0.00000000000E+00  0.00000000000E+00  0.28959642262E+04  0.28959642262E+04  0.00000000000E+00 0. -1.
         -2   -1    0    0    0  501 -0.00000000000E+00 -0.00000000000E+00 -0.94423976322E+02  0.94423976322E+02  0.00000000000E+00 0.  1.
         23    2    1    2    0    0  0.86345231370E+02 -0.10466292119E+03  0.18559101489E+04  0.18631958479E+04  0.93201186055E+02 0.  0.
    5000000    2    1    2    0    0 -0.86345231370E+02  0.10466292119E+03  0.94563010097E+03  0.11271923545E+04  0.59827793726E+03 0.  0.
         23    2    4    4    0    0 -0.79550902977E+02 -0.71581606606E+02  0.91611530807E+03  0.92701425392E+03  0.92929525594E+02 0.  0.
         23    2    4    4    0    0 -0.67943283929E+01  0.17624452780E+03  0.29514792906E+02  0.20017810062E+03  0.89954724667E+02 0.  0.
          4    1    3    3  502    0  0.68131976292E+02 -0.17842735442E+02  0.10650127084E+04  0.10673389333E+04  0.00000000000E+00 0. -1.
         -4    1    3    3    0  502  0.18213255078E+02 -0.86820185749E+02  0.79089744045E+03  0.79585691467E+03  0.00000000000E+00 0.  1.
         15    1    5    5    0    0  0.12988353363E+01 -0.65027067194E+01  0.42468920754E+03  0.42474469143E+03  0.17770000000E+01 0. -1.
        -15    1    5    5    0    0 -0.80849738314E+02 -0.65078899886E+02  0.49142610053E+03  0.50226956249E+03  0.17770000000E+01 0.  1.
          1    1    6    6  503    0 -0.46057704436E+02  0.69339768893E+02  0.32725007993E+01  0.83306812144E+02  0.00000000000E+00 0. -1.
         -1    1    6    6    0  503  0.39263376043E+02  0.10690475890E+03  0.26242292106E+02  0.11687128847E+03  0.00000000000E+00 0.  1.
<mgrwt>
<rscale>  0 0.23346870E+03</rscale>
<asrwt>0</asrwt>
<pdfrwt beam="1">  1        2 0.44553289E+00 0.23346870E+03</pdfrwt>
<pdfrwt beam="2">  1       -2 0.14526768E-01 0.23346870E+03</pdfrwt>
<totfact> 0.88333303E+01</totfact>
</mgrwt>
</event>
<event>
12    1  0.7781383E-008  0.8963246E+03  0.7818608E-02  0.9430188E-01
          2   -1    0    0  501    0  0.00000000000E+00  0.00000000000E+00  0.19374183904E+04  0.19374183904E+04  0.00000000000E+00 0. -1.
         -2   -1    0    0    0  501 -0.00000000000E+00 -0.00000000000E+00 -0.15029792827E+04  0.15029792827E+04  0.00000000000E+00 0.  1.
         23    2    1    2    0    0 -0.79252238997E+03  0.19470883471E+03  0.16590798503E+04  0.18511483486E+04  0.90559317192E+02 0.  0.
    5000000    2    1    2    0    0  0.79252238997E+03 -0.19470883471E+03 -0.12246407426E+04  0.15892493246E+04  0.59997099794E+03 0.  0.
         23    2    4    4    0    0  0.40557252761E+03 -0.36674186565E+03 -0.50654680048E+03  0.75085135253E+03  0.90550656292E+02 0.  0.
         23    2    4    4    0    0  0.38694986237E+03  0.17203303094E+03 -0.71809394212E+03  0.83839797206E+03  0.89031961288E+02 0.  0.
          4    1    3    3  502    0 -0.22945814560E+03  0.25760740867E+02  0.53274954023E+03  0.58063476383E+03  0.00000000000E+00 0. -1.
         -4    1    3    3    0  502 -0.56306424437E+03  0.16894809384E+03  0.11263303101E+04  0.12705135848E+04  0.00000000000E+00 0.  1.
         15    1    5    5    0    0  0.14781452381E+03 -0.98299719388E+02 -0.21006023122E+03  0.27502804721E+03  0.17770000000E+01 0.  1.
        -15    1    5    5    0    0  0.25775800380E+03 -0.26844214626E+03 -0.29648656925E+03  0.47582330532E+03  0.17770000000E+01 0. -1.
          1    1    6    6  503    0  0.31765647013E+03  0.13054382099E+03 -0.63850642664E+03  0.72500881310E+03  0.00000000000E+00 0. -1.
         -1    1    6    6    0  503  0.69293392237E+02  0.41489209947E+02 -0.79587515479E+02  0.11338915896E+03  0.00000000000E+00 0.  1.
<mgrwt>
<rscale>  0 0.89632458E+03</rscale>
<asrwt>0</asrwt>
<pdfrwt beam="1">  1        2 0.29806437E+00 0.89632458E+03</pdfrwt>
<pdfrwt beam="2">  1       -2 0.23122758E+00 0.89632458E+03</pdfrwt>
<totfact> 0.61906553E-01</totfact>
</mgrwt>
</event>
<event>
12    1  0.7781383E-008  0.8464289E+03  0.7818608E-02  0.9495142E-01
          1   -1    0    0  501    0  0.00000000000E+00  0.00000000000E+00  0.28307462063E+04  0.28307462063E+04  0.00000000000E+00 0.  1.
         -1   -1    0    0    0  501 -0.00000000000E+00 -0.00000000000E+00 -0.27927091882E+03  0.27927091882E+03  0.00000000000E+00 0. -1.
         23    2    1    2    0    0 -0.53753014640E+03 -0.51735103371E+03  0.70638530717E+03  0.10313508128E+04  0.90075227270E+02 0.  0.
    5000000    2    1    2    0    0  0.53753014640E+03  0.51735103371E+03  0.18450899803E+04  0.20786663123E+04  0.59992153820E+03 0.  0.
         23    2    4    4    0    0  0.37847864094E+03 -0.16154576738E+02  0.66901709948E+03  0.77416329261E+03  0.90762724911E+02 0.  0.
         23    2    4    4    0    0  0.15905150546E+03  0.53350561045E+03  0.11760728808E+04  0.13045030196E+04  0.93032733638E+02 0.  0.
          3    1    3    3  502    0 -0.38934417199E+03 -0.32461499099E+03  0.50676141909E+03  0.71677814735E+03  0.00000000000E+00 0. -1.
         -3    1    3    3    0  502 -0.14818597441E+03 -0.19273604272E+03  0.19962388807E+03  0.31457266548E+03  0.00000000000E+00 0.  1.
         15    1    5    5    0    0  0.25254244966E+03 -0.30751291870E+02  0.51701976332E+03  0.57622558449E+03  0.17770000000E+01 0. -1.
        -15    1    5    5    0    0  0.12593619128E+03  0.14596715132E+02  0.15199733616E+03  0.19793770812E+03  0.17770000000E+01 0.  1.
          3    1    6    6  503    0  0.11971282159E+03  0.27211222931E+03  0.68709418945E+03  0.74864854917E+03  0.00000000000E+00 0. -1.
         -3    1    6    6    0  503  0.39338683872E+02  0.26139338114E+03  0.48897869135E+03  0.55585447048E+03  0.00000000000E+00 0.  1.
<mgrwt>
<rscale>  0 0.84642893E+03</rscale>
<asrwt>0</asrwt>
<pdfrwt beam="1">  1        1 0.43549940E+00 0.84642893E+03</pdfrwt>
<pdfrwt beam="2">  1       -1 0.42964759E-01 0.84642893E+03</pdfrwt>
<totfact> 0.44310608E+00</totfact>
</mgrwt>
</event>
<event>
12    1  0.7781383E-008  0.6118044E+03  0.7818608E-02  0.9881214E-01
          2   -1    0    0  501    0  0.00000000000E+00  0.00000000000E+00  0.16316829203E+04  0.16316829203E+04  0.00000000000E+00 0. -1.
         -2   -1    0    0    0  501 -0.00000000000E+00 -0.00000000000E+00 -0.25673275538E+03  0.25673275538E+03  0.00000000000E+00 0.  1.
         23    2    1    2    0    0 -0.12514920487E+03  0.46984864959E+03  0.73187132073E+03  0.88341170448E+03  0.91435947550E+02 0.  0.
    5000000    2    1    2    0    0  0.12514920487E+03 -0.46984864959E+03  0.64307884417E+03  0.10050039712E+04  0.60005208546E+03 0.  0.
         23    2    4    4    0    0  0.30205289116E+03 -0.43717706923E+03  0.58866982888E+03  0.79833953917E+03  0.91946253046E+02 0.  0.
         23    2    4    4    0    0 -0.17690368629E+03 -0.32671580359E+02  0.54409015288E+02  0.20666443201E+03  0.85950567924E+02 0.  0.
          1    1    3    3  502    0 -0.12829208836E+03  0.32102729433E+03  0.50038276928E+03  0.60819429415E+03  0.00000000000E+00 0. -1.
         -1    1    3    3    0  502  0.31428834910E+01  0.14882135526E+03  0.23148855145E+03  0.27521741033E+03  0.00000000000E+00 0.  1.
         15    1    5    5    0    0  0.53386624379E+02 -0.12274549322E+03  0.10498185177E+03  0.17012035357E+03  0.17770000000E+01 0. -1.
        -15    1    5    5    0    0  0.24866626678E+03 -0.31443157601E+03  0.48368797711E+03  0.62821918560E+03  0.17770000000E+01 0.  1.
          1    1    6    6  503    0 -0.13054629915E+03 -0.56411979206E+02  0.59858408392E+02  0.15429736445E+03  0.00000000000E+00 0. -1.
         -1    1    6    6    0  503 -0.46357387139E+02  0.23740398847E+02 -0.54493931042E+01  0.52367067561E+02  0.00000000000E+00 0.  1.
<mgrwt>
<rscale>  0 0.61180442E+03</rscale>
<asrwt>0</asrwt>
<pdfrwt beam="1">  1        2 0.25102814E+00 0.61180442E+03</pdfrwt>
<pdfrwt beam="2">  1       -2 0.39497348E-01 0.61180442E+03</pdfrwt>
<totfact> 0.67405286E+01</totfact>
</mgrwt>
</event>
<event>
12    1  0.7781383E-008  0.6816804E+03  0.7818608E-02  0.9749084E-01
         -2   -1    0    0    0  501 -0.00000000000E+00  0.00000000000E+00  0.22695036453E+04  0.22695036453E+04  0.00000000000E+00 0.  1.
          2   -1    0    0  501    0  0.00000000000E+00 -0.00000000000E+00 -0.21576154876E+04  0.21576154876E+04  0.00000000000E+00 0. -1.
         23    2    1    2    0    0 -0.61437233794E+03 -0.41164773196E+02  0.21375628237E+04  0.22264939661E+04  0.94618432024E+02 0.  0.
    5000000    2    1    2    0    0  0.61437233794E+03  0.41164773196E+02 -0.20256746660E+04  0.22006251668E+04  0.60020443510E+03 0.  0.
         23    2    4    4    0    0  0.83569342708E+02  0.15331469392E+03 -0.15199626974E+03  0.24786452641E+03  0.88570463619E+02 0.  0.
         23    2    4    4    0    0  0.53080299523E+03 -0.11214992072E+03 -0.18736783963E+04  0.19527606404E+04  0.90961318155E+02 0.  0.
          3    1    3    3  502    0 -0.38100643457E+03 -0.71469709546E+02  0.13294559936E+04  0.13848202271E+04  0.00000000000E+00 0. -1.
         -3    1    3    3    0  502 -0.23336590337E+03  0.30304936350E+02  0.80810683013E+03  0.84167373900E+03  0.00000000000E+00 0.  1.
         15    1    5    5    0    0  0.67836039994E+02  0.16251721734E+03 -0.12818817560E+03  0.21782777680E+03  0.17770000000E+01 0. -1.
        -15    1    5    5    0    0  0.15733302714E+02 -0.92025234179E+01 -0.23808094141E+02  0.30036749611E+02  0.17770000000E+01 0.  1.
          1    1    6    6  503    0  0.49817070292E+03 -0.89283467754E+02 -0.16614948838E+04  0.17368681112E+04  0.00000000000E+00 0. -1.
         -1    1    6    6    0  503  0.32632292304E+02 -0.22866452971E+02 -0.21218351251E+03  0.21589252918E+03  0.00000000000E+00 0.  1.
<mgrwt>
<rscale>  0 0.68168044E+03</rscale>
<asrwt>0</asrwt>
<pdfrwt beam="1">  1        2 0.33194084E+00 0.68168044E+03</pdfrwt>
<pdfrwt beam="2">  1       -2 0.34915441E+00 0.68168044E+03</pdfrwt>
<totfact> 0.95009440E-02</totfact>
</mgrwt>
</event>
<event>
12    1  0.7781383E-008  0.4410224E+03  0.7818608E-02  0.1030434E+00
          2   -1    0    0  501    0  0.00000000000E+00  0.00000000000E+00  0.24934153517E+04  0.24934153517E+04  0.00000000000E+00 0. -1.
         -2   -1    0    0    0  501 -0.00000000000E+00 -0.00000000000E+00 -0.12949834772E+03  0.12949834772E+03  0.00000000000E+00 0.  1.
         23    2    1    2    0    0 -0.37006723532E+03  0.11657253404E+03  0.60567314358E+03  0.72503990975E+03  0.91126283378E+02 0.  0.
    5000000    2    1    2    0    0  0.37006723532E+03 -0.11657253404E+03  0.17582438604E+04  0.18978737896E+04  0.59997044471E+03 0.  0.
         23    2    4    4    0    0  0.18405062195E+01  0.45007183059E+02  0.11723974455E+02  0.10337742115E+03  0.92306043341E+02 0.  0.
         23    2    4    4    0    0  0.36822672910E+03 -0.16157971710E+03  0.17465198859E+04  0.17944963685E+04  0.90479697240E+02 0.  0.
          4    1    3    3  502    0 -0.16410842105E+03  0.99161718072E+02  0.30023972278E+03  0.35624220879E+03  0.00000000000E+00 0. -1.
         -4    1    3    3    0  502 -0.20595881426E+03  0.17410815971E+02  0.30543342080E+03  0.36879770095E+03  0.00000000000E+00 0.  1.
         15    1    5    5    0    0  0.99656037738E+01  0.60921619986E+02  0.37285080855E+02  0.72139393009E+02  0.17770000000E+01 0.  1.
        -15    1    5    5    0    0 -0.81250975543E+01 -0.15914436927E+02 -0.25561106400E+02  0.31238028145E+02  0.17770000000E+01 0. -1.
          3    1    6    6  503    0  0.24633280613E+03 -0.12726098257E+03  0.13525050809E+04  0.13806321751E+04  0.00000000000E+00 0. -1.
         -3    1    6    6    0  503  0.12189392297E+03 -0.34318734533E+02  0.39401480501E+03  0.41386419339E+03  0.00000000000E+00 0.  1.
<mgrwt>
<rscale>  0 0.44102241E+03</rscale>
<asrwt>0</asrwt>
<pdfrwt beam="1">  1        2 0.38360233E+00 0.44102241E+03</pdfrwt>
<pdfrwt beam="2">  1       -2 0.19922825E-01 0.44102241E+03</pdfrwt>
<totfact> 0.82338405E+01</totfact>
</mgrwt>
</event>
<event>
12    1  0.7781383E-008  0.9933722E+03  0.7818608E-02  0.9315844E-01
         -1   -1    0    0    0  501 -0.00000000000E+00  0.00000000000E+00  0.20271998429E+04  0.20271998429E+04  0.00000000000E+00 0.  1.
          1   -1    0    0  501    0  0.00000000000E+00 -0.00000000000E+00 -0.51006777883E+03  0.51006777883E+03  0.00000000000E+00 0. -1.
         23    2    1    2    0    0  0.71628634978E+03  0.57191151854E+03  0.85859149003E+03  0.12590465320E+04  0.88712474431E+02 0.  0.
    5000000    2    1    2    0    0 -0.71628634978E+03 -0.57191151854E+03  0.65854057401E+03  0.12782210897E+04  0.60002045509E+03 0.  0.
         23    2    4    4    0    0 -0.18025560850E+03  0.10154858093E+03  0.96832008959E+02  0.24652017029E+03  0.92690656046E+02 0.  0.
         23    2    4    4    0    0 -0.53603074128E+03 -0.67346009947E+03  0.56170856505E+03  0.10317009194E+04  0.89514321805E+02 0.  0.
          1    1    3    3  502    0  0.49550352157E+03  0.41396549235E+03  0.65486122741E+03  0.91963818750E+03  0.00000000000E+00 0. -1.
         -1    1    3    3    0  502  0.22078282821E+03  0.15794602619E+03  0.20373026262E+03  0.33940834452E+03  0.00000000000E+00 0.  1.
         15    1    5    5    0    0 -0.10802592000E+03  0.45293853510E+02  0.56370310195E+01  0.11728625838E+03  0.17770000000E+01 0.  1.
        -15    1    5    5    0    0 -0.72229688505E+02  0.56254727416E+02  0.91194977940E+02  0.12923391191E+03  0.17770000000E+01 0. -1.
          2    1    6    6  503    0 -0.19505267149E+03 -0.23278984186E+03  0.24921367413E+03  0.39286653014E+03  0.00000000000E+00 0. -1.
         -2    1    6    6    0  503 -0.34097806979E+03 -0.44067025761E+03  0.31249489093E+03  0.63883438924E+03  0.00000000000E+00 0.  1.
<mgrwt>
<rscale>  0 0.99337224E+03</rscale>
<asrwt>0</asrwt>
<pdfrwt beam="1">  1        1 0.78471967E-01 0.99337224E+03</pdfrwt>
<pdfrwt beam="2">  1       -1 0.31187689E+00 0.99337224E+03</pdfrwt>
<totfact> 0.12120637E+00</totfact>
</mgrwt>
</event>
<event>
12    1  0.7781383E-008  0.6340819E+03  0.7818608E-02  0.9837116E-01
          2   -1    0    0  501    0  0.00000000000E+00  0.00000000000E+00  0.12108107784E+04  0.12108107784E+04  0.00000000000E+00 0. -1.
         -2   -1    0    0    0  501 -0.00000000000E+00 -0.00000000000E+00 -0.45134656966E+03  0.45134656966E+03  0.00000000000E+00 0.  1.
         23    2    1    2    0    0  0.44603460516E+03 -0.22858138641E+03  0.71654614212E+03  0.87917151035E+03  0.91147416908E+02 0.  0.
    5000000    2    1    2    0    0 -0.44603460516E+03  0.22858138641E+03  0.42918066661E+02  0.78298583776E+03  0.60002378492E+03 0.  0.
         23    2    4    4    0    0 -0.16541962411E+02  0.32020615330E+03  0.22020332276E+02  0.33398135201E+03  0.90846195976E+02 0.  0.
         23    2    4    4    0    0 -0.42949264275E+03 -0.91624766894E+02  0.20897734385E+02  0.44900448575E+03  0.91155278711E+02 0.  0.
          4    1    3    3  502    0  0.20282786127E+03 -0.64412842750E+02  0.35031881599E+03  0.40989197169E+03  0.00000000000E+00 0. -1.
         -4    1    3    3    0  502  0.24320674388E+03 -0.16416854366E+03  0.36622732613E+03  0.46927953866E+03  0.00000000000E+00 0.  1.
         15    1    5    5    0    0 -0.27546905093E+02  0.25033912771E+03 -0.18348510424E+02  0.25252393235E+03  0.17770000000E+01 0.  1.
        -15    1    5    5    0    0  0.11004942681E+02  0.69867025590E+02  0.40368842700E+02  0.81457419663E+02  0.17770000000E+01 0. -1.
          4    1    6    6  503    0 -0.38522673633E+03 -0.78468112830E+02  0.47035345297E+02  0.39594091330E+03  0.00000000000E+00 0. -1.
         -4    1    6    6    0  503 -0.44265906414E+02 -0.13156654064E+02 -0.26137610912E+02  0.53063572448E+02  0.00000000000E+00 0.  1.
<mgrwt>
<rscale>  0 0.63408186E+03</rscale>
<asrwt>0</asrwt>
<pdfrwt beam="1">  1        2 0.18627858E+00 0.63408186E+03</pdfrwt>
<pdfrwt beam="2">  1       -2 0.69437934E-01 0.63408186E+03</pdfrwt>
<totfact> 0.36421619E+01</totfact>
</mgrwt>
</event>
<event>
12    1  0.7781383E-008  0.1362601E+04  0.7818608E-02  0.8981344E-01
          1   -1    0    0  501    0  0.00000000000E+00  0.00000000000E+00  0.22288352063E+04  0.22288352063E+04  0.00000000000E+00 0. -1.
         -1   -1    0    0    0  501 -0.00000000000E+00 -0.00000000000E+00 -0.92822416708E+03  0.92822416708E+03  0.00000000000E+00 0.  1.
         23    2    1    2    0    0  0.96492238387E+03 -0.87911839199E+03  0.10938052063E+04  0.17056726351E+04  0.94789001491E+02 0.  0.
    5000000    2    1    2    0    0 -0.96492238387E+03  0.87911839199E+03  0.20680583288E+03  0.14513867382E+04  0.59985869786E+03 0.  0.
         23    2    4    4    0    0 -0.26306031311E+03 -0.29444025605E+02  0.63003588208E+01  0.28191965906E+03  0.96805581799E+02 0.  0.
         23    2    4    4    0    0 -0.70186207076E+03  0.90856241759E+03  0.20050547406E+03  0.11694670792E+04  0.96720065727E+02 0.  0.
          3    1    3    3  502    0  0.87980051017E+03 -0.79562392005E+03  0.95631016914E+03  0.15236782795E+04  0.00000000000E+00 0. -1.
         -3    1    3    3    0  502  0.85121873701E+02 -0.83494471941E+02  0.13749503715E+03  0.18199435559E+03  0.00000000000E+00 0.  1.
         15    1    5    5    0    0 -0.45078522020E+02 -0.29120136694E+02  0.31861423287E+02  0.62436876375E+02  0.17770000000E+01 0. -1.
        -15    1    5    5    0    0 -0.21798179109E+03 -0.32388891107E+00 -0.25561064466E+02  0.21948278269E+03  0.17770000000E+01 0.  1.
          2    1    6    6  503    0 -0.57282907615E+03  0.74150238119E+03  0.12507455769E+03  0.94530554678E+03  0.00000000000E+00 0. -1.
         -2    1    6    6    0  503 -0.12903299461E+03  0.16706003640E+03  0.75430916373E+02  0.22416153240E+03  0.00000000000E+00 0.  1.
<mgrwt>
<rscale>  0 0.13626010E+04</rscale>
<asrwt>0</asrwt>
<pdfrwt beam="1">  1        1 0.34289772E+00 0.13626010E+04</pdfrwt>
<pdfrwt beam="2">  1       -1 0.14280372E+00 0.13626010E+04</pdfrwt>
<totfact> 0.79940706E-01</totfact>
</mgrwt>
</event>
<event>
12    1  0.7781383E-008  0.1071087E+04  0.7818608E-02  0.9233840E-01
         -2   -1    0    0    0  501 -0.00000000000E+00  0.00000000000E+00  0.16573958230E+04  0.16573958230E+04  0.00000000000E+00 0.  1.
          2   -1    0    0  501    0  0.00000000000E+00 -0.00000000000E+00 -0.82867078416E+03  0.82867078416E+03  0.00000000000E+00 0. -1.
         23    2    1    2    0    0  0.94576014331E+03 -0.35960499501E+03  0.82680660148E+03  0.13097924740E+04  0.90383447961E+02 0.  0.
    5000000    2    1    2    0    0 -0.94576014331E+03  0.35960499501E+03  0.19184374151E+01  0.11762741332E+04  0.59986594743E+03 0.  0.
         23    2    4    4    0    0 -0.59826955811E+03 -0.34583662680E+02  0.14622551229E+03  0.62368589204E+03  0.92085273545E+02 0.  0.
         23    2    4    4    0    0 -0.34749058520E+03  0.39418865769E+03 -0.14430707487E+03  0.55258824114E+03  0.91623292553E+02 0.  0.
          3    1    3    3  502    0  0.45993548265E+03 -0.16545780365E+03  0.45657846498E+03  0.66886532850E+03  0.00000000000E+00 0. -1.
         -3    1    3    3    0  502  0.48582466066E+03 -0.19414719135E+03  0.37022813650E+03  0.64092714552E+03  0.00000000000E+00 0.  1.
         15    1    5    5    0    0 -0.12790676530E+03 -0.29570862673E+01  0.70882656619E+02  0.14627506181E+03  0.17770000000E+01 0.  1.
        -15    1    5    5    0    0 -0.47036279281E+03 -0.31626576413E+02  0.75342855669E+02  0.47741083024E+03  0.17770000000E+01 0. -1.
          4    1    6    6  503    0 -0.76615842527E+02  0.44887789687E+02 -0.42166762319E+01  0.88897026652E+02  0.00000000000E+00 0. -1.
         -4    1    6    6    0  503 -0.27087474267E+03  0.34930086800E+03 -0.14009039864E+03  0.46369121449E+03  0.00000000000E+00 0.  1.
<mgrwt>
<rscale>  0 0.10710870E+04</rscale>
<asrwt>0</asrwt>
<pdfrwt beam="1">  1        2 0.12748781E+00 0.10710870E+04</pdfrwt>
<pdfrwt beam="2">  1       -2 0.25498397E+00 0.10710870E+04</pdfrwt>
<totfact> 0.19475096E+00</totfact>
</mgrwt>
</event>
<event>
12    1  0.7781383E-008  0.6729988E+03  0.7818608E-02  0.9764556E-01
          1   -1    0    0  501    0  0.00000000000E+00  0.00000000000E+00  0.81901006721E+03  0.81901006721E+03  0.00000000000E+00 0. -1.
         -1   -1    0    0    0  501 -0.00000000000E+00 -0.00000000000E+00 -0.87469963542E+03  0.87469963542E+03  0.00000000000E+00 0.  1.
         23    2    1    2    0    0  0.18272158581E+03 -0.59263665249E+03 -0.42289977346E+03  0.75589565358E+03  0.89042916104E+02 0.  0.
    5000000    2    1    2    0    0 -0.18272158581E+03  0.59263665249E+03  0.36721020526E+03  0.93781404906E+03  0.60003872872E+03 0.  0.
         23    2    4    4    0    0 -0.19976921604E+03  0.94619018128E+02  0.35896273338E+03  0.43124969175E+03  0.90893093315E+02 0.  0.
         23    2    4    4    0    0  0.17047630226E+02  0.49801763436E+03  0.82474718768E+01  0.50656435731E+03  0.90704142514E+02 0.  0.
          2    1    3    3  502    0  0.59603160487E+02 -0.87319047178E+02 -0.85183745231E+02  0.13576974328E+03  0.00000000000E+00 0. -1.
         -2    1    3    3    0  502  0.12311842532E+03 -0.50531760531E+03 -0.33771602823E+03  0.62012591029E+03  0.00000000000E+00 0.  1.
         15    1    5    5    0    0 -0.18746127829E+03  0.85721513276E+02  0.26341146178E+03  0.33448268210E+03  0.17770000000E+01 0. -1.
        -15    1    5    5    0    0 -0.12307937746E+02  0.88975048519E+01  0.95551271596E+02  0.96767009651E+02  0.17770000000E+01 0.  1.
          1    1    6    6  503    0 -0.56315501143E+00  0.28541059356E+03 -0.38989911249E+02  0.28806203714E+03  0.00000000000E+00 0. -1.
         -1    1    6    6    0  503  0.17610785237E+02  0.21260704080E+03  0.47237383126E+02  0.21850232017E+03  0.00000000000E+00 0.  1.
<mgrwt>
<rscale>  0 0.67299883E+03</rscale>
<asrwt>0</asrwt>
<pdfrwt beam="1">  1        1 0.12600155E+00 0.67299883E+03</pdfrwt>
<pdfrwt beam="2">  1       -1 0.13456917E+00 0.67299883E+03</pdfrwt>
<totfact> 0.10304647E+01</totfact>
</mgrwt>
</event>
<event>
12    1  0.7781383E-008  0.1474638E+04  0.7818608E-02  0.8901495E-01
          2   -1    0    0  501    0  0.00000000000E+00  0.00000000000E+00  0.40454022525E+04  0.40454022525E+04  0.00000000000E+00 0. -1.
         -2   -1    0    0    0  501 -0.00000000000E+00 -0.00000000000E+00 -0.66286201431E+03  0.66286201431E+03  0.00000000000E+00 0.  1.
         23    2    1    2    0    0 -0.36537065875E+03 -0.13792814642E+04  0.65618609633E+03  0.15731514372E+04  0.91171134904E+02 0.  0.
    5000000    2    1    2    0    0  0.36537065875E+03  0.13792814642E+04  0.27263541418E+04  0.31351128295E+04  0.60001039294E+03 0.  0.
         23    2    4    4    0    0  0.42236602975E+03  0.13486510312E+04  0.23621829945E+04  0.27541343627E+04  0.89971780258E+02 0.  0.
         23    2    4    4    0    0 -0.56995371000E+02  0.30630432965E+02  0.36417114734E+03  0.38097846685E+03  0.91308662864E+02 0.  0.
          3    1    3    3  502    0 -0.17180315629E+03 -0.81711183772E+03  0.36950069407E+03  0.91308205698E+03  0.00000000000E+00 0. -1.
         -3    1    3    3    0  502 -0.19356750246E+03 -0.56216962644E+03  0.28668540226E+03  0.66006938027E+03  0.00000000000E+00 0.  1.
         15    1    5    5    0    0  0.13002470640E+03  0.43222925224E+03  0.67518206321E+03  0.81215917589E+03  0.17770000000E+01 0.  1.
        -15    1    5    5    0    0  0.29234132335E+03  0.91642177896E+03  0.16870009313E+04  0.19419751868E+04  0.17770000000E+01 0. -1.
          4    1    6    6  503    0 -0.76227662057E+02  0.38822006755E+02  0.23413807906E+03  0.24927584066E+03  0.00000000000E+00 0. -1.
         -4    1    6    6    0  503  0.19232291057E+02 -0.81915737903E+01  0.13003306828E+03  0.13170262619E+03  0.00000000000E+00 0.  1.
<mgrwt>
<rscale>  0 0.14746384E+04</rscale>
<asrwt>0</asrwt>
<pdfrwt beam="1">  1        2 0.62236956E+00 0.14746384E+04</pdfrwt>
<pdfrwt beam="2">  1       -2 0.10197877E+00 0.14746384E+04</pdfrwt>
<totfact> 0.24114982E-01</totfact>
</mgrwt>
</event>
<event>
12    1  0.7781383E-008  0.3390032E+03  0.7818608E-02  0.1067221E+00
          1   -1    0    0  501    0  0.00000000000E+00  0.00000000000E+00  0.24600601135E+04  0.24600601135E+04  0.00000000000E+00 0. -1.
         -1   -1    0    0    0  501 -0.00000000000E+00 -0.00000000000E+00 -0.68060386426E+02  0.68060386426E+02  0.00000000000E+00 0.  1.
         23    2    1    2    0    0 -0.10845233593E+03  0.11588738695E+03  0.76856860139E+03  0.79008830095E+03  0.91378513018E+02 0.  0.
    5000000    2    1    2    0    0  0.10845233593E+03 -0.11588738695E+03  0.16234311257E+04  0.17380321990E+04  0.60002959027E+03 0.  0.
         23    2    4    4    0    0 -0.17270246262E+03 -0.12958913988E+03  0.11969648002E+04  0.12196751869E+04  0.90902931704E+02 0.  0.
         23    2    4    4    0    0  0.28115479855E+03  0.13701752925E+02  0.42646632550E+03  0.51835701203E+03  0.87090219634E+02 0.  0.
          3    1    3    3  502    0 -0.44860088485E+02  0.76719822998E+02  0.58807712451E+03  0.59475462433E+03  0.00000000000E+00 0. -1.
         -3    1    3    3    0  502 -0.63592247444E+02  0.39167563953E+02  0.18049147687E+03  0.19533367663E+03  0.00000000000E+00 0.  1.
         15    1    5    5    0    0 -0.15031534786E+03 -0.78574730892E+02  0.10239264972E+04  0.10378811693E+04  0.17770000000E+01 0.  1.
        -15    1    5    5    0    0 -0.22387114761E+02 -0.51014408983E+02  0.17303830300E+03  0.18179401769E+03  0.17770000000E+01 0. -1.
          3    1    6    6  503    0  0.91749294695E+02 -0.26419792593E+02  0.96278235631E+02  0.13559290975E+03  0.00000000000E+00 0. -1.
         -3    1    6    6    0  503  0.18940550385E+03  0.40121545518E+02  0.33018808987E+03  0.38276410228E+03  0.00000000000E+00 0.  1.
<mgrwt>
<rscale>  0 0.33900320E+03</rscale>
<asrwt>0</asrwt>
<pdfrwt beam="1">  1        1 0.37847072E+00 0.33900320E+03</pdfrwt>
<pdfrwt beam="2">  1       -1 0.10470831E-01 0.33900320E+03</pdfrwt>
<totfact> 0.94115737E+01</totfact>
</mgrwt>
</event>
<event>
12    1  0.7781383E-008  0.4818944E+03  0.7818608E-02  0.1018616E+00
          1   -1    0    0  501    0  0.00000000000E+00  0.00000000000E+00  0.31597135397E+03  0.31597135397E+03  0.00000000000E+00 0. -1.
         -1   -1    0    0    0  501 -0.00000000000E+00 -0.00000000000E+00 -0.77471039643E+03  0.77471039643E+03  0.00000000000E+00 0.  1.
         23    2    1    2    0    0  0.28878808070E+03  0.46417672659E+02 -0.23218975087E+03  0.38575244542E+03  0.96642189792E+02 0.  0.
    5000000    2    1    2    0    0 -0.28878808070E+03 -0.46417672659E+02 -0.22654929159E+03  0.70492930498E+03  0.60003965503E+03 0.  0.
         23    2    4    4    0    0 -0.37914642569E+02 -0.28859761837E+03 -0.76366751621E+02  0.31438447953E+03  0.90992388496E+02 0.  0.
         23    2    4    4    0    0 -0.25087343813E+03  0.24217994571E+03 -0.15018253996E+03  0.39054482545E+03  0.91552483898E+02 0.  0.
          4    1    3    3  502    0  0.19269251912E+03  0.76436320129E+02 -0.16019916699E+03  0.26198605127E+03  0.00000000000E+00 0. -1.
         -4    1    3    3    0  502  0.96095561584E+02 -0.30018647470E+02 -0.71990583884E+02  0.12376639415E+03  0.00000000000E+00 0.  1.
         15    1    5    5    0    0 -0.62275792139E+02 -0.17498614115E+03 -0.25336350633E+02  0.18746602965E+03  0.17770000000E+01 0.  1.
        -15    1    5    5    0    0  0.24361149570E+02 -0.11361147722E+03 -0.51030400989E+02  0.12691844988E+03  0.17770000000E+01 0. -1.
          1    1    6    6  503    0 -0.14120453994E+03  0.17648316885E+03 -0.13109391720E+03  0.26128652111E+03  0.00000000000E+00 0. -1.
         -1    1    6    6    0  503 -0.10966889820E+03  0.65696776862E+02 -0.19088622766E+02  0.12925830434E+03  0.00000000000E+00 0.  1.
<mgrwt>
<rscale>  0 0.48189439E+03</rscale>
<asrwt>0</asrwt>
<pdfrwt beam="1">  1        1 0.48610978E-01 0.48189439E+03</pdfrwt>
<pdfrwt beam="2">  1       -1 0.11918621E+00 0.48189439E+03</pdfrwt>
<totfact> 0.53956343E+01</totfact>
</mgrwt>
</event>
<event>
12    1  0.7781383E-008  0.5434142E+03  0.7818608E-02  0.1003030E+00
         -2   -1    0    0    0  501 -0.00000000000E+00  0.00000000000E+00  0.42121660624E+03  0.42121660624E+03  0.00000000000E+00 0.  1.
          2   -1    0    0  501    0  0.00000000000E+00 -0.00000000000E+00 -0.72458780726E+03  0.72458780726E+03  0.00000000000E+00 0. -1.
         23    2    1    2    0    0  0.13300077773E+03 -0.35626801074E+03 -0.15278859306E+03  0.41969817636E+03  0.90477083946E+02 0.  0.
    5000000    2    1    2    0    0 -0.13300077773E+03  0.35626801074E+03 -0.15058260795E+03  0.72610623714E+03  0.59994920071E+03 0.  0.
         23    2    4    4    0    0 -0.22234623000E+03 -0.81934088566E+02 -0.54497672869E+02  0.25984760549E+03  0.91650100195E+02 0.  0.
         23    2    4    4    0    0  0.89345452268E+02  0.43820209931E+03 -0.96084935083E+02  0.46625863165E+03  0.90338846343E+02 0.  0.
          4    1    3    3  502    0  0.33230456701E+02 -0.25448646326E+02  0.81720715933E-01  0.41855746686E+02  0.00000000000E+00 0. -1.
         -4    1    3    3    0  502  0.99770321030E+02 -0.33081936442E+03 -0.15287031378E+03  0.37784242968E+03  0.00000000000E+00 0.  1.
         15    1    5    5    0    0 -0.36295677153E+02 -0.51083326016E+02 -0.30537870578E+02  0.69732357233E+02  0.17770000000E+01 0. -1.
        -15    1    5    5    0    0 -0.18605055285E+03 -0.30850762550E+02 -0.23959802291E+02  0.19011524825E+03  0.17770000000E+01 0.  1.
          2    1    6    6  503    0  0.42955309277E+02  0.14268563693E+03  0.87934162698E+01  0.14927047180E+03  0.00000000000E+00 0. -1.
         -2    1    6    6    0  503  0.46390142991E+02  0.29551646238E+03 -0.10487835135E+03  0.31698815985E+03  0.00000000000E+00 0.  1.
<mgrwt>
<rscale>  0 0.54341422E+03</rscale>
<asrwt>0</asrwt>
<pdfrwt beam="1">  1        2 0.11147505E+00 0.54341422E+03</pdfrwt>
<pdfrwt beam="2">  1       -2 0.64802555E-01 0.54341422E+03</pdfrwt>
<totfact> 0.88595487E+01</totfact>
</mgrwt>
</event>
<event>
12    1  0.7781383E-008  0.7135234E+03  0.7818608E-02  0.9694381E-01
         -2   -1    0    0    0  501 -0.00000000000E+00  0.00000000000E+00  0.11513069024E+04  0.11513069024E+04  0.00000000000E+00 0.  1.
          2   -1    0    0  501    0  0.00000000000E+00 -0.00000000000E+00 -0.58271119084E+03  0.58271119084E+03  0.00000000000E+00 0. -1.
         23    2    1    2    0    0  0.92687154772E+02  0.63082957965E+03  0.56762978928E+03  0.85847391031E+03  0.90757973692E+02 0.  0.
    5000000    2    1    2    0    0 -0.92687154772E+02 -0.63082957965E+03  0.96592224919E+00  0.87554418290E+03  0.60003317906E+03 0.  0.
         23    2    4    4    0    0  0.11876943887E+03 -0.19140005260E+02  0.14221633828E+03  0.20792471071E+03  0.92383326628E+02 0.  0.
         23    2    4    4    0    0 -0.21145659364E+03 -0.61168957439E+03 -0.14125041603E+03  0.66761947219E+03  0.82982246320E+02 0.  0.
          2    1    3    3  502    0  0.63531232824E+02  0.35072551800E+03  0.25852191468E+03  0.44031600799E+03  0.00000000000E+00 0. -1.
         -2    1    3    3    0  502  0.29155921948E+02  0.28010406165E+03  0.30910787460E+03  0.41815790232E+03  0.00000000000E+00 0.  1.
         15    1    5    5    0    0  0.72201580587E+02 -0.47956722564E+02  0.12169095605E+03  0.14941473151E+03  0.17770000000E+01 0. -1.
        -15    1    5    5    0    0  0.46567858285E+02  0.28816717305E+02  0.20525382229E+02  0.58509979201E+02  0.17770000000E+01 0.  1.
          1    1    6    6  503    0 -0.51415788246E+02 -0.17596879799E+03 -0.77675804157E+02  0.19910331915E+03  0.00000000000E+00 0. -1.
         -1    1    6    6    0  503 -0.16004080540E+03 -0.43572077640E+03 -0.63574611872E+02  0.46851615303E+03  0.00000000000E+00 0.  1.
<mgrwt>
<rscale>  0 0.71352339E+03</rscale>
<asrwt>0</asrwt>
<pdfrwt beam="1">  1        2 0.89647876E-01 0.71352339E+03</pdfrwt>
<pdfrwt beam="2">  1       -2 0.17712414E+00 0.71352339E+03</pdfrwt>
<totfact> 0.99592566E+00</totfact>
</mgrwt>
</event>
<event>
12    1  0.7781383E-008  0.7976442E+03  0.7818608E-02  0.9563433E-01
         -1   -1    0    0    0  501 -0.00000000000E+00  0.00000000000E+00  0.22173043215E+03  0.22173043215E+03  0.00000000000E+00 0.  1.
          1   -1    0    0  501    0  0.00000000000E+00 -0.00000000000E+00 -0.34299349078E+04  0.34299349078E+04  0.00000000000E+00 0. -1.
         23    2    1    2    0    0 -0.28065419320E+03 -0.68641331845E+03 -0.10177493039E+04  0.12623101495E+04  0.87654138349E+02 0.  0.
    5000000    2    1    2    0    0  0.28065419320E+03  0.68641331845E+03 -0.21904551717E+04  0.23893551904E+04  0.60082805099E+03 0.  0.
         23    2    4    4    0    0  0.34459475895E+03  0.64080304419E+03 -0.13136333402E+04  0.15043254613E+04  0.89378138641E+02 0.  0.
         23    2    4    4    0    0 -0.63940565746E+02  0.45610274258E+02 -0.87682183156E+03  0.88502972918E+03  0.91062638706E+02 0.  0.
          1    1    3    3  502    0 -0.99124639736E+02 -0.35781221618E+03 -0.51241259108E+03  0.63278901678E+03  0.00000000000E+00 0. -1.
         -1    1    3    3    0  502 -0.18152955346E+03 -0.32860110227E+03 -0.50533671282E+03  0.62952113270E+03  0.00000000000E+00 0.  1.
         15    1    5    5    0    0  0.22081287628E+03  0.37149640465E+03 -0.69610574318E+03  0.81934990597E+03  0.17770000000E+01 0. -1.
        -15    1    5    5    0    0  0.12378188267E+03  0.26930663954E+03 -0.61752759697E+03  0.68497555528E+03  0.17770000000E+01 0.  1.
          4    1    6    6  503    0  0.17275279612E+02  0.33793191904E+02 -0.25240405182E+03  0.25524149443E+03  0.00000000000E+00 0. -1.
         -4    1    6    6    0  503 -0.81215845359E+02  0.11817082354E+02 -0.62441777974E+03  0.62978823475E+03  0.00000000000E+00 0.  1.
<mgrwt>
<rscale>  0 0.79764418E+03</rscale>
<asrwt>0</asrwt>
<pdfrwt beam="1">  1        1 0.52768222E+00 0.79764418E+03</pdfrwt>
<pdfrwt beam="2">  1       -1 0.34112379E-01 0.79764418E+03</pdfrwt>
<totfact> 0.24709304E+00</totfact>
</mgrwt>
</event>
<event>
12    1  0.7781383E-008  0.1076781E+04  0.7818608E-02  0.9228123E-01
          1   -1    0    0  501    0  0.00000000000E+00  0.00000000000E+00  0.28933297132E+04  0.28933297132E+04  0.00000000000E+00 0. -1.
         -1   -1    0    0    0  501 -0.00000000000E+00 -0.00000000000E+00 -0.68641584313E+03  0.68641584313E+03  0.00000000000E+00 0.  1.
         23    2    1    2    0    0  0.66431843281E+03  0.78412626148E+03  0.21541968057E+04  0.23885475644E+04  0.91774809256E+02 0.  0.
    5000000    2    1    2    0    0 -0.66431843281E+03 -0.78412626148E+03  0.52717064317E+02  0.11911979919E+04  0.60000049405E+03 0.  0.
         23    2    4    4    0    0 -0.43502542672E+03 -0.18994826967E+03 -0.16734815953E+03  0.51143289784E+03  0.90723400784E+02 0.  0.
         23    2    4    4    0    0 -0.22929300609E+03 -0.59417799181E+03  0.22006522385E+03  0.67976509404E+03  0.89605310844E+02 0.  0.
          4    1    3    3  502    0  0.11859681556E+03  0.14646014888E+03  0.48218073251E+03  0.51770072308E+03  0.00000000000E+00 0. -1.
         -4    1    3    3    0  502  0.54572161725E+03  0.63766611260E+03  0.16720160732E+04  0.18708468413E+04  0.00000000000E+00 0.  1.
         15    1    5    5    0    0 -0.22075155825E+03 -0.47173304253E+02 -0.74661037153E+02  0.23776879379E+03  0.17770000000E+01 0.  1.
        -15    1    5    5    0    0 -0.21427386847E+03 -0.14277496542E+03 -0.92687122381E+02  0.27366410405E+03  0.17770000000E+01 0. -1.
          3    1    6    6  503    0 -0.45033400918E+02 -0.46524127408E+02  0.13574928388E+02  0.66157239287E+02  0.00000000000E+00 0.  1.
         -3    1    6    6    0  503 -0.18425960517E+03 -0.54765386440E+03  0.20649029546E+03  0.61360785475E+03  0.00000000000E+00 0. -1.
<mgrwt>
<rscale>  0 0.10767811E+04</rscale>
<asrwt>0</asrwt>
<pdfrwt beam="1">  1        1 0.44512764E+00 0.10767811E+04</pdfrwt>
<pdfrwt beam="2">  1       -1 0.10560244E+00 0.10767811E+04</pdfrwt>
<totfact> 0.60776116E-01</totfact>
</mgrwt>
</event>
<event>
12    1  0.7781383E-008  0.1498614E+04  0.7818608E-02  0.8885375E-01
          2   -1    0    0  501    0  0.00000000000E+00  0.00000000000E+00  0.30523394042E+04  0.30523394042E+04  0.00000000000E+00 0.  1.
         -2   -1    0    0    0  501 -0.00000000000E+00 -0.00000000000E+00 -0.91515916541E+03  0.91515916541E+03  0.00000000000E+00 0. -1.
         23    2    1    2    0    0  0.88292014908E+03 -0.12075347603E+04  0.17610092820E+04  0.23124353096E+04  0.92277748958E+02 0.  0.
    5000000    2    1    2    0    0 -0.88292014908E+03  0.12075347603E+04  0.37617095680E+03  0.16550632600E+04  0.60003468132E+03 0.  0.
         23    2    4    4    0    0 -0.18416421703E+03  0.28670770117E+03  0.34826997969E+03  0.49516051285E+03  0.88171367129E+02 0.  0.
         23    2    4    4    0    0 -0.69875593204E+03  0.92082705914E+03  0.27900977109E+02  0.11599027471E+04  0.91725639146E+02 0.  0.
          4    1    3    3  502    0  0.40395744985E+03 -0.51056366861E+03  0.82568427607E+03  0.10514805774E+04  0.00000000000E+00 0. -1.
         -4    1    3    3    0  502  0.47896269923E+03 -0.69697109170E+03  0.93532500595E+03  0.12609547322E+04  0.00000000000E+00 0.  1.
         15    1    5    5    0    0 -0.13159541209E+03  0.18795849565E+03  0.28749824425E+03  0.36783711986E+03  0.17770000000E+01 0. -1.
        -15    1    5    5    0    0 -0.52568804943E+02  0.98749205521E+02  0.60771735441E+02  0.12732339299E+03  0.17770000000E+01 0.  1.
          3    1    6    6  503    0 -0.63454929095E+02  0.13087589833E+03 -0.65683725157E+01  0.14559592133E+03  0.00000000000E+00 0. -1.
         -3    1    6    6    0  503 -0.63530100295E+03  0.78995116081E+03  0.34469349624E+02  0.10143068258E+04  0.00000000000E+00 0.  1.
<mgrwt>
<rscale>  0 0.14986144E+04</rscale>
<asrwt>0</asrwt>
<pdfrwt beam="1">  1        2 0.46959067E+00 0.14986144E+04</pdfrwt>
<pdfrwt beam="2">  1       -2 0.14079372E+00 0.14986144E+04</pdfrwt>
<totfact> 0.54241189E-01</totfact>
</mgrwt>
</event>
<event>
12    1  0.7781383E-008  0.2966292E+03  0.7818608E-02  0.1086938E+00
         -1   -1    0    0    0  501 -0.00000000000E+00  0.00000000000E+00  0.12179287453E+03  0.12179287453E+03  0.00000000000E+00 0.  1.
          1   -1    0    0  501    0  0.00000000000E+00 -0.00000000000E+00 -0.11765830107E+04  0.11765830107E+04  0.00000000000E+00 0. -1.
         23    2    1    2    0    0 -0.42370827417E+02 -0.10430985242E+03 -0.17025602090E+03  0.22368100830E+03  0.91489062145E+02 0.  0.
    5000000    2    1    2    0    0  0.42370827417E+02  0.10430985242E+03 -0.88453411529E+03  0.10746948770E+04  0.59991053093E+03 0.  0.
         23    2    4    4    0    0 -0.17679581938E+02  0.26329050663E+03 -0.83007221475E+03  0.87577618508E+03  0.91266566508E+02 0.  0.
         23    2    4    4    0    0  0.60050409355E+02 -0.15898065420E+03 -0.54461900538E+02  0.19891869187E+03  0.87872904196E+02 0.  0.
          4    1    3    3  502    0 -0.46869295223E+02 -0.43588704252E+02 -0.14359153570E+03  0.15721079829E+03  0.00000000000E+00 0.  1.
         -4    1    3    3    0  502  0.44984678067E+01 -0.60721148172E+02 -0.26664485196E+02  0.66470210010E+02  0.00000000000E+00 0. -1.
         15    1    5    5    0    0 -0.49059731423E+02  0.10583726325E+03 -0.29869451451E+03  0.32067109983E+03  0.17770000000E+01 0.  1.
        -15    1    5    5    0    0  0.31380149485E+02  0.15745324338E+03 -0.53137770024E+03  0.55510508525E+03  0.17770000000E+01 0. -1.
          4    1    6    6  503    0  0.66965592729E+02 -0.54261151859E+02 -0.20263243343E+02  0.88539608320E+02  0.00000000000E+00 0. -1.
         -4    1    6    6    0  503 -0.69151833741E+01 -0.10471950234E+03 -0.34198657195E+02  0.11037908355E+03  0.00000000000E+00 0.  1.
<mgrwt>
<rscale>  0 0.29662924E+03</rscale>
<asrwt>0</asrwt>
<pdfrwt beam="1">  1        1 0.18101277E+00 0.29662924E+03</pdfrwt>
<pdfrwt beam="2">  1       -1 0.18737365E-01 0.29662924E+03</pdfrwt>
<totfact> 0.26769551E+02</totfact>
</mgrwt>
</event>
<event>
12    1  0.7781383E-008  0.4667619E+03  0.7818608E-02  0.1022838E+00
          1   -1    0    0  501    0  0.00000000000E+00  0.00000000000E+00  0.79194258863E+03  0.79194258863E+03  0.00000000000E+00 0. -1.
         -1   -1    0    0    0  501 -0.00000000000E+00 -0.00000000000E+00 -0.36204057773E+03  0.36204057773E+03  0.00000000000E+00 0.  1.
         23    2    1    2    0    0 -0.26016458521E+03  0.17472627833E+03 -0.41472643756E+02  0.32913476851E+03  0.91623315399E+02 0.  0.
    5000000    2    1    2    0    0  0.26016458521E+03 -0.17472627833E+03  0.47137465465E+03  0.82484839785E+03  0.59997160820E+03 0.  0.
         23    2    4    4    0    0  0.38952192192E+03 -0.22571618824E+03  0.46991622448E+03  0.65733907211E+03  0.92726869927E+02 0.  0.
         23    2    4    4    0    0 -0.12935733671E+03  0.50989909909E+02  0.14584301700E+01  0.16750932574E+03  0.93402118381E+02 0.  0.
          1    1    3    3  502    0 -0.17106332518E+03  0.15299342073E+03 -0.25737857152E+01  0.22951312028E+03  0.00000000000E+00 0. -1.
         -1    1    3    3    0  502 -0.89101260032E+02  0.21732857596E+02 -0.38898858040E+02  0.99621648227E+02  0.00000000000E+00 0.  1.
         15    1    5    5    0    0  0.27277597622E+03 -0.12122853954E+03  0.35015995906E+03  0.46012851103E+03  0.17770000000E+01 0.  1.
        -15    1    5    5    0    0  0.11674594570E+03 -0.10448764869E+03  0.11975626542E+03  0.19721056108E+03  0.17770000000E+01 0. -1.
          1    1    6    6  503    0 -0.20644054280E+02  0.43497718413E+02  0.27529828130E+02  0.55462779601E+02  0.00000000000E+00 0. -1.
         -1    1    6    6    0  503 -0.10871328243E+03  0.74921914954E+01 -0.26071397960E+02  0.11204654614E+03  0.00000000000E+00 0.  1.
<mgrwt>
<rscale>  0 0.46676187E+03</rscale>
<asrwt>0</asrwt>
<pdfrwt beam="1">  1        1 0.12183732E+00 0.46676187E+03</pdfrwt>
<pdfrwt beam="2">  1       -1 0.55698551E-01 0.46676187E+03</pdfrwt>
<totfact> 0.76977991E+01</totfact>
</mgrwt>
</event>
<event>
12    1  0.7781383E-008  0.8728582E+03  0.7818608E-02  0.9460161E-01
         -2   -1    0    0    0  501 -0.00000000000E+00  0.00000000000E+00  0.83475348478E+03  0.83475348478E+03  0.00000000000E+00 0. -1.
          2   -1    0    0  501    0  0.00000000000E+00 -0.00000000000E+00 -0.11013094536E+04  0.11013094536E+04  0.00000000000E+00 0.  1.
         23    2    1    2    0    0 -0.45762333876E+03 -0.64299684280E+03 -0.47121167634E+03  0.92393073115E+03  0.93506641594E+02 0.  0.
    5000000    2    1    2    0    0  0.45762333876E+03  0.64299684280E+03  0.20465570756E+03  0.10121322072E+04  0.59971958961E+03 0.  0.
         23    2    4    4    0    0  0.57306643174E+03  0.53752359929E+03  0.82272628291E+02  0.79521012331E+03  0.90849325077E+02 0.  0.
         23    2    4    4    0    0 -0.11544309298E+03  0.10547324350E+03  0.12238307927E+03  0.21692208388E+03  0.87326167733E+02 0.  0.
          4    1    3    3  502    0 -0.20252518458E+03 -0.20738739420E+03 -0.17724162925E+03  0.33976547323E+03  0.00000000000E+00 0. -1.
         -4    1    3    3    0  502 -0.25509815419E+03 -0.43560944860E+03 -0.29397004709E+03  0.58416525792E+03  0.00000000000E+00 0.  1.
         15    1    5    5    0    0  0.48966779714E+03  0.46344397109E+03  0.38306948256E+02  0.67529656145E+03  0.17770000000E+01 0. -1.
        -15    1    5    5    0    0  0.83398634596E+02  0.74079628208E+02  0.43965680035E+02  0.11991356186E+03  0.17770000000E+01 0.  1.
          4    1    6    6  503    0 -0.10088443558E+03  0.59685535732E+02  0.12155876501E+03  0.16886848690E+03  0.00000000000E+00 0. -1.
         -4    1    6    6    0  503 -0.14558657400E+02  0.45787707770E+02  0.82431425626E+00  0.48053596974E+02  0.00000000000E+00 0.  1.
<mgrwt>
<rscale>  0 0.87285820E+03</rscale>
<asrwt>0</asrwt>
<pdfrwt beam="1">  1        2 0.16943222E+00 0.87285820E+03</pdfrwt>
<pdfrwt beam="2">  1       -2 0.12842361E+00 0.87285820E+03</pdfrwt>
<totfact> 0.97840893E+00</totfact>
</mgrwt>
</event>
<event>
12    1  0.7781383E-008  0.1678317E+04  0.7818608E-02  0.8773829E-01
         -2   -1    0    0    0  501 -0.00000000000E+00  0.00000000000E+00  0.32736238485E+04  0.32736238485E+04  0.00000000000E+00 0. -1.
          2   -1    0    0  501    0  0.00000000000E+00 -0.00000000000E+00 -0.92886698508E+03  0.92886698508E+03  0.00000000000E+00 0.  1.
         23    2    1    2    0    0 -0.15599134716E+04 -0.46882658528E+03  0.16855421972E+04  0.23457642386E+04  0.91809360226E+02 0.  0.
    5000000    2    1    2    0    0  0.15599134716E+04  0.46882658528E+03  0.65921466622E+03  0.18567265950E+04  0.59978434996E+03 0.  0.
         23    2    4    4    0    0  0.11639368906E+04  0.81259770232E+02  0.38896207246E+03  0.12336345639E+04  0.95971391284E+02 0.  0.
         23    2    4    4    0    0  0.39597658102E+03  0.38756681505E+03  0.27025259375E+03  0.62309203108E+03  0.90563380704E+02 0.  0.
          2    1    3    3  502    0 -0.12904456055E+04 -0.37422278602E+03  0.14351868556E+04  0.19659740245E+04  0.00000000000E+00 0. -1.
         -2    1    3    3    0  502 -0.26946786612E+03 -0.94603799262E+02  0.25035534156E+03  0.37979021414E+03  0.00000000000E+00 0.  1.
         15    1    5    5    0    0  0.77683446736E+03  0.87085244333E+02  0.29262200520E+03  0.83467743777E+03  0.17770000000E+01 0. -1.
        -15    1    5    5    0    0  0.38710242321E+03 -0.58254741010E+01  0.96340067261E+02  0.39895712614E+03  0.17770000000E+01 0.  1.
          3    1    6    6  503    0  0.63865265963E+02  0.29972022692E+02  0.14173373938E+02  0.71958174445E+02  0.00000000000E+00 0. -1.
         -3    1    6    6    0  503  0.33211131505E+03  0.35759479236E+03  0.25607921982E+03  0.55113385664E+03  0.00000000000E+00 0.  1.
<mgrwt>
<rscale>  0 0.16783169E+04</rscale>
<asrwt>0</asrwt>
<pdfrwt beam="1">  1        2 0.14290261E+00 0.16783169E+04</pdfrwt>
<pdfrwt beam="2">  1       -2 0.50363443E+00 0.16783169E+04</pdfrwt>
<totfact> 0.40581346E-02</totfact>
</mgrwt>
</event>
<event>
12    1  0.7781383E-008  0.3745225E+03  0.7818608E-02  0.1052977E+00
         -2   -1    0    0    0  501 -0.00000000000E+00  0.00000000000E+00  0.58534608659E+03  0.58534608659E+03  0.00000000000E+00 0.  1.
          2   -1    0    0  501    0  0.00000000000E+00 -0.00000000000E+00 -0.37324790166E+03  0.37324790166E+03  0.00000000000E+00 0. -1.
         23    2    1    2    0    0 -0.18742197446E+03  0.61702175041E+02 -0.11567722782E+03  0.24690144996E+03  0.92978223468E+02 0.  0.
    5000000    2    1    2    0    0  0.18742197446E+03 -0.61702175041E+02  0.32777541275E+03  0.71169253829E+03  0.60011281684E+03 0.  0.
         23    2    4    4    0    0  0.27197341089E+02  0.21607543136E+03 -0.83683181853E+01  0.23822487437E+03  0.96191343790E+02 0.  0.
         23    2    4    4    0    0  0.16022463337E+03 -0.27777760640E+03  0.33614373094E+03  0.47346766392E+03  0.91360216581E+02 0.  0.
          1    1    3    3  502    0 -0.13493498558E+03  0.39295792933E+02 -0.29599438622E+02  0.14362359292E+03  0.00000000000E+00 0. -1.
         -1    1    3    3    0  502 -0.52486988876E+02  0.22406382108E+02 -0.86077789201E+02  0.10327785704E+03  0.00000000000E+00 0.  1.
         15    1    5    5    0    0  0.23865246949E+02  0.15432312583E+03 -0.49625120827E+02  0.16386270938E+03  0.17770000000E+01 0.  1.
        -15    1    5    5    0    0  0.33320941405E+01  0.61752305528E+02  0.41256802641E+02  0.74362164994E+02  0.17770000000E+01 0. -1.
          3    1    6    6  503    0  0.89949770854E+02 -0.69754999188E+02  0.11804554376E+03  0.16398619329E+03  0.00000000000E+00 0. -1.
         -3    1    6    6    0  503  0.70274862517E+02 -0.20802260721E+03  0.21809818718E+03  0.30948147063E+03  0.00000000000E+00 0.  1.
<mgrwt>
<rscale>  0 0.37452254E+03</rscale>
<asrwt>0</asrwt>
<pdfrwt beam="1">  1        2 0.57422754E-01 0.37452254E+03</pdfrwt>
<pdfrwt beam="2">  1       -2 0.90053244E-01 0.37452254E+03</pdfrwt>
<totfact> 0.93967304E+01</totfact>
</mgrwt>
</event>
<event>
12    1  0.7781383E-008  0.5898054E+03  0.7818608E-02  0.9926785E-01
         -2   -1    0    0    0  501 -0.00000000000E+00  0.00000000000E+00  0.15481847869E+04  0.15481847869E+04  0.00000000000E+00 0.  1.
          2   -1    0    0  501    0  0.00000000000E+00 -0.00000000000E+00 -0.29426761488E+03  0.29426761488E+03  0.00000000000E+00 0. -1.
         23    2    1    2    0    0 -0.48005598961E+03 -0.23453579252E+03  0.43043911126E+03  0.69206720858E+03  0.90655399985E+02 0.  0.
    5000000    2    1    2    0    0  0.48005598961E+03  0.23453579252E+03  0.82347806075E+03  0.11503851932E+04  0.59984096647E+03 0.  0.
         23    2    4    4    0    0  0.46407173993E+03  0.66739619409E+02  0.83204743386E+03  0.95932995916E+03  0.90522272184E+02 0.  0.
         23    2    4    4    0    0  0.15984249682E+02  0.16779617311E+03 -0.85693731068E+01  0.19105523404E+03  0.89541143330E+02 0.  0.
          3    1    3    3  502    0 -0.30654512340E+03 -0.13447956366E+03  0.32119533321E+03  0.46391929018E+03  0.00000000000E+00 0. -1.
         -3    1    3    3    0  502 -0.17351086621E+03 -0.10005622886E+03  0.10924377806E+03  0.22814791840E+03  0.00000000000E+00 0.  1.
         15    1    5    5    0    0  0.23522847075E+03  0.53793021841E+02  0.50810111136E+03  0.56249090636E+03  0.17770000000E+01 0. -1.
        -15    1    5    5    0    0  0.22884326918E+03  0.12946597568E+02  0.32394632250E+03  0.39683905280E+03  0.17770000000E+01 0.  1.
          1    1    6    6  503    0 -0.14845624785E+02  0.42608075309E+02  0.32654084751E+02  0.55696767480E+02  0.00000000000E+00 0. -1.
         -1    1    6    6    0  503  0.30829874467E+02  0.12518809780E+03 -0.41223457858E+02  0.13535846656E+03  0.00000000000E+00 0.  1.
<mgrwt>
<rscale>  0 0.58980544E+03</rscale>
<asrwt>0</asrwt>
<pdfrwt beam="1">  1        2 0.45271941E-01 0.58980544E+03</pdfrwt>
<pdfrwt beam="2">  1       -2 0.23818227E+00 0.58980544E+03</pdfrwt>
<totfact> 0.89084252E+00</totfact>
</mgrwt>
</event>
<event>
12    1  0.7781383E-008  0.7341488E+03  0.7818608E-02  0.9660552E-01
          1   -1    0    0  501    0  0.00000000000E+00  0.00000000000E+00  0.81929242659E+03  0.81929242659E+03  0.00000000000E+00 0. -1.
         -1   -1    0    0    0  501 -0.00000000000E+00 -0.00000000000E+00 -0.76307261610E+03  0.76307261610E+03  0.00000000000E+00 0.  1.
         23    2    1    2    0    0 -0.63356917136E+03 -0.66675280668E+02  0.24097069478E+03  0.68781577887E+03  0.95750623828E+02 0.  0.
    5000000    2    1    2    0    0  0.63356917136E+03  0.66675280668E+02 -0.18475088429E+03  0.89454926382E+03  0.60019164290E+03 0.  0.
         23    2    4    4    0    0  0.70488057028E+03  0.10927480844E+03 -0.65624156411E+02  0.72218710858E+03  0.91924358974E+02 0.  0.
         23    2    4    4    0    0 -0.71311398916E+02 -0.42599527776E+02 -0.11912672788E+03  0.17236215524E+03  0.92830490052E+02 0.  0.
          4    1    3    3  502    0 -0.55370372637E+03 -0.56497225460E+02  0.17415094463E+03  0.58318805252E+03  0.00000000000E+00 0. -1.
         -4    1    3    3    0  502 -0.79865444994E+02 -0.10178055208E+02  0.66819750150E+02  0.10462772635E+03  0.00000000000E+00 0.  1.
         15    1    5    5    0    0  0.52038033274E+03  0.81791599289E+02 -0.88814904140E+02  0.53420670282E+03  0.17770000000E+01 0.  1.
        -15    1    5    5    0    0  0.18450023754E+03  0.27483209155E+02  0.23190747729E+02  0.18798040576E+03  0.17770000000E+01 0. -1.
          2    1    6    6  503    0 -0.62071091326E+02  0.11397880487E+02 -0.35554778183E+02  0.72435311207E+02  0.00000000000E+00 0.  1.
         -2    1    6    6    0  503 -0.92403075905E+01 -0.53997408263E+02 -0.83571949695E+02  0.99926844038E+02  0.00000000000E+00 0. -1.
<mgrwt>
<rscale>  0 0.73414880E+03</rscale>
<asrwt>0</asrwt>
<pdfrwt beam="1">  1        1 0.12604499E+00 0.73414880E+03</pdfrwt>
<pdfrwt beam="2">  1       -1 0.11739579E+00 0.73414880E+03</pdfrwt>
<totfact> 0.14329905E+01</totfact>
</mgrwt>
</event>
<event>
12    1  0.7781383E-008  0.5203945E+03  0.7818608E-02  0.1008589E+00
         -1   -1    0    0    0  501 -0.00000000000E+00  0.00000000000E+00  0.56108358390E+03  0.56108358390E+03  0.00000000000E+00 0.  1.
          1   -1    0    0  501    0  0.00000000000E+00 -0.00000000000E+00 -0.50498972266E+03  0.50498972266E+03  0.00000000000E+00 0. -1.
         23    2    1    2    0    0  0.18450099439E+03  0.30424993188E+03  0.16567106277E+02  0.36738022380E+03  0.89917305628E+02 0.  0.
    5000000    2    1    2    0    0 -0.18450099439E+03 -0.30424993188E+03  0.39526754966E+02  0.69869308276E+03  0.60000085130E+03 0.  0.
         23    2    4    4    0    0 -0.46251728689E+02  0.16306691177E+03 -0.39289647470E+02  0.19634109619E+03  0.90973125339E+02 0.  0.
         23    2    4    4    0    0 -0.13824926570E+03 -0.46731684365E+03  0.78816402436E+02  0.50235198657E+03  0.92992479790E+02 0.  0.
          3    1    3    3  502    0  0.15502645068E+03  0.20347771252E+03 -0.19038791055E+02  0.25651287583E+03  0.00000000000E+00 0. -1.
         -3    1    3    3    0  502  0.29474543711E+02  0.10077221935E+03  0.35605897332E+02  0.11086734797E+03  0.00000000000E+00 0.  1.
         15    1    5    5    0    0 -0.66902323644E+02  0.78110462760E+02 -0.35487044700E+02  0.10881017127E+03  0.17770000000E+01 0.  1.
        -15    1    5    5    0    0  0.20650594955E+02  0.84956449009E+02 -0.38026027692E+01  0.87530924918E+02  0.17770000000E+01 0. -1.
          4    1    6    6  503    0 -0.10782571120E+03 -0.41843211228E+03  0.42293040714E+02  0.43416646332E+03  0.00000000000E+00 0. -1.
         -4    1    6    6    0  503 -0.30423554495E+02 -0.48884731367E+02  0.36523361722E+02  0.68185523247E+02  0.00000000000E+00 0.  1.
<mgrwt>
<rscale>  0 0.52039446E+03</rscale>
<asrwt>0</asrwt>
<pdfrwt beam="1">  1        1 0.77690726E-01 0.52039446E+03</pdfrwt>
<pdfrwt beam="2">  1       -1 0.86320552E-01 0.52039446E+03</pdfrwt>
<totfact> 0.60374046E+01</totfact>
</mgrwt>
</event>
<event>
12    1  0.7781383E-008  0.1267986E+04  0.7818608E-02  0.9055345E-01
          1   -1    0    0  501    0  0.00000000000E+00  0.00000000000E+00  0.62420369760E+03  0.62420369760E+03  0.00000000000E+00 0. -1.
         -1   -1    0    0    0  501 -0.00000000000E+00 -0.00000000000E+00 -0.26425737018E+04  0.26425737018E+04  0.00000000000E+00 0.  1.
         23    2    1    2    0    0 -0.10542965328E+04  0.59086947852E+03 -0.83207336174E+03  0.14701621061E+04  0.91447358296E+02 0.  0.
    5000000    2    1    2    0    0  0.10542965328E+04 -0.59086947852E+03 -0.11862966425E+04  0.17966152933E+04  0.59988237890E+03 0.  0.
         23    2    4    4    0    0  0.18223002628E+03  0.10321701422E+03 -0.24211892923E+03  0.33298834392E+03  0.91641294135E+02 0.  0.
         23    2    4    4    0    0  0.87206650647E+03 -0.69408649275E+03 -0.94417771323E+03  0.14636269494E+04  0.92066506490E+02 0.  0.
          3    1    3    3  502    0 -0.71607587658E+03  0.40762558021E+03 -0.51514769116E+03  0.97175121218E+03  0.00000000000E+00 0. -1.
         -3    1    3    3    0  502 -0.33822065617E+03  0.18324389832E+03 -0.31692567059E+03  0.49841089395E+03  0.00000000000E+00 0.  1.
         15    1    5    5    0    0  0.86924469703E+02  0.59129874337E+02 -0.55615035688E+02  0.11894702769E+03  0.17770000000E+01 0. -1.
        -15    1    5    5    0    0  0.95305556575E+02  0.44087139885E+02 -0.18650389354E+03  0.21404131623E+03  0.17770000000E+01 0.  1.
          1    1    6    6  503    0  0.60218412461E+03 -0.52325635631E+03 -0.64322268200E+03  0.10247723420E+04  0.00000000000E+00 0. -1.
         -1    1    6    6    0  503  0.26988238187E+03 -0.17083013644E+03 -0.30095503123E+03  0.43885460733E+03  0.00000000000E+00 0.  1.
<mgrwt>
<rscale>  0 0.12679865E+04</rscale>
<asrwt>0</asrwt>
<pdfrwt beam="1">  1        1 0.96031339E-01 0.12679865E+04</pdfrwt>
<pdfrwt beam="2">  1       -1 0.40654980E+00 0.12679865E+04</pdfrwt>
<totfact> 0.20586607E-01</totfact>
</mgrwt>
</event>
<event>
12    1  0.7781383E-008  0.6079653E+03  0.7818608E-02  0.9889017E-01
          2   -1    0    0  501    0  0.00000000000E+00  0.00000000000E+00  0.15537056549E+04  0.15537056549E+04  0.00000000000E+00 0. -1.
         -2   -1    0    0    0  501 -0.00000000000E+00 -0.00000000000E+00 -0.44778627096E+03  0.44778627096E+03  0.00000000000E+00 0.  1.
         23    2    1    2    0    0  0.51400394702E+02  0.51522007008E+03 -0.12140944392E+03  0.54054375284E+03  0.96713879378E+02 0.  0.
    5000000    2    1    2    0    0 -0.51400394702E+02 -0.51522007008E+03  0.12273288279E+04  0.14609481730E+04  0.59994982404E+03 0.  0.
         23    2    4    4    0    0 -0.20287553728E+03 -0.68197114487E+02  0.13804864331E+03  0.27031614206E+03  0.90576258950E+02 0.  0.
         23    2    4    4    0    0  0.15147514258E+03 -0.44702295560E+03  0.10892801845E+04  0.11906320310E+04  0.91099237436E+02 0.  0.
          1    1    3    3  502    0  0.78717143527E+01  0.35561949927E+03 -0.45761913621E+02  0.35863818102E+03  0.00000000000E+00 0. -1.
         -1    1    3    3    0  502  0.43528680349E+02  0.15960057081E+03 -0.75647530296E+02  0.18190557181E+03  0.00000000000E+00 0.  1.
         15    1    5    5    0    0 -0.12334802285E+03 -0.36645064480E+02  0.29384935042E+02  0.13200086222E+03  0.17770000000E+01 0. -1.
        -15    1    5    5    0    0 -0.79527514430E+02 -0.31552050007E+02  0.10866370827E+03  0.13831527983E+03  0.17770000000E+01 0.  1.
          4    1    6    6  503    0  0.92575346220E+02 -0.13954433234E+03  0.36455414617E+03  0.40117644610E+03  0.00000000000E+00 0. -1.
         -4    1    6    6    0  503  0.58899796357E+02 -0.30747862326E+03  0.72472603838E+03  0.78945558486E+03  0.00000000000E+00 0.  1.
<mgrwt>
<rscale>  0 0.60796531E+03</rscale>
<asrwt>0</asrwt>
<pdfrwt beam="1">  1        2 0.23903164E+00 0.60796531E+03</pdfrwt>
<pdfrwt beam="2">  1       -2 0.68890196E-01 0.60796531E+03</pdfrwt>
<totfact> 0.23803214E+01</totfact>
</mgrwt>
</event>
<event>
12    1  0.7781383E-008  0.7739723E+03  0.7818608E-02  0.9598475E-01
          1   -1    0    0  501    0  0.00000000000E+00  0.00000000000E+00  0.78536539370E+03  0.78536539370E+03  0.00000000000E+00 0. -1.
         -1   -1    0    0    0  501 -0.00000000000E+00 -0.00000000000E+00 -0.83476233291E+03  0.83476233291E+03  0.00000000000E+00 0.  1.
         23    2    1    2    0    0  0.66264112015E+03 -0.20078191672E+03 -0.84219541749E+02  0.70338176914E+03  0.90809414408E+02 0.  0.
    5000000    2    1    2    0    0 -0.66264112015E+03  0.20078191672E+03  0.34822602532E+02  0.91674595748E+03  0.59983656500E+03 0.  0.
         23    2    4    4    0    0 -0.18144609562E+03 -0.15791365535E+03  0.15104376057E+03  0.29813022871E+03  0.90598054636E+02 0.  0.
         23    2    4    4    0    0 -0.48119502453E+03  0.35869557207E+03 -0.11622115803E+03  0.61861572877E+03  0.94693702248E+02 0.  0.
          1    1    3    3  502    0  0.10295684619E+03 -0.76502248778E+01  0.10539363304E+02  0.10377724364E+03  0.00000000000E+00 0. -1.
         -1    1    3    3    0  502  0.55968427396E+03 -0.19313169184E+03 -0.94758905052E+02  0.59960452550E+03  0.00000000000E+00 0.  1.
         15    1    5    5    0    0 -0.69443054484E+02 -0.10606459737E+03  0.42390847100E+02  0.13368686652E+03  0.17770000000E+01 0. -1.
        -15    1    5    5    0    0 -0.11200304113E+03 -0.51849057979E+02  0.10865291346E+03  0.16444336219E+03  0.17770000000E+01 0.  1.
          4    1    6    6  503    0 -0.93415267105E+02  0.96507544396E+02 -0.60165292638E+02  0.14717330156E+03  0.00000000000E+00 0. -1.
         -4    1    6    6    0  503 -0.38777975743E+03  0.26218802767E+03 -0.56055865395E+02  0.47144242721E+03  0.00000000000E+00 0.  1.
<mgrwt>
<rscale>  0 0.77397227E+03</rscale>
<asrwt>0</asrwt>
<pdfrwt beam="1">  1        1 0.12082545E+00 0.77397227E+03</pdfrwt>
<pdfrwt beam="2">  1       -1 0.12842497E+00 0.77397227E+03</pdfrwt>
<totfact> 0.12230184E+01</totfact>
</mgrwt>
</event>
<event>
12    1  0.1001533E-007  0.1031708E+04  0.7818608E-02  0.9274436E-01
          1   -1    0    0  501    0  0.00000000000E+00  0.00000000000E+00  0.22803617670E+04  0.22803617670E+04  0.00000000000E+00 0. -1.
         -1   -1    0    0    0  501 -0.00000000000E+00 -0.00000000000E+00 -0.47135668673E+03  0.47135668673E+03  0.00000000000E+00 0.  1.
         23    2    1    2    0    0 -0.94550525747E+03 -0.40220544840E+02  0.89807412975E+03  0.13076498899E+04  0.88392352577E+02 0.  0.
    5000000    2    1    2    0    0  0.94550525747E+03  0.40220544840E+02  0.91093095049E+03  0.14440685637E+04  0.59995077809E+03 0.  0.
         23    2    4    4    0    0  0.20644267645E+03 -0.23598823297E+03  0.25392305425E+03  0.41328733028E+03  0.89557105417E+02 0.  0.
         23    2    4    4    0    0  0.73906258102E+03  0.27620877781E+03  0.65700789624E+03  0.10307812335E+04  0.91355284170E+02 0.  0.
          4    1    3    3  502    0 -0.51811291456E+03 -0.61812335667E+02  0.46741309895E+03  0.70052606101E+03  0.00000000000E+00 0. -1.
         -4    1    3    3    0  502 -0.42739234291E+03  0.21591790827E+02  0.43066103079E+03  0.60712382893E+03  0.00000000000E+00 0.  1.
         15    1    5    5    0    0  0.80904045646E+02 -0.36445652475E+02  0.51893009841E+02  0.10280949560E+03  0.17770000000E+01 0. -1.
        -15    1    5    5    0    0  0.12553863080E+03 -0.19954258050E+03  0.20203004441E+03  0.31047783468E+03  0.17770000000E+01 0.  1.
          3    1    6    6  503    0  0.48731987837E+03  0.17322092905E+03  0.37393424896E+03  0.63821076195E+03  0.00000000000E+00 0. -1.
         -3    1    6    6    0  503  0.25174270265E+03  0.10298784876E+03  0.28307364727E+03  0.39257047152E+03  0.00000000000E+00 0.  1.
<mgrwt>
<rscale>  0 0.10317081E+04</rscale>
<asrwt>0</asrwt>
<pdfrwt beam="1">  1        1 0.35082488E+00 0.10317081E+04</pdfrwt>
<pdfrwt beam="2">  1       -1 0.72516415E-01 0.10317081E+04</pdfrwt>
<totfact> 0.37226516E+00</totfact>
</mgrwt>
</event>
<event>
12    1  0.7781383E-008  0.2125606E+04  0.7818608E-02  0.8550047E-01
         -2   -1    0    0    0  501 -0.00000000000E+00  0.00000000000E+00  0.13339151421E+04  0.13339151421E+04  0.00000000000E+00 0.  1.
          2   -1    0    0  501    0  0.00000000000E+00 -0.00000000000E+00 -0.36685570792E+04  0.36685570792E+04  0.00000000000E+00 0. -1.
         23    2    1    2    0    0 -0.10012796858E+04  0.18689216334E+04 -0.16712869010E+04  0.27012821184E+04  0.91082909922E+02 0.  0.
    5000000    2    1    2    0    0  0.10012796858E+04 -0.18689216334E+04 -0.66335503601E+03  0.23011901029E+04  0.60000575419E+03 0.  0.
         23    2    4    4    0    0  0.74266819245E+03 -0.12896499980E+04 -0.72317792245E+03  0.16571612692E+04  0.91891256661E+02 0.  0.
         23    2    4    4    0    0  0.25861149337E+03 -0.57927163539E+03  0.59822886437E+02  0.64402883378E+03  0.93588615389E+02 0.  0.
          3    1    3    3  502    0 -0.60621176016E+03  0.12083609780E+04 -0.10336330497E+04  0.17017714984E+04  0.00000000000E+00 0. -1.
         -3    1    3    3    0  502 -0.39506792565E+03  0.66056065540E+03 -0.63765385130E+03  0.99951061997E+03  0.00000000000E+00 0.  1.
         15    1    5    5    0    0  0.50902708727E+03 -0.83364071204E+03 -0.51371658931E+03  0.11036182783E+04  0.17770000000E+01 0. -1.
        -15    1    5    5    0    0  0.23364110518E+03 -0.45600928595E+03 -0.20946133314E+03  0.55354299084E+03  0.17770000000E+01 0.  1.
          1    1    6    6  503    0  0.15389763303E+03 -0.23730808559E+03  0.10803450980E+02  0.28304827061E+03  0.00000000000E+00 0. -1.
         -1    1    6    6    0  503  0.10471386033E+03 -0.34196354980E+03  0.49019435456E+02  0.36098056317E+03  0.00000000000E+00 0.  1.
<mgrwt>
<rscale>  0 0.21256058E+04</rscale>
<asrwt>0</asrwt>
<pdfrwt beam="1">  1        2 0.56439339E+00 0.21256058E+04</pdfrwt>
<pdfrwt beam="2">  1       -2 0.20521772E+00 0.21256058E+04</pdfrwt>
<totfact> 0.66807450E-02</totfact>
</mgrwt>
</event>
<event>
12    1  0.7781383E-008  0.8681995E+03  0.7818608E-02  0.9466231E-01
          2   -1    0    0  501    0  0.00000000000E+00  0.00000000000E+00  0.13627487731E+04  0.13627487731E+04  0.00000000000E+00 0. -1.
         -2   -1    0    0    0  501 -0.00000000000E+00 -0.00000000000E+00 -0.63415778623E+03  0.63415778623E+03  0.00000000000E+00 0.  1.
         23    2    1    2    0    0 -0.62892340240E+03  0.53965628441E+03  0.29883948834E+03  0.88723166779E+03  0.10536337668E+03 0.  0.
    5000000    2    1    2    0    0  0.62892340240E+03 -0.53965628441E+03  0.42975149858E+03  0.11096748916E+04  0.59993204874E+03 0.  0.
         23    2    4    4    0    0  0.48244508375E+03 -0.17536718465E+03  0.20302371620E+01  0.52196565499E+03  0.94536314931E+02 0.  0.
         23    2    4    4    0    0  0.14647831866E+03 -0.36428909976E+03  0.42772126142E+03  0.58770923661E+03  0.91072626413E+02 0.  0.
          4    1    3    3  502    0 -0.19494293193E+03  0.18932779141E+03  0.49162233826E+02  0.27616061367E+03  0.00000000000E+00 0.  1.
         -4    1    3    3    0  502 -0.43398047047E+03  0.35032849300E+03  0.24967725451E+03  0.61107105412E+03  0.00000000000E+00 0. -1.
         15    1    5    5    0    0  0.16703394292E+03 -0.45138903350E+02 -0.41543670071E+02  0.17795193996E+03  0.17770000000E+01 0. -1.
        -15    1    5    5    0    0  0.31541114082E+03 -0.13022828130E+03  0.43573907233E+02  0.34401371502E+03  0.17770000000E+01 0.  1.
          4    1    6    6  503    0  0.65891120464E+02 -0.16278319349E+03  0.12641363661E+03  0.21638025640E+03  0.00000000000E+00 0. -1.
         -4    1    6    6    0  503  0.80587198195E+02 -0.20150590628E+03  0.30130762480E+03  0.37132898021E+03  0.00000000000E+00 0.  1.
<mgrwt>
<rscale>  0 0.86819946E+03</rscale>
<asrwt>0</asrwt>
<pdfrwt beam="1">  1        2 0.20965366E+00 0.86819946E+03</pdfrwt>
<pdfrwt beam="2">  1       -2 0.97562737E-01 0.86819946E+03</pdfrwt>
<totfact> 0.13417652E+01</totfact>
</mgrwt>
</event>
<event>
12    1  0.7781383E-008  0.4431193E+03  0.7818608E-02  0.1029794E+00
          2   -1    0    0  501    0  0.00000000000E+00  0.00000000000E+00  0.36798177035E+04  0.36798177035E+04  0.00000000000E+00 0. -1.
         -2   -1    0    0    0  501 -0.00000000000E+00 -0.00000000000E+00 -0.10097733887E+03  0.10097733887E+03  0.00000000000E+00 0.  1.
         23    2    1    2    0    0  0.34388784565E+03  0.80113425206E+02  0.22620587349E+04  0.22912356050E+04  0.90409436302E+02 0.  0.
    5000000    2    1    2    0    0 -0.34388784565E+03 -0.80113425206E+02  0.13167816297E+04  0.14895594374E+04  0.60016368250E+03 0.  0.
         23    2    4    4    0    0 -0.20039683548E+03 -0.22634128749E+03  0.11926525607E+04  0.12331178955E+04  0.82282097792E+02 0.  0.
         23    2    4    4    0    0 -0.14349101017E+03  0.14622786229E+03  0.12412906903E+03  0.25644154186E+03  0.91553158891E+02 0.  0.
          1    1    3    3  502    0  0.17399675970E+03 -0.37006655237E+01  0.99819662539E+03  0.10132546917E+04  0.00000000000E+00 0. -1.
         -1    1    3    3    0  502  0.16989108595E+03  0.83814090729E+02  0.12638621095E+04  0.12779809133E+04  0.00000000000E+00 0.  1.
         15    1    5    5    0    0 -0.22624416092E+02 -0.72534045879E+02  0.23253657082E+03  0.24464150611E+03  0.17770000000E+01 0. -1.
        -15    1    5    5    0    0 -0.17777241938E+03 -0.15380724161E+03  0.96011598986E+03  0.98847638939E+03  0.17770000000E+01 0.  1.
          3    1    6    6  503    0 -0.10228333476E+03  0.13423409580E+03  0.59667164483E+02  0.17899956303E+03  0.00000000000E+00 0. -1.
         -3    1    6    6    0  503 -0.41207675412E+02  0.11993766481E+02  0.64461904550E+02  0.77441978832E+02  0.00000000000E+00 0.  1.
<mgrwt>
<rscale>  0 0.44311927E+03</rscale>
<asrwt>0</asrwt>
<pdfrwt beam="1">  1        2 0.56612570E+00 0.44311927E+03</pdfrwt>
<pdfrwt beam="2">  1       -2 0.15534978E-01 0.44311927E+03</pdfrwt>
<totfact> 0.23222746E+01</totfact>
</mgrwt>
</event>
<event>
12    1  0.7781383E-008  0.8741950E+03  0.7818608E-02  0.9458426E-01
         -2   -1    0    0    0  501 -0.00000000000E+00  0.00000000000E+00  0.24398891362E+03  0.24398891362E+03  0.00000000000E+00 0.  1.
          2   -1    0    0  501    0  0.00000000000E+00 -0.00000000000E+00 -0.36453349848E+04  0.36453349848E+04  0.00000000000E+00 0. -1.
         23    2    1    2    0    0  0.44938375434E+03  0.64750289799E+03 -0.90935387095E+03  0.12076839325E+04  0.10183445660E+03 0.  0.
    5000000    2    1    2    0    0 -0.44938375434E+03 -0.64750289799E+03 -0.24919922002E+04  0.26816399659E+04  0.59996834872E+03 0.  0.
         23    2    4    4    0    0  0.59275649729E+02  0.37397057652E+02 -0.48271110155E+03  0.49678048669E+03  0.94173785203E+02 0.  0.
         23    2    4    4    0    0 -0.50865940407E+03 -0.68489995564E+03 -0.20092810987E+04  0.21848594793E+04  0.92617882082E+02 0.  0.
          2    1    3    3  502    0  0.23078659958E+03  0.25264071225E+03 -0.42520078648E+03  0.54578887205E+03  0.00000000000E+00 0. -1.
         -2    1    3    3    0  502  0.21859715476E+03  0.39486218574E+03 -0.48415308447E+03  0.66189506041E+03  0.00000000000E+00 0.  1.
         15    1    5    5    0    0 -0.13152686122E+02  0.18820784872E+02 -0.29427953100E+02  0.37368131450E+02  0.17770000000E+01 0.  1.
        -15    1    5    5    0    0  0.72428335851E+02  0.18576272780E+02 -0.45328314845E+03  0.45941235524E+03  0.17770000000E+01 0. -1.
          3    1    6    6  503    0 -0.50765205510E+03 -0.68729612523E+03 -0.20073004716E+04  0.21815915649E+04  0.00000000000E+00 0. -1.
         -3    1    6    6    0  503 -0.10073489670E+01  0.23961695927E+01 -0.19806270821E+01  0.32679143650E+01  0.00000000000E+00 0.  1.
<mgrwt>
<rscale>  0 0.87419502E+03</rscale>
<asrwt>0</asrwt>
<pdfrwt beam="1">  1        2 0.56082079E+00 0.87419502E+03</pdfrwt>
<pdfrwt beam="2">  1       -2 0.37536754E-01 0.87419502E+03</pdfrwt>
<totfact> 0.45582855E+00</totfact>
</mgrwt>
</event>
<event>
12    1  0.7781383E-008  0.3716870E+03  0.7818608E-02  0.1054050E+00
          2   -1    0    0  501    0  0.00000000000E+00  0.00000000000E+00  0.93799094529E+03  0.93799094529E+03  0.00000000000E+00 0. -1.
         -2   -1    0    0    0  501 -0.00000000000E+00 -0.00000000000E+00 -0.48799272599E+03  0.48799272599E+03  0.00000000000E+00 0.  1.
         23    2    1    2    0    0  0.33596153569E+03 -0.59696649199E+02 -0.25754827091E+03  0.43760473294E+03  0.93450238360E+02 0.  0.
    5000000    2    1    2    0    0 -0.33596153569E+03  0.59696649199E+02  0.70754649020E+03  0.98837893834E+03  0.59986419010E+03 0.  0.
         23    2    4    4    0    0 -0.76598123084E+02  0.57088917357E+02 -0.79593468041E+02  0.15479898557E+03  0.92201891702E+02 0.  0.
         23    2    4    4    0    0 -0.25936341261E+03  0.26077318425E+01  0.78713995825E+03  0.83357995277E+03  0.89387044559E+02 0.  0.
          3    1    3    3  502    0  0.23419722302E+03 -0.53979111687E+02 -0.12653149295E+03  0.27161057136E+03  0.00000000000E+00 0. -1.
         -3    1    3    3    0  502  0.10176431268E+03 -0.57175375127E+01 -0.13101677796E+03  0.16599416158E+03  0.00000000000E+00 0.  1.
         15    1    5    5    0    0  0.16625287417E+02 -0.81673865087E+01 -0.74039080570E+01  0.20027030923E+02  0.17770000000E+01 0. -1.
        -15    1    5    5    0    0 -0.93223410500E+02  0.65256303866E+02 -0.72189559984E+02  0.13477195465E+03  0.17770000000E+01 0.  1.
          2    1    6    6  503    0 -0.21359119009E+02  0.21036910266E+02  0.15490079099E+03  0.15777521544E+03  0.00000000000E+00 0. -1.
         -2    1    6    6    0  503 -0.23800429360E+03 -0.18429178423E+02  0.63223916726E+03  0.67580473734E+03  0.00000000000E+00 0.  1.
<mgrwt>
<rscale>  0 0.37168702E+03</rscale>
<asrwt>0</asrwt>
<pdfrwt beam="1">  1        2 0.14430630E+00 0.37168702E+03</pdfrwt>
<pdfrwt beam="2">  1       -2 0.75075804E-01 0.37168702E+03</pdfrwt>
<totfact> 0.46799217E+01</totfact>
</mgrwt>
</event>
<event>
12    1  0.7781383E-008  0.9685463E+03  0.7818608E-02  0.9343732E-01
         -2   -1    0    0    0  501 -0.00000000000E+00  0.00000000000E+00  0.79177139942E+03  0.79177139942E+03  0.00000000000E+00 0.  1.
          2   -1    0    0  501    0  0.00000000000E+00 -0.00000000000E+00 -0.12938023028E+04  0.12938023028E+04  0.00000000000E+00 0. -1.
         23    2    1    2    0    0 -0.82410759476E+03  0.31256899595E+03 -0.50447255336E+03  0.10193756199E+04  0.88212200903E+02 0.  0.
    5000000    2    1    2    0    0  0.82410759476E+03 -0.31256899595E+03  0.24416499984E+01  0.10661980823E+04  0.59993306634E+03 0.  0.
         23    2    4    4    0    0  0.14056169800E+03 -0.33613302501E+03  0.16422814810E+02  0.37491442427E+03  0.86879889710E+02 0.  0.
         23    2    4    4    0    0  0.68354589676E+03  0.23564029059E+02 -0.13981164812E+02  0.69128365803E+03  0.99435237455E+02 0.  0.
          1    1    3    3  502    0 -0.47676502573E+03  0.14939307361E+03 -0.32239375689E+03  0.59460988444E+03  0.00000000000E+00 0. -1.
         -1    1    3    3    0  502 -0.34734256903E+03  0.16317592234E+03 -0.18207879647E+03  0.42476573546E+03  0.00000000000E+00 0.  1.
         15    1    5    5    0    0  0.10785500149E+03 -0.29486354924E+03 -0.13605812196E+02  0.31426977244E+03  0.17770000000E+01 0. -1.
        -15    1    5    5    0    0  0.32706696510E+02 -0.41269475771E+02  0.30028627007E+02  0.60644651833E+02  0.17770000000E+01 0.  1.
          2    1    6    6  503    0  0.56758730849E+03 -0.50405244924E+01 -0.40107449058E+02  0.56902492662E+03  0.00000000000E+00 0. -1.
         -2    1    6    6    0  503  0.11595858827E+03  0.28604553551E+02  0.26126284246E+02  0.12225873141E+03  0.00000000000E+00 0.  1.
<mgrwt>
<rscale>  0 0.96854632E+03</rscale>
<asrwt>0</asrwt>
<pdfrwt beam="1">  1        2 0.19904651E+00 0.96854632E+03</pdfrwt>
<pdfrwt beam="2">  1       -2 0.12181098E+00 0.96854632E+03</pdfrwt>
<totfact> 0.84929609E+00</totfact>
</mgrwt>
</event>
<event>
12    1  0.7781383E-008  0.5261604E+03  0.7818608E-02  0.1007168E+00
         -2   -1    0    0    0  501 -0.00000000000E+00  0.00000000000E+00  0.45200503268E+03  0.45200503268E+03  0.00000000000E+00 0.  1.
          2   -1    0    0  501    0  0.00000000000E+00 -0.00000000000E+00 -0.30883347926E+04  0.30883347926E+04  0.00000000000E+00 0. -1.
         23    2    1    2    0    0 -0.27206347981E+03 -0.39054125723E+03 -0.27265583030E+04  0.27692313683E+04  0.89337454109E+02 0.  0.
    5000000    2    1    2    0    0  0.27206347981E+03  0.39054125723E+03  0.90228543119E+02  0.77110845696E+03  0.59993837330E+03 0.  0.
         23    2    4    4    0    0  0.12221317764E+03 -0.37468792767E+01  0.26505966671E+03  0.30567056274E+03  0.90707034543E+02 0.  0.
         23    2    4    4    0    0  0.14985030218E+03  0.39428813651E+03 -0.17483112359E+03  0.46543789423E+03  0.90267734835E+02 0.  0.
          1    1    3    3  502    0 -0.24048628729E+03 -0.28718476457E+03 -0.22056074894E+04  0.22371886690E+04  0.00000000000E+00 0. -1.
         -1    1    3    3    0  502 -0.31577192521E+02 -0.10335649267E+03 -0.52095081360E+03  0.53204269928E+03  0.00000000000E+00 0.  1.
         15    1    5    5    0    0 -0.59620465853E+01  0.15722408707E+02  0.10256979146E+02  0.19776336497E+02  0.17770000000E+01 0.  1.
        -15    1    5    5    0    0  0.12817522422E+03 -0.19469287984E+02  0.25480268756E+03  0.28589422624E+03  0.17770000000E+01 0. -1.
          2    1    6    6  503    0  0.10458984127E+03  0.31369663679E+03 -0.97010822736E+02  0.34460951025E+03  0.00000000000E+00 0. -1.
         -2    1    6    6    0  503  0.45260460909E+02  0.80591499723E+02 -0.77820300854E+02  0.12082838398E+03  0.00000000000E+00 0.  1.
<mgrwt>
<rscale>  0 0.52616042E+03</rscale>
<asrwt>0</asrwt>
<pdfrwt beam="1">  1        2 0.47512842E+00 0.52616042E+03</pdfrwt>
<pdfrwt beam="2">  1       -2 0.69539237E-01 0.52616042E+03</pdfrwt>
<totfact> 0.32653569E+00</totfact>
</mgrwt>
</event>
<event>
12    1  0.7781383E-008  0.1278552E+04  0.7818608E-02  0.9046749E-01
         -2   -1    0    0    0  501 -0.00000000000E+00  0.00000000000E+00  0.65246164264E+03  0.65246164264E+03  0.00000000000E+00 0. -1.
          2   -1    0    0  501    0  0.00000000000E+00 -0.00000000000E+00 -0.39546562144E+04  0.39546562144E+04  0.00000000000E+00 0.  1.
         23    2    1    2    0    0  0.60863602974E+03  0.11191757400E+04 -0.28594997970E+04  0.31309664838E+04  0.56743989906E+02 0.  0.
    5000000    2    1    2    0    0 -0.60863602974E+03 -0.11191757400E+04 -0.44269477482E+03  0.14761513732E+04  0.60004338129E+03 0.  0.
         23    2    4    4    0    0 -0.24422673398E+03 -0.60464475714E+03 -0.51333196814E+03  0.83532113784E+03  0.94919512612E+02 0.  0.
         23    2    4    4    0    0 -0.36440929575E+03 -0.51453098283E+03  0.70637193313E+02  0.64083023541E+03  0.90208150448E+02 0.  0.
          1    1    3    3  502    0  0.41726508641E+03  0.73608116583E+03 -0.18432560919E+04  0.20281811199E+04  0.00000000000E+00 0. -1.
         -1    1    3    3    0  502  0.19137094332E+03  0.38309457415E+03 -0.10162437051E+04  0.11027853639E+04  0.00000000000E+00 0.  1.
         15    1    5    5    0    0 -0.23807826457E+03 -0.59152168815E+03 -0.47744491646E+03  0.79657766325E+03  0.17770000000E+01 0.  1.
        -15    1    5    5    0    0 -0.61484694168E+01 -0.13123068996E+02 -0.35887051675E+02  0.38743474586E+02  0.17770000000E+01 0. -1.
          2    1    6    6  503    0 -0.18967699800E+03 -0.26927046158E+03 -0.84598404002E+01  0.32947763801E+03  0.00000000000E+00 0.  1.
         -2    1    6    6    0  503 -0.17473229775E+03 -0.24526052125E+03  0.79097033714E+02  0.31135259740E+03  0.00000000000E+00 0. -1.
<mgrwt>
<rscale>  0 0.12785517E+04</rscale>
<asrwt>0</asrwt>
<pdfrwt beam="1">  1        2 0.60840867E+00 0.12785517E+04</pdfrwt>
<pdfrwt beam="2">  1       -2 0.10037871E+00 0.12785517E+04</pdfrwt>
<totfact> 0.30448887E-01</totfact>
</mgrwt>
</event>
<event>
12    1  0.7781383E-008  0.5438069E+03  0.7818608E-02  0.1002938E+00
         -2   -1    0    0    0  501 -0.00000000000E+00  0.00000000000E+00  0.10428961361E+03  0.10428961361E+03  0.00000000000E+00 0.  1.
          2   -1    0    0  501    0  0.00000000000E+00 -0.00000000000E+00 -0.31093971603E+04  0.31093971603E+04  0.00000000000E+00 0. -1.
         23    2    1    2    0    0  0.35850026437E+03 -0.14645309646E+03 -0.76834321524E+03  0.86526982148E+03  0.91485619326E+02 0.  0.
    5000000    2    1    2    0    0 -0.35850026437E+03  0.14645309646E+03 -0.22367643315E+04  0.23484169525E+04  0.60164487785E+03 0.  0.
         23    2    4    4    0    0  0.67659692373E+02 -0.14137385946E+03 -0.78539831312E+03  0.80594634674E+03  0.90192025493E+02 0.  0.
         23    2    4    4    0    0 -0.42615995674E+03  0.28782695591E+03 -0.14513660184E+04  0.15424706057E+04  0.91080102128E+02 0.  0.
          1    1    3    3  502    0  0.19615984607E+03 -0.75879394638E+02 -0.51422007399E+03  0.55557056458E+03  0.00000000000E+00 0. -1.
         -1    1    3    3    0  502  0.16234041830E+03 -0.70573701819E+02 -0.25412314126E+03  0.30969925690E+03  0.00000000000E+00 0.  1.
         15    1    5    5    0    0 -0.20253321890E+02 -0.47579173188E+02 -0.19866095118E+03  0.20528834848E+03  0.17770000000E+01 0. -1.
        -15    1    5    5    0    0  0.87913014263E+02 -0.93794686269E+02 -0.58673736194E+03  0.60065799826E+03  0.17770000000E+01 0.  1.
          2    1    6    6  503    0 -0.26266874223E+03  0.13143441462E+03 -0.89059054008E+03  0.93777469766E+03  0.00000000000E+00 0. -1.
         -2    1    6    6    0  503 -0.16349121451E+03  0.15639254129E+03 -0.56077547829E+03  0.60469590807E+03  0.00000000000E+00 0.  1.
<mgrwt>
<rscale>  0 0.54380694E+03</rscale>
<asrwt>0</asrwt>
<pdfrwt beam="1">  1        2 0.47836885E+00 0.54380694E+03</pdfrwt>
<pdfrwt beam="2">  1       -2 0.16044554E-01 0.54380694E+03</pdfrwt>
<totfact> 0.50924798E+01</totfact>
</mgrwt>
</event>
<event>
12    1  0.7781383E-008  0.7462386E+03  0.7818608E-02  0.9641270E-01
         -1   -1    0    0    0  501 -0.00000000000E+00  0.00000000000E+00  0.12267949857E+04  0.12267949857E+04  0.00000000000E+00 0.  1.
          1   -1    0    0  501    0  0.00000000000E+00 -0.00000000000E+00 -0.18010938315E+04  0.18010938315E+04  0.00000000000E+00 0. -1.
         23    2    1    2    0    0  0.88431998137E+02  0.64174836610E+03  0.10162508299E+04  0.12086964459E+04  0.92304741117E+02 0.  0.
    5000000    2    1    2    0    0 -0.88431998137E+02 -0.64174836610E+03 -0.15905496757E+04  0.18191923713E+04  0.59995952312E+03 0.  0.
         23    2    4    4    0    0  0.10071151543E+03 -0.64020343648E+03 -0.13502763695E+04  0.15004883973E+04  0.90641640085E+02 0.  0.
         23    2    4    4    0    0 -0.18914351357E+03 -0.15449296219E+01 -0.24027330618E+03  0.31870397404E+03  0.89795912350E+02 0.  0.
          3    1    3    3  502    0  0.34651498333E+02  0.31679085625E+03  0.41626605168E+03  0.52424669643E+03  0.00000000000E+00 0. -1.
         -3    1    3    3    0  502  0.53780499805E+02  0.32495750985E+03  0.59998477827E+03  0.68444974945E+03  0.00000000000E+00 0.  1.
         15    1    5    5    0    0  0.49679746348E+02 -0.50562944653E+03 -0.11025824798E+04  0.12140100893E+04  0.17770000000E+01 0.  1.
        -15    1    5    5    0    0  0.51031769086E+02 -0.13457398995E+03 -0.24769388969E+03  0.28647830799E+03  0.17770000000E+01 0. -1.
          3    1    6    6  503    0 -0.73990481620E+02 -0.17852774849E+02 -0.37277512300E+02  0.84752143711E+02  0.00000000000E+00 0. -1.
         -3    1    6    6    0  503 -0.11515303195E+03  0.16307845227E+02 -0.20299579388E+03  0.23395183033E+03  0.00000000000E+00 0.  1.
<mgrwt>
<rscale>  0 0.74623863E+03</rscale>
<asrwt>0</asrwt>
<pdfrwt beam="1">  1        1 0.27709136E+00 0.74623863E+03</pdfrwt>
<pdfrwt beam="2">  1       -1 0.18873769E+00 0.74623863E+03</pdfrwt>
<totfact> 0.77672263E-01</totfact>
</mgrwt>
</event>
<event>
12    1  0.7781383E-008  0.5904432E+03  0.7818608E-02  0.9925434E-01
         -2   -1    0    0    0  501 -0.00000000000E+00  0.00000000000E+00  0.30173296088E+03  0.30173296088E+03  0.00000000000E+00 0.  1.
          2   -1    0    0  501    0  0.00000000000E+00 -0.00000000000E+00 -0.12201553442E+04  0.12201553442E+04  0.00000000000E+00 0. -1.
         23    2    1    2    0    0  0.42947822873E+03  0.13845952101E+03 -0.30188911371E+03  0.55044048934E+03  0.90692377924E+02 0.  0.
    5000000    2    1    2    0    0 -0.42947822873E+03 -0.13845952101E+03 -0.61653326957E+03  0.97144781570E+03  0.59997916483E+03 0.  0.
         23    2    4    4    0    0 -0.12831045286E+03 -0.33753935912E+03 -0.24156857128E+03  0.44425473411E+03  0.92792795418E+02 0.  0.
         23    2    4    4    0    0 -0.30116777587E+03  0.19907983811E+03 -0.37496469829E+03  0.52719308159E+03  0.83661276294E+02 0.  0.
          4    1    3    3  502    0  0.27075708947E+03  0.10479152397E+03 -0.14413116367E+03  0.32413647949E+03  0.00000000000E+00 0. -1.
         -4    1    3    3    0  502  0.15872113926E+03  0.33667997034E+02 -0.15775795004E+03  0.22630400984E+03  0.00000000000E+00 0.  1.
         15    1    5    5    0    0 -0.45600945649E+02 -0.69700393775E+02 -0.16898295482E+02  0.85007654100E+02  0.17770000000E+01 0. -1.
        -15    1    5    5    0    0 -0.82709507212E+02 -0.26783896534E+03 -0.22467027579E+03  0.35924708001E+03  0.17770000000E+01 0.  1.
          4    1    6    6  503    0 -0.15275445211E+03  0.70221000169E+02 -0.12655574810E+03  0.21043114998E+03  0.00000000000E+00 0. -1.
         -4    1    6    6    0  503 -0.14841332376E+03  0.12885883794E+03 -0.24840895019E+03  0.31676193161E+03  0.00000000000E+00 0.  1.
<mgrwt>
<rscale>  0 0.59044322E+03</rscale>
<asrwt>0</asrwt>
<pdfrwt beam="1">  1        2 0.18771621E+00 0.59044322E+03</pdfrwt>
<pdfrwt beam="2">  1       -2 0.46420454E-01 0.59044322E+03</pdfrwt>
<totfact> 0.83638432E+01</totfact>
</mgrwt>
</event>
<event>
12    1  0.7781383E-008  0.4837176E+03  0.7818608E-02  0.1018118E+00
         -1   -1    0    0    0  501 -0.00000000000E+00  0.00000000000E+00  0.18173756563E+03  0.18173756563E+03  0.00000000000E+00 0.  1.
          1   -1    0    0  501    0  0.00000000000E+00 -0.00000000000E+00 -0.18258077684E+04  0.18258077684E+04  0.00000000000E+00 0. -1.
         23    2    1    2    0    0  0.40505948613E+03  0.46593366914E+02 -0.47521868051E+03  0.63187946937E+03  0.84821815317E+02 0.  0.
    5000000    2    1    2    0    0 -0.40505948613E+03 -0.46593366914E+02 -0.11688515223E+04  0.13756658647E+04  0.59999880080E+03 0.  0.
         23    2    4    4    0    0 -0.24546371454E+03 -0.19474897944E+03 -0.20993430441E+03  0.38809995396E+03  0.91485309991E+02 0.  0.
         23    2    4    4    0    0 -0.15959577159E+03  0.14815561253E+03 -0.95891721789E+03  0.98756591074E+03  0.91341674270E+02 0.  0.
          3    1    3    3  502    0  0.26568970724E+03  0.37066979088E+02 -0.24905446536E+03  0.36605069074E+03  0.00000000000E+00 0. -1.
         -3    1    3    3    0  502  0.13936977889E+03  0.95263878258E+01 -0.22616421515E+03  0.26582877863E+03  0.00000000000E+00 0.  1.
         15    1    5    5    0    0 -0.20202029719E+03 -0.19414221033E+03 -0.19773594295E+03  0.34293739833E+03  0.17770000000E+01 0. -1.
        -15    1    5    5    0    0 -0.43443417352E+02 -0.60676911358E+00 -0.12198361464E+02  0.45162555634E+02  0.17770000000E+01 0.  1.
          1    1    6    6  503    0 -0.77777186445E+02  0.13077976761E+03 -0.59297678474E+03  0.61218796590E+03  0.00000000000E+00 0. -1.
         -1    1    6    6    0  503 -0.81818585147E+02  0.17375844918E+02 -0.36594043315E+03  0.37537794484E+03  0.00000000000E+00 0.  1.
<mgrwt>
<rscale>  0 0.48371764E+03</rscale>
<asrwt>0</asrwt>
<pdfrwt beam="1">  1        1 0.28089349E+00 0.48371764E+03</pdfrwt>
<pdfrwt beam="2">  1       -1 0.27959627E-01 0.48371764E+03</pdfrwt>
<totfact> 0.48427626E+01</totfact>
</mgrwt>
</event>
<event>
12    1  0.7781383E-008  0.5859228E+03  0.7818608E-02  0.9935050E-01
          2   -1    0    0  501    0  0.00000000000E+00  0.00000000000E+00  0.17451327801E+04  0.17451327801E+04  0.00000000000E+00 0. -1.
         -2   -1    0    0    0  501 -0.00000000000E+00 -0.00000000000E+00 -0.30368610877E+03  0.30368610877E+03  0.00000000000E+00 0.  1.
         23    2    1    2    0    0  0.51231656000E+03 -0.18756359092E+03  0.25019462628E+03  0.60766564954E+03  0.94930671122E+02 0.  0.
    5000000    2    1    2    0    0 -0.51231656000E+03  0.18756359092E+03  0.11912520450E+04  0.14411532393E+04  0.60016070024E+03 0.  0.
         23    2    4    4    0    0 -0.38510356954E+01  0.35346286002E+02  0.71677302190E+03  0.72344244090E+03  0.91330224777E+02 0.  0.
         23    2    4    4    0    0 -0.50846552431E+03  0.15221730492E+03  0.47447902313E+03  0.71771079842E+03  0.90945859987E+02 0.  0.
          1    1    3    3  502    0  0.27013775028E+03 -0.14890801608E+03  0.13478905894E+03  0.33662455613E+03  0.00000000000E+00 0. -1.
         -1    1    3    3    0  502  0.24217880972E+03 -0.38655574845E+02  0.11540556733E+03  0.27104109341E+03  0.00000000000E+00 0.  1.
         15    1    5    5    0    0  0.27506522089E+02  0.39505191346E+02  0.20077970029E+03  0.20647739508E+03  0.17770000000E+01 0. -1.
        -15    1    5    5    0    0 -0.31357557785E+02 -0.41589053437E+01  0.51599332161E+03  0.51696504582E+03  0.17770000000E+01 0.  1.
          1    1    6    6  503    0 -0.23476791351E+03  0.11708329879E+03  0.22126035097E+03  0.34319180494E+03  0.00000000000E+00 0. -1.
         -1    1    6    6    0  503 -0.27369761080E+03  0.35134006135E+02  0.25321867216E+03  0.37451899348E+03  0.00000000000E+00 0.  1.
<mgrwt>
<rscale>  0 0.58592279E+03</rscale>
<asrwt>0</asrwt>
<pdfrwt beam="1">  1        2 0.26848196E+00 0.58592279E+03</pdfrwt>
<pdfrwt beam="2">  1       -2 0.46720941E-01 0.58592279E+03</pdfrwt>
<totfact> 0.42159032E+01</totfact>
</mgrwt>
</event>
<event>
12    1  0.7781383E-008  0.4839507E+03  0.7818608E-02  0.1018055E+00
          2   -1    0    0  501    0  0.00000000000E+00  0.00000000000E+00  0.10097188143E+04  0.10097188143E+04  0.00000000000E+00 0. -1.
         -2   -1    0    0    0  501 -0.00000000000E+00 -0.00000000000E+00 -0.40689134386E+03  0.40689134386E+03  0.00000000000E+00 0.  1.
         23    2    1    2    0    0 -0.30746924381E+03 -0.56852281581E+02 -0.18795595291E+03  0.37591301811E+03  0.90629129633E+02 0.  0.
    5000000    2    1    2    0    0  0.30746924381E+03  0.56852281581E+02  0.79078342331E+03  0.10406971400E+04  0.59995216211E+03 0.  0.
         23    2    4    4    0    0 -0.71949503298E+02  0.20938723566E+03  0.17746900922E+03  0.29794986806E+03  0.90879751109E+02 0.  0.
         23    2    4    4    0    0  0.37941874711E+03 -0.15253495408E+03  0.61331441409E+03  0.74274727195E+03  0.91068334671E+02 0.  0.
          2    1    3    3  502    0 -0.17867846033E+03 -0.78117546609E+02 -0.11383077555E+03  0.22580032935E+03  0.00000000000E+00 0. -1.
         -2    1    3    3    0  502 -0.12879078348E+03  0.21265265028E+02 -0.74125177364E+02  0.15011268875E+03  0.00000000000E+00 0.  1.
         15    1    5    5    0    0 -0.92963237460E+01  0.98207014117E+02  0.12672068556E+03  0.16059990390E+03  0.17770000000E+01 0. -1.
        -15    1    5    5    0    0 -0.62653179552E+02  0.11118022154E+03  0.50748323663E+02  0.13734996416E+03  0.17770000000E+01 0.  1.
          3    1    6    6  503    0  0.12488507221E+03 -0.12383883992E+02  0.22664680775E+03  0.25907222411E+03  0.00000000000E+00 0. -1.
         -3    1    6    6    0  503  0.25453367490E+03 -0.14015107009E+03  0.38666760634E+03  0.48367504784E+03  0.00000000000E+00 0.  1.
<mgrwt>
<rscale>  0 0.48395074E+03</rscale>
<asrwt>0</asrwt>
<pdfrwt beam="1">  1        2 0.15534136E+00 0.48395074E+03</pdfrwt>
<pdfrwt beam="2">  1       -2 0.62598669E-01 0.48395074E+03</pdfrwt>
<totfact> 0.61318949E+01</totfact>
</mgrwt>
</event>
<event>
12    1  0.7781383E-008  0.1075420E+04  0.7818608E-02  0.9229486E-01
          3   -1    0    0  501    0  0.00000000000E+00  0.00000000000E+00  0.93523341955E+03  0.93523341955E+03  0.00000000000E+00 0. -1.
         -3   -1    0    0    0  501 -0.00000000000E+00 -0.00000000000E+00 -0.15961891431E+04  0.15961891431E+04  0.00000000000E+00 0.  1.
         23    2    1    2    0    0 -0.49697916741E+03 -0.92749180934E+03 -0.78180773020E+03  0.13140685410E+04  0.91232966619E+02 0.  0.
    5000000    2    1    2    0    0  0.49697916741E+03  0.92749180934E+03  0.12085200668E+03  0.12173540216E+04  0.60009687320E+03 0.  0.
         23    2    4    4    0    0  0.10439720168E+02  0.24439700594E+03 -0.18510452313E+03  0.32006842808E+03  0.91330333949E+02 0.  0.
         23    2    4    4    0    0  0.48653944724E+03  0.68309480340E+03  0.30595652981E+03  0.89728559355E+03  0.90404060215E+02 0.  0.
          2    1    3    3  502    0 -0.25682800157E+03 -0.53682179224E+03 -0.39630977764E+03  0.71498230668E+03  0.00000000000E+00 0. -1.
         -2    1    3    3    0  502 -0.24015116584E+03 -0.39067001710E+03 -0.38549795256E+03  0.59908623431E+03  0.00000000000E+00 0.  1.
         15    1    5    5    0    0 -0.27842986612E+02  0.75525546080E+02 -0.25199329411E+02  0.84365300603E+02  0.17770000000E+01 0.  1.
        -15    1    5    5    0    0  0.38282706780E+02  0.16887145986E+03 -0.15990519372E+03  0.23570312748E+03  0.17770000000E+01 0. -1.
          2    1    6    6  503    0  0.30170674430E+03  0.49554260833E+03  0.21367372545E+03  0.61826037976E+03  0.00000000000E+00 0. -1.
         -2    1    6    6    0  503  0.18483270294E+03  0.18755219507E+03  0.92282804356E+02  0.27902521379E+03  0.00000000000E+00 0.  1.
<mgrwt>
<rscale>  0 0.10754204E+04</rscale>
<asrwt>0</asrwt>
<pdfrwt beam="1">  1        3 0.14388207E+00 0.10754204E+04</pdfrwt>
<pdfrwt beam="2">  1       -3 0.24556756E+00 0.10754204E+04</pdfrwt>
<totfact> 0.70439097E-02</totfact>
</mgrwt>
</event>
<event>
12    1  0.7781383E-008  0.9650001E+03  0.7818608E-02  0.9347788E-01
          2   -1    0    0  501    0  0.00000000000E+00  0.00000000000E+00  0.15667493870E+04  0.15667493870E+04  0.00000000000E+00 0. -1.
         -2   -1    0    0    0  501 -0.00000000000E+00 -0.00000000000E+00 -0.64374403501E+03  0.64374403501E+03  0.00000000000E+00 0.  1.
         23    2    1    2    0    0 -0.90805681928E+03 -0.25884805813E+02  0.51172788697E+03  0.10466090692E+04  0.91037921327E+02 0.  0.
    5000000    2    1    2    0    0  0.90805681928E+03  0.25884805813E+02  0.41127746500E+03  0.11638843528E+04  0.60020031934E+03 0.  0.
         23    2    4    4    0    0  0.92612954975E+03  0.32339313750E+02  0.47922496553E+03  0.10475555725E+04  0.94627351482E+02 0.  0.
         23    2    4    4    0    0 -0.18072730468E+02 -0.64545079375E+01 -0.67947500535E+02  0.11632878038E+03  0.92451273961E+02 0.  0.
          2    1    3    3  502    0 -0.51825235641E+03 -0.26124489075E+02  0.24188495333E+03  0.57251753205E+03  0.00000000000E+00 0. -1.
         -2    1    3    3    0  502 -0.38980446287E+03  0.23968326203E+00  0.26984293364E+03  0.47409153711E+03  0.00000000000E+00 0.  1.
         15    1    5    5    0    0  0.17638148949E+03  0.15002483691E+02  0.13365968965E+03  0.22181878802E+03  0.17770000000E+01 0. -1.
        -15    1    5    5    0    0  0.74974806025E+03  0.17336830059E+02  0.34556527588E+03  0.82573678443E+03  0.17770000000E+01 0.  1.
          1    1    6    6  503    0 -0.55928404368E+02 -0.13894162417E+00 -0.37465868396E+02  0.67317880348E+02  0.00000000000E+00 0. -1.
         -1    1    6    6    0  503  0.37855673900E+02 -0.63155663134E+01 -0.30481632138E+02  0.49010900033E+02  0.00000000000E+00 0.  1.
<mgrwt>
<rscale>  0 0.96500013E+03</rscale>
<asrwt>0</asrwt>
<pdfrwt beam="1">  1        2 0.24103837E+00 0.96500013E+03</pdfrwt>
<pdfrwt beam="2">  1       -2 0.99037544E-01 0.96500013E+03</pdfrwt>
<totfact> 0.98350833E+00</totfact>
</mgrwt>
</event>
<event>
12    1  0.7781383E-008  0.7165213E+03  0.7818608E-02  0.9689388E-01
          2   -1    0    0  501    0  0.00000000000E+00  0.00000000000E+00  0.10638341279E+04  0.10638341279E+04  0.00000000000E+00 0. -1.
         -2   -1    0    0    0  501 -0.00000000000E+00 -0.00000000000E+00 -0.77779079460E+03  0.77779079460E+03  0.00000000000E+00 0.  1.
         23    2    1    2    0    0 -0.33871614672E+03  0.50619237194E+03 -0.40955261558E+03  0.73942658406E+03  0.89771837604E+02 0.  0.
    5000000    2    1    2    0    0  0.33871614672E+03 -0.50619237194E+03  0.69559594883E+03  0.11021983384E+04  0.60002342261E+03 0.  0.
         23    2    4    4    0    0  0.37079603543E+03 -0.85326694974E+02  0.48013061308E+03  0.61968365869E+03  0.93338558298E+02 0.  0.
         23    2    4    4    0    0 -0.32079888708E+02 -0.42086567697E+03  0.21546533575E+03  0.48251467971E+03  0.90763802885E+02 0.  0.
          1    1    3    3  502    0 -0.90779483261E+02  0.21370357640E+03 -0.15764959673E+03  0.28064840726E+03  0.00000000000E+00 0. -1.
         -1    1    3    3    0  502 -0.24793666346E+03  0.29248879554E+03 -0.25190301884E+03  0.45877817680E+03  0.00000000000E+00 0.  1.
         15    1    5    5    0    0  0.25883443761E+03 -0.94321318916E+02  0.37889437704E+03  0.46846118727E+03  0.17770000000E+01 0. -1.
        -15    1    5    5    0    0  0.11196159782E+03  0.89946239422E+01  0.10123623604E+03  0.15122247142E+03  0.17770000000E+01 0.  1.
          3    1    6    6  503    0 -0.11897498895E-01 -0.36633190220E+03  0.16589938726E+03  0.40214632835E+03  0.00000000000E+00 0. -1.
         -3    1    6    6    0  503 -0.32067991209E+02 -0.54533774774E+02  0.49565948490E+02  0.80368351364E+02  0.00000000000E+00 0.  1.
<mgrwt>
<rscale>  0 0.71652134E+03</rscale>
<asrwt>0</asrwt>
<pdfrwt beam="1">  1        2 0.16366679E+00 0.71652134E+03</pdfrwt>
<pdfrwt beam="2">  1       -2 0.11966012E+00 0.71652134E+03</pdfrwt>
<totfact> 0.12537817E+01</totfact>
</mgrwt>
</event>
<event>
12    1  0.7781383E-008  0.3834743E+03  0.7818608E-02  0.1049657E+00
         -1   -1    0    0    0  501 -0.00000000000E+00  0.00000000000E+00  0.47000968605E+03  0.47000968605E+03  0.00000000000E+00 0.  1.
          1   -1    0    0  501    0  0.00000000000E+00 -0.00000000000E+00 -0.75543552763E+03  0.75543552763E+03  0.00000000000E+00 0. -1.
         23    2    1    2    0    0 -0.27079993499E+03  0.27014920959E+03 -0.32837279340E+03  0.51225752029E+03  0.90916859878E+02 0.  0.
    5000000    2    1    2    0    0  0.27079993499E+03 -0.27014920959E+03  0.42946951817E+02  0.71318769339E+03  0.60039907153E+03 0.  0.
         23    2    4    4    0    0  0.14129879878E+03 -0.12957969375E+03 -0.26477707554E+03  0.33990700170E+03  0.93132284981E+02 0.  0.
         23    2    4    4    0    0  0.12950113621E+03 -0.14056951585E+03  0.30772402735E+03  0.37328069169E+03  0.90078103399E+02 0.  0.
          4    1    3    3  502    0 -0.98899314200E+02  0.10053306769E+03 -0.18060179498E+03  0.22913965261E+03  0.00000000000E+00 0. -1.
         -4    1    3    3    0  502 -0.17190062079E+03  0.16961614191E+03 -0.14777099841E+03  0.28311786767E+03  0.00000000000E+00 0.  1.
         15    1    5    5    0    0  0.76756034277E+02 -0.65737583198E+02 -0.64215060698E+02  0.11974827929E+03  0.17770000000E+01 0.  1.
        -15    1    5    5    0    0  0.64542764505E+02 -0.63842110549E+02 -0.20056201484E+03  0.22015872241E+03  0.17770000000E+01 0. -1.
          1    1    6    6  503    0  0.81571589079E+02 -0.71426436265E+02  0.24631386952E+03  0.26912112935E+03  0.00000000000E+00 0. -1.
         -1    1    6    6    0  503  0.47929547132E+02 -0.69143079580E+02  0.61410157830E+02  0.10415956234E+03  0.00000000000E+00 0.  1.
<mgrwt>
<rscale>  0 0.38347426E+03</rscale>
<asrwt>0</asrwt>
<pdfrwt beam="1">  1        1 0.11622085E+00 0.38347426E+03</pdfrwt>
<pdfrwt beam="2">  1       -1 0.72309182E-01 0.38347426E+03</pdfrwt>
<totfact> 0.50081605E+01</totfact>
</mgrwt>
</event>
<event>
12    1  0.7781383E-008  0.9434873E+03  0.7818608E-02  0.9372795E-01
         -1   -1    0    0    0  501 -0.00000000000E+00  0.00000000000E+00  0.58427117949E+03  0.58427117949E+03  0.00000000000E+00 0.  1.
          1   -1    0    0  501    0  0.00000000000E+00 -0.00000000000E+00 -0.18266718177E+04  0.18266718177E+04  0.00000000000E+00 0. -1.
         23    2    1    2    0    0 -0.54635696114E+03  0.76300935571E+03 -0.45219429330E+03  0.10453886364E+04  0.87570065561E+02 0.  0.
    5000000    2    1    2    0    0  0.54635696114E+03 -0.76300935571E+03 -0.79020634496E+03  0.13655543608E+04  0.59968611692E+03 0.  0.
         23    2    4    4    0    0  0.19755598036E+03 -0.24963257556E+03 -0.64099277696E+03  0.72068663325E+03  0.84691765032E+02 0.  0.
         23    2    4    4    0    0  0.34880098078E+03 -0.51337678015E+03 -0.14921356800E+03  0.64486772757E+03  0.91497839274E+02 0.  0.
          3    1    3    3  502    0 -0.19065817399E+03  0.20795882680E+03 -0.15943275573E+03  0.32406205664E+03  0.00000000000E+00 0. -1.
         -3    1    3    3    0  502 -0.35569878715E+03  0.55505052891E+03 -0.29276153757E+03  0.72132657978E+03  0.00000000000E+00 0.  1.
         15    1    5    5    0    0  0.92885317165E+02 -0.12778678768E+03 -0.22652957351E+03  0.27618101066E+03  0.17770000000E+01 0. -1.
        -15    1    5    5    0    0  0.10467066320E+03 -0.12184578788E+03 -0.41446320346E+03  0.44450562258E+03  0.17770000000E+01 0.  1.
          2    1    6    6  503    0  0.26444228369E+03 -0.44808108261E+03 -0.13237650189E+03  0.53687048368E+03  0.00000000000E+00 0. -1.
         -2    1    6    6    0  503  0.84358697083E+02 -0.65295697543E+02 -0.16837066103E+02  0.10799724388E+03  0.00000000000E+00 0.  1.
<mgrwt>
<rscale>  0 0.94348730E+03</rscale>
<asrwt>0</asrwt>
<pdfrwt beam="1">  1        1 0.28102643E+00 0.94348730E+03</pdfrwt>
<pdfrwt beam="2">  1       -1 0.89887876E-01 0.94348730E+03</pdfrwt>
<totfact> 0.48116428E+00</totfact>
</mgrwt>
</event>
<event>
12    1  0.7781383E-008  0.6680183E+03  0.7818608E-02  0.9773544E-01
          2   -1    0    0  501    0  0.00000000000E+00  0.00000000000E+00  0.10732075953E+04  0.10732075953E+04  0.00000000000E+00 0. -1.
         -2   -1    0    0    0  501 -0.00000000000E+00 -0.00000000000E+00 -0.67112308568E+03  0.67112308568E+03  0.00000000000E+00 0.  1.
         23    2    1    2    0    0  0.40769113988E+03 -0.37626469316E+03 -0.32601285351E+03  0.64993787921E+03  0.91365646292E+02 0.  0.
    5000000    2    1    2    0    0 -0.40769113988E+03  0.37626469316E+03  0.72809736318E+03  0.10943928018E+04  0.59981884727E+03 0.  0.
         23    2    4    4    0    0 -0.49320944158E+03  0.43018874605E+03  0.49899082764E+03  0.82814702157E+03  0.92291563886E+02 0.  0.
         23    2    4    4    0    0  0.85518301702E+02 -0.53924052893E+02  0.22910653554E+03  0.26624578025E+03  0.90420282398E+02 0.  0.
          3    1    3    3  502    0  0.36537027155E+03 -0.32051012483E+03 -0.31474511895E+03  0.57903943333E+03  0.00000000000E+00 0. -1.
         -3    1    3    3    0  502  0.42320868331E+02 -0.55754568331E+02 -0.11267734564E+02  0.70898445881E+02  0.00000000000E+00 0.  1.
         15    1    5    5    0    0 -0.83077720286E+02  0.66947697730E+02  0.41892656813E+02  0.11463879912E+03  0.17770000000E+01 0.  1.
        -15    1    5    5    0    0 -0.41013172129E+03  0.36324104832E+03  0.45709817083E+03  0.71350822245E+03  0.17770000000E+01 0. -1.
          2    1    6    6  503    0  0.18757441087E+02 -0.55576608572E+02  0.15875833273E+03  0.16924777466E+03  0.00000000000E+00 0. -1.
         -2    1    6    6    0  503  0.66760860615E+02  0.16525556792E+01  0.70348202811E+02  0.96998005593E+02  0.00000000000E+00 0.  1.
<mgrwt>
<rscale>  0 0.66801832E+03</rscale>
<asrwt>0</asrwt>
<pdfrwt beam="1">  1        2 0.16510886E+00 0.66801832E+03</pdfrwt>
<pdfrwt beam="2">  1       -2 0.10324971E+00 0.66801832E+03</pdfrwt>
<totfact> 0.17797620E+01</totfact>
</mgrwt>
</event>
<event>
12    1  0.7781383E-008  0.6372057E+03  0.7818608E-02  0.9831088E-01
          2   -1    0    0  501    0  0.00000000000E+00  0.00000000000E+00  0.95066515461E+03  0.95066515461E+03  0.00000000000E+00 0. -1.
         -2   -1    0    0    0  501 -0.00000000000E+00 -0.00000000000E+00 -0.52912458748E+03  0.52912458748E+03  0.00000000000E+00 0.  1.
         23    2    1    2    0    0 -0.12446459380E+03  0.53464733226E+03 -0.15750918964E+02  0.55669843522E+03  0.91246103044E+02 0.  0.
    5000000    2    1    2    0    0  0.12446459380E+03 -0.53464733226E+03  0.43729148609E+03  0.92309130687E+03  0.59961196787E+03 0.  0.
         23    2    4    4    0    0  0.12559902191E+03  0.39203914659E+02 -0.48544071748E+02  0.16568805216E+03  0.88226654114E+02 0.  0.
         23    2    4    4    0    0 -0.11344281108E+01 -0.57385124692E+03  0.48583555784E+03  0.75740325471E+03  0.91197370943E+02 0.  0.
          2    1    3    3  502    0 -0.13833735796E+03  0.50694477675E+03 -0.14014547755E+02  0.52566780273E+03  0.00000000000E+00 0. -1.
         -2    1    3    3    0  502  0.13872764162E+02  0.27702555516E+02 -0.17363712088E+01  0.31030632488E+02  0.00000000000E+00 0.  1.
         15    1    5    5    0    0  0.27296123946E+02  0.26333716504E+02 -0.54419389367E+02  0.66356391369E+02  0.17770000000E+01 0.  1.
        -15    1    5    5    0    0  0.98302897967E+02  0.12870198155E+02  0.58753176185E+01  0.99331660791E+02  0.17770000000E+01 0. -1.
          3    1    6    6  503    0 -0.21525911178E+02 -0.31884174241E+02  0.27008707298E+02  0.47004634761E+02  0.00000000000E+00 0.  1.
         -3    1    6    6    0  503  0.20391483067E+02 -0.54196707268E+03  0.45882685054E+03  0.71039861995E+03  0.00000000000E+00 0. -1.
<mgrwt>
<rscale>  0 0.63720566E+03</rscale>
<asrwt>0</asrwt>
<pdfrwt beam="1">  1        2 0.14625618E+00 0.63720566E+03</pdfrwt>
<pdfrwt beam="2">  1       -2 0.81403783E-01 0.63720566E+03</pdfrwt>
<totfact> 0.37013300E+01</totfact>
</mgrwt>
</event>
<event>
12    1  0.7781383E-008  0.1422284E+04  0.7818608E-02  0.8937844E-01
         -1   -1    0    0    0  501 -0.00000000000E+00  0.00000000000E+00  0.12591531274E+04  0.12591531274E+04  0.00000000000E+00 0.  1.
          1   -1    0    0  501    0  0.00000000000E+00 -0.00000000000E+00 -0.18885960961E+04  0.18885960961E+04  0.00000000000E+00 0. -1.
         23    2    1    2    0    0  0.10786764029E+04 -0.90057201169E+03 -0.78459772950E+03  0.16119707910E+04  0.91013754551E+02 0.  0.
    5000000    2    1    2    0    0 -0.10786764029E+04  0.90057201169E+03  0.15515476077E+03  0.15357784326E+04  0.59997471922E+03 0.  0.
         23    2    4    4    0    0 -0.10420364898E+04  0.83731325396E+03 -0.24709334493E+01  0.13397546484E+04  0.89458822556E+02 0.  0.
         23    2    4    4    0    0 -0.36639913098E+02  0.63258757724E+02  0.15762569422E+03  0.19602378420E+03  0.90748613399E+02 0.  0.
          3    1    3    3  502    0  0.74802521455E+03 -0.60100697267E+03 -0.49119373069E+03  0.10779714207E+04  0.00000000000E+00 0. -1.
         -3    1    3    3    0  502  0.33065118834E+03 -0.29956503902E+03 -0.29340399881E+03  0.53399937030E+03  0.00000000000E+00 0.  1.
         15    1    5    5    0    0 -0.84766109613E+03  0.66543876357E+03  0.31199685466E+02  0.10781069799E+04  0.17770000000E+01 0. -1.
        -15    1    5    5    0    0 -0.19437539367E+03  0.17187449040E+03 -0.33670618915E+02  0.26164766848E+03  0.17770000000E+01 0.  1.
          3    1    6    6  503    0 -0.18311070212E+02 -0.13528799812E+02  0.87557276622E+02  0.90468781390E+02  0.00000000000E+00 0. -1.
         -3    1    6    6    0  503 -0.18328842886E+02  0.76787557536E+02  0.70068417595E+02  0.10555500281E+03  0.00000000000E+00 0.  1.
<mgrwt>
<rscale>  0 0.14222844E+04</rscale>
<asrwt>0</asrwt>
<pdfrwt beam="1">  1        1 0.29055324E+00 0.14222844E+04</pdfrwt>
<pdfrwt beam="2">  1       -1 0.19371587E+00 0.14222844E+04</pdfrwt>
<totfact> 0.56330684E-01</totfact>
</mgrwt>
</event>
<event>
12    1  0.7781383E-008  0.4732402E+03  0.7818608E-02  0.1021010E+00
          2   -1    0    0  501    0  0.00000000000E+00  0.00000000000E+00  0.20311700207E+04  0.20311700207E+04  0.00000000000E+00 0.  1.
         -2   -1    0    0    0  501 -0.00000000000E+00 -0.00000000000E+00 -0.18123940347E+03  0.18123940347E+03  0.00000000000E+00 0. -1.
         23    2    1    2    0    0  0.16855684623E+03 -0.41989351728E+03  0.69970813210E+03  0.83886096979E+03  0.96820866713E+02 0.  0.
    5000000    2    1    2    0    0 -0.16855684623E+03  0.41989351728E+03  0.11502224852E+04  0.13735484544E+04  0.59908397992E+03 0.  0.
         23    2    4    4    0    0 -0.52716724352E+02  0.10405956518E+03  0.97090775370E+03  0.98234850603E+03  0.93484089346E+02 0.  0.
         23    2    4    4    0    0 -0.11584012188E+03  0.31583395210E+03  0.17931473145E+03  0.39119994838E+03  0.87827145944E+02 0.  0.
          4    1    3    3  502    0  0.48003683911E+02 -0.22229618137E+03  0.29306082375E+03  0.37095092982E+03  0.00000000000E+00 0. -1.
         -4    1    3    3    0  502  0.12055316232E+03 -0.19759733591E+03  0.40664730836E+03  0.46791003996E+03  0.00000000000E+00 0.  1.
         15    1    5    5    0    0 -0.72805141272E+02  0.44722870584E+02  0.49358162071E+03  0.50092584060E+03  0.17770000000E+01 0.  1.
        -15    1    5    5    0    0  0.20088416920E+02  0.59336694598E+02  0.47732613299E+03  0.48142266542E+03  0.17770000000E+01 0. -1.
          4    1    6    6  503    0 -0.79908937136E+02  0.26783093607E+03  0.11213494386E+03  0.30115294151E+03  0.00000000000E+00 0. -1.
         -4    1    6    6    0  503 -0.35931184745E+02  0.48003016033E+02  0.67179787592E+02  0.90047006871E+02  0.00000000000E+00 0.  1.
<mgrwt>
<rscale>  0 0.47324023E+03</rscale>
<asrwt>0</asrwt>
<pdfrwt beam="1">  1        2 0.31248768E+00 0.47324023E+03</pdfrwt>
<pdfrwt beam="2">  1       -2 0.27882987E-01 0.47324023E+03</pdfrwt>
<totfact> 0.80544579E+01</totfact>
</mgrwt>
</event>
<event>
12    1  0.7781383E-008  0.1393765E+04  0.7818608E-02  0.8958344E-01
         -2   -1    0    0    0  501 -0.00000000000E+00  0.00000000000E+00  0.18692109262E+04  0.18692109262E+04  0.00000000000E+00 0.  1.
          2   -1    0    0  501    0  0.00000000000E+00 -0.00000000000E+00 -0.12126629019E+04  0.12126629019E+04  0.00000000000E+00 0. -1.
         23    2    1    2    0    0 -0.26337748329E+03  0.13610452810E+04  0.73018350149E+03  0.15695322425E+04  0.91932360392E+02 0.  0.
    5000000    2    1    2    0    0  0.26337748329E+03 -0.13610452810E+04 -0.73635477161E+02  0.15123415856E+04  0.59995244183E+03 0.  0.
         23    2    4    4    0    0  0.24071518261E+03 -0.11785474251E+04  0.14320050947E+03  0.12147820892E+04  0.90946720639E+02 0.  0.
         23    2    4    4    0    0  0.22662300687E+02 -0.18249785591E+03 -0.21683598664E+03  0.29755949642E+03  0.87776770999E+02 0.  0.
          2    1    3    3  502    0 -0.41231805607E+02  0.38457366113E+03  0.17520499216E+03  0.42461011753E+03  0.00000000000E+00 0. -1.
         -2    1    3    3    0  502 -0.22214567769E+03  0.97647161984E+03  0.55497850933E+03  0.11449221250E+04  0.00000000000E+00 0.  1.
         15    1    5    5    0    0  0.90059374220E+02 -0.55592163003E+03  0.10636090549E+03  0.57312769045E+03  0.17770000000E+01 0. -1.
        -15    1    5    5    0    0  0.15065580839E+03 -0.62262579503E+03  0.36839603989E+02  0.64165439871E+03  0.17770000000E+01 0.  1.
          1    1    6    6  503    0  0.25623196700E+02 -0.18657175836E+02 -0.72749436162E+02  0.79354387914E+02  0.00000000000E+00 0. -1.
         -1    1    6    6    0  503 -0.29608960126E+01 -0.16384068007E+03 -0.14408655047E+03  0.21820510851E+03  0.00000000000E+00 0.  1.
<mgrwt>
<rscale>  0 0.13937654E+04</rscale>
<asrwt>0</asrwt>
<pdfrwt beam="1">  1        2 0.18656352E+00 0.13937654E+04</pdfrwt>
<pdfrwt beam="2">  1       -2 0.28757091E+00 0.13937654E+04</pdfrwt>
<totfact> 0.67254533E-01</totfact>
</mgrwt>
</event>
<event>
12    1  0.7781383E-008  0.7763069E+03  0.7818608E-02  0.9594960E-01
          1   -1    0    0  501    0  0.00000000000E+00  0.00000000000E+00  0.72426349146E+03  0.72426349146E+03  0.00000000000E+00 0. -1.
         -1   -1    0    0    0  501 -0.00000000000E+00 -0.00000000000E+00 -0.10368085400E+04  0.10368085400E+04  0.00000000000E+00 0.  1.
         23    2    1    2    0    0 -0.72388949139E+03 -0.11894714177E+03  0.62368533295E+02  0.74188153182E+03  0.91290498071E+02 0.  0.
    5000000    2    1    2    0    0  0.72388949139E+03  0.11894714177E+03 -0.37491358187E+03  0.10191904997E+04  0.60002055169E+03 0.  0.
         23    2    4    4    0    0  0.54127241208E+03  0.22033761998E+03 -0.13332207720E+02  0.59162943373E+03  0.91231289790E+02 0.  0.
         23    2    4    4    0    0  0.18261707930E+03 -0.10139047821E+03 -0.36158137415E+03  0.42756106592E+03  0.91860482474E+02 0.  0.
          3    1    3    3  502    0 -0.24258196920E+03 -0.79664448164E+02  0.30708342650E+01  0.25534656079E+03  0.00000000000E+00 0. -1.
         -3    1    3    3    0  502 -0.48130752219E+03 -0.39282693601E+02  0.59297699030E+02  0.48653497103E+03  0.00000000000E+00 0.  1.
         15    1    5    5    0    0  0.36802649458E+03  0.12292485995E+03 -0.44041933710E+02  0.39050847822E+03  0.17770000000E+01 0.  1.
        -15    1    5    5    0    0  0.17324591751E+03  0.97412760028E+02  0.30709725990E+02  0.20112095552E+03  0.17770000000E+01 0. -1.
          1    1    6    6  503    0  0.29230107997E+02 -0.63044035688E+02 -0.12485046678E+03  0.14288662885E+03  0.00000000000E+00 0. -1.
         -1    1    6    6    0  503  0.15338697131E+03 -0.38346442522E+02 -0.23673090737E+03  0.28467443708E+03  0.00000000000E+00 0.  1.
<mgrwt>
<rscale>  0 0.77630690E+03</rscale>
<asrwt>0</asrwt>
<pdfrwt beam="1">  1        1 0.11142515E+00 0.77630690E+03</pdfrwt>
<pdfrwt beam="2">  1       -1 0.15950901E+00 0.77630690E+03</pdfrwt>
<totfact> 0.78409021E+00</totfact>
</mgrwt>
</event>
<event>
12    1  0.7781383E-008  0.3452314E+03  0.7818608E-02  0.1064589E+00
          1   -1    0    0  501    0  0.00000000000E+00  0.00000000000E+00  0.81741757652E+03  0.81741757652E+03  0.00000000000E+00 0. -1.
         -1   -1    0    0    0  501 -0.00000000000E+00 -0.00000000000E+00 -0.20915527238E+03  0.20915527238E+03  0.00000000000E+00 0.  1.
         23    2    1    2    0    0  0.94931920628E+02 -0.15058786486E+03  0.15558685585E+03  0.25422123490E+03  0.93447268359E+02 0.  0.
    5000000    2    1    2    0    0 -0.94931920628E+02  0.15058786486E+03  0.45267544829E+03  0.77235161400E+03  0.59993597956E+03 0.  0.
         23    2    4    4    0    0 -0.19529148612E+03 -0.95718072540E+02 -0.44274935130E+01  0.23603118015E+03  0.91599133970E+02 0.  0.
         23    2    4    4    0    0  0.10035956549E+03  0.24630593740E+03  0.45710294180E+03  0.53632043384E+03  0.89206788816E+02 0.  0.
          2    1    3    3  502    0  0.49978296694E+02 -0.13941942201E+03  0.14378482627E+03  0.20642112693E+03  0.00000000000E+00 0. -1.
         -2    1    3    3    0  502  0.44953623934E+02 -0.11168442851E+02  0.11802029577E+02  0.47800107978E+02  0.00000000000E+00 0.  1.
         15    1    5    5    0    0 -0.14879914111E+03 -0.51823608458E+02 -0.40364223752E+02  0.16266314603E+03  0.17770000000E+01 0.  1.
        -15    1    5    5    0    0 -0.46492345010E+02 -0.43894464082E+02  0.35936730239E+02  0.73368034122E+02  0.17770000000E+01 0. -1.
          1    1    6    6  503    0  0.81139358217E+02  0.24138321173E+03  0.44600905903E+03  0.51358887361E+03  0.00000000000E+00 0. -1.
         -1    1    6    6    0  503  0.19220207276E+02  0.49227256702E+01  0.11093882767E+02  0.22731560233E+02  0.00000000000E+00 0.  1.
<mgrwt>
<rscale>  0 0.34523139E+03</rscale>
<asrwt>0</asrwt>
<pdfrwt beam="1">  1        1 0.12575655E+00 0.34523139E+03</pdfrwt>
<pdfrwt beam="2">  1       -1 0.32177735E-01 0.34523139E+03</pdfrwt>
<totfact> 0.20174562E+02</totfact>
</mgrwt>
</event>
<event>
12    1  0.7781383E-008  0.7116821E+03  0.7818608E-02  0.9697460E-01
         -2   -1    0    0    0  501 -0.00000000000E+00  0.00000000000E+00  0.46980677680E+03  0.46980677680E+03  0.00000000000E+00 0.  1.
          2   -1    0    0  501    0  0.00000000000E+00 -0.00000000000E+00 -0.12253035724E+04  0.12253035724E+04  0.00000000000E+00 0. -1.
         23    2    1    2    0    0 -0.41602523127E+03 -0.47638055585E+03 -0.39655791231E+03  0.75231272635E+03  0.93278257778E+02 0.  0.
    5000000    2    1    2    0    0  0.41602523127E+03  0.47638055585E+03 -0.35893888325E+03  0.94279762280E+03  0.60001234038E+03 0.  0.
         23    2    4    4    0    0  0.29835030774E+03  0.27123796203E+02 -0.35012845088E+03  0.46907258670E+03  0.87695798258E+02 0.  0.
         23    2    4    4    0    0  0.11767492352E+03  0.44925675965E+03 -0.88104323720E+01  0.47372503610E+03  0.93052471171E+02 0.  0.
          2    1    3    3  502    0 -0.97678935329E+02 -0.17526612946E+03 -0.13801103458E+03  0.24352912805E+03  0.00000000000E+00 0. -1.
         -2    1    3    3    0  502 -0.31834629594E+03 -0.30111442639E+03 -0.25854687772E+03  0.50878359830E+03  0.00000000000E+00 0.  1.
         15    1    5    5    0    0  0.19868305154E+03  0.59223688043E+02 -0.22701640092E+03  0.30744431074E+03  0.17770000000E+01 0.  1.
        -15    1    5    5    0    0  0.99667256208E+02 -0.32099891840E+02 -0.12311204996E+03  0.16162827596E+03  0.17770000000E+01 0. -1.
          2    1    6    6  503    0  0.12446910080E+03  0.32489216436E+03  0.82211519429E+01  0.34801589455E+03  0.00000000000E+00 0. -1.
         -2    1    6    6    0  503 -0.67941772731E+01  0.12436459528E+03 -0.17031584315E+02  0.12570914155E+03  0.00000000000E+00 0.  1.
<mgrwt>
<rscale>  0 0.71168209E+03</rscale>
<asrwt>0</asrwt>
<pdfrwt beam="1">  1        2 0.18850824E+00 0.71168209E+03</pdfrwt>
<pdfrwt beam="2">  1       -2 0.72277967E-01 0.71168209E+03</pdfrwt>
<totfact> 0.32430608E+01</totfact>
</mgrwt>
</event>
<event>
12    1  0.7781383E-008  0.1114451E+04  0.7818608E-02  0.9191220E-01
          2   -1    0    0  501    0  0.00000000000E+00  0.00000000000E+00  0.15121316719E+04  0.15121316719E+04  0.00000000000E+00 0. -1.
         -2   -1    0    0    0  501 -0.00000000000E+00 -0.00000000000E+00 -0.91474406816E+03  0.91474406816E+03  0.00000000000E+00 0.  1.
         23    2    1    2    0    0 -0.46121147238E+03 -0.99696175651E+03  0.29772363619E+03  0.11398107624E+04  0.62293213075E+02 0.  0.
    5000000    2    1    2    0    0  0.46121147238E+03  0.99696175651E+03  0.29966396760E+03  0.12870649777E+04  0.60007415966E+03 0.  0.
         23    2    4    4    0    0  0.34901239351E+03  0.49641098195E+03  0.43073037618E+03  0.74974299817E+03  0.91391424767E+02 0.  0.
         23    2    4    4    0    0  0.11219907888E+03  0.50055077455E+03 -0.13106640857E+03  0.53732197951E+03  0.91634027529E+02 0.  0.
          2    1    3    3  502    0 -0.40217294023E+03 -0.85588086384E+03  0.23436388140E+03  0.97426975517E+03  0.00000000000E+00 0. -1.
         -2    1    3    3    0  502 -0.59038532154E+02 -0.14108089267E+03  0.63359754787E+02  0.16554100725E+03  0.00000000000E+00 0.  1.
         15    1    5    5    0    0  0.10354843368E+02  0.40946569424E+02  0.53746888666E+02  0.68379310460E+02  0.17770000000E+01 0.  1.
        -15    1    5    5    0    0  0.33865755014E+03  0.45546441253E+03  0.37698348751E+03  0.68136368771E+03  0.17770000000E+01 0. -1.
          4    1    6    6  503    0  0.12038602547E+03  0.35852430113E+03 -0.83364256736E+02  0.38727518502E+03  0.00000000000E+00 0. -1.
         -4    1    6    6    0  503 -0.81869465924E+01  0.14202647342E+03 -0.47702151836E+02  0.15004679449E+03  0.00000000000E+00 0.  1.
<mgrwt>
<rscale>  0 0.11144511E+04</rscale>
<asrwt>0</asrwt>
<pdfrwt beam="1">  1        2 0.23263564E+00 0.11144511E+04</pdfrwt>
<pdfrwt beam="2">  1       -2 0.14072986E+00 0.11144511E+04</pdfrwt>
<totfact> 0.43431098E+00</totfact>
</mgrwt>
</event>
<event>
12    1  0.7781383E-008  0.1165813E+04  0.7818608E-02  0.9143318E-01
         -1   -1    0    0    0  501 -0.00000000000E+00  0.00000000000E+00  0.38905320917E+03  0.38905320917E+03  0.00000000000E+00 0.  1.
          1   -1    0    0  501    0  0.00000000000E+00 -0.00000000000E+00 -0.37245677222E+04  0.37245677222E+04  0.00000000000E+00 0. -1.
         23    2    1    2    0    0  0.11182269344E+04 -0.14022035336E+03 -0.15609193630E+04  0.19272563207E+04  0.88059318269E+02 0.  0.
    5000000    2    1    2    0    0 -0.11182269344E+04  0.14022035336E+03 -0.17745951501E+04  0.21863646107E+04  0.60075705555E+03 0.  0.
         23    2    4    4    0    0 -0.97551093791E+03 -0.16837443919E+02 -0.11042580854E+04  0.14769936236E+04  0.10108983959E+03 0.  0.
         23    2    4    4    0    0 -0.14271599654E+03  0.15705779728E+03 -0.67033706473E+03  0.70937098707E+03  0.93917035718E+02 0.  0.
          4    1    3    3  502    0  0.48859683286E+03 -0.88538755374E+02 -0.74582590515E+03  0.89600349166E+03  0.00000000000E+00 0. -1.
         -4    1    3    3    0  502  0.62963010159E+03 -0.51681597985E+02 -0.81509345782E+03  0.10312528290E+04  0.00000000000E+00 0.  1.
         15    1    5    5    0    0 -0.89056945990E+03  0.13264612156E+02 -0.99746227015E+03  0.13372449480E+04  0.17770000000E+01 0. -1.
        -15    1    5    5    0    0 -0.84941478011E+02 -0.30102056075E+02 -0.10679581520E+03  0.13974867563E+03  0.17770000000E+01 0.  1.
          3    1    6    6  503    0 -0.14681304623E+03  0.13294905106E+03 -0.64241169716E+03  0.67225167116E+03  0.00000000000E+00 0. -1.
         -3    1    6    6    0  503  0.40970496918E+01  0.24108746218E+02 -0.27925367564E+02  0.37119315915E+02  0.00000000000E+00 0.  1.
<mgrwt>
<rscale>  0 0.11658129E+04</rscale>
<asrwt>0</asrwt>
<pdfrwt beam="1">  1        1 0.57301045E+00 0.11658129E+04</pdfrwt>
<pdfrwt beam="2">  1       -1 0.59854336E-01 0.11658129E+04</pdfrwt>
<totfact> 0.47432131E-01</totfact>
</mgrwt>
</event>
<event>
12    1  0.7781383E-008  0.8508317E+03  0.7818608E-02  0.9489221E-01
          1   -1    0    0  501    0  0.00000000000E+00  0.00000000000E+00  0.25684515623E+04  0.25684515623E+04  0.00000000000E+00 0. -1.
         -1   -1    0    0    0  501 -0.00000000000E+00 -0.00000000000E+00 -0.32772287442E+03  0.32772287442E+03  0.00000000000E+00 0.  1.
         23    2    1    2    0    0 -0.71899641490E+03 -0.22291691134E+03  0.15028706511E+04  0.16833420226E+04  0.91500694615E+02 0.  0.
    5000000    2    1    2    0    0  0.71899641490E+03  0.22291691134E+03  0.73785803677E+03  0.12128324141E+04  0.59990014862E+03 0.  0.
         23    2    4    4    0    0  0.17747567883E+03  0.34350830912E+03  0.35762967315E+03  0.53417131243E+03  0.89131548270E+02 0.  0.
         23    2    4    4    0    0  0.54152073607E+03 -0.12059139778E+03  0.38022836363E+03  0.67866110169E+03  0.90665812926E+02 0.  0.
          3    1    3    3  502    0 -0.99499095861E+02 -0.36044489507E+02  0.28917703692E+03  0.30793284005E+03  0.00000000000E+00 0. -1.
         -3    1    3    3    0  502 -0.61949731904E+03 -0.18687242183E+03  0.12136936142E+04  0.13754091826E+04  0.00000000000E+00 0.  1.
         15    1    5    5    0    0  0.10369949162E+03  0.20646933620E+03  0.15318803835E+03  0.27722356353E+03  0.17770000000E+01 0. -1.
        -15    1    5    5    0    0  0.73776187204E+02  0.13703897292E+03  0.20444163479E+03  0.25694774890E+03  0.17770000000E+01 0.  1.
          3    1    6    6  503    0  0.15252387572E+03 -0.76337780526E+02  0.12061496241E+03  0.20889939817E+03  0.00000000000E+00 0. -1.
         -3    1    6    6    0  503  0.38899686035E+03 -0.44253617251E+02  0.25961340122E+03  0.46976170352E+03  0.00000000000E+00 0.  1.
<mgrwt>
<rscale>  0 0.85083174E+03</rscale>
<asrwt>0</asrwt>
<pdfrwt beam="1">  1        1 0.39514638E+00 0.85083174E+03</pdfrwt>
<pdfrwt beam="2">  1       -1 0.50418905E-01 0.85083174E+03</pdfrwt>
<totfact> 0.49965346E+00</totfact>
</mgrwt>
</event>
<event>
12    1  0.7781383E-008  0.1260337E+04  0.7818608E-02  0.9061624E-01
          1   -1    0    0  501    0  0.00000000000E+00  0.00000000000E+00  0.23921416672E+04  0.23921416672E+04  0.00000000000E+00 0. -1.
         -1   -1    0    0    0  501 -0.00000000000E+00 -0.00000000000E+00 -0.12227326372E+04  0.12227326372E+04  0.00000000000E+00 0.  1.
         23    2    1    2    0    0  0.11939433087E+04 -0.19848696208E+03 -0.62782630650E+03  0.13666044428E+04  0.92434481585E+02 0.  0.
    5000000    2    1    2    0    0 -0.11939433087E+04  0.19848696208E+03  0.17972353364E+04  0.22482698616E+04  0.59980398260E+03 0.  0.
         23    2    4    4    0    0 -0.31576064786E+03  0.27919780330E+03  0.37104417534E+03  0.56922121873E+03  0.93181627459E+02 0.  0.
         23    2    4    4    0    0 -0.87818266088E+03 -0.80710841221E+02  0.14261911611E+04  0.16790486429E+04  0.86394973480E+02 0.  0.
          3    1    3    3  502    0  0.50503635978E+03 -0.39538556219E+02 -0.24797222180E+03  0.56401706083E+03  0.00000000000E+00 0. -1.
         -3    1    3    3    0  502  0.68890694896E+03 -0.15894840586E+03 -0.37985408470E+03  0.80258738198E+03  0.00000000000E+00 0.  1.
         15    1    5    5    0    0 -0.15597412667E+03  0.16792678355E+03  0.14654122907E+03  0.27203827372E+03  0.17770000000E+01 0. -1.
        -15    1    5    5    0    0 -0.15978652119E+03  0.11127101974E+03  0.22450294627E+03  0.29718294501E+03  0.17770000000E+01 0.  1.
          1    1    6    6  503    0 -0.34047289346E+03 -0.54628406759E+02  0.49124349066E+03  0.60018848799E+03  0.00000000000E+00 0. -1.
         -1    1    6    6    0  503 -0.53770976743E+03 -0.26082434461E+02  0.93494767046E+03  0.10788601549E+04  0.00000000000E+00 0.  1.
<mgrwt>
<rscale>  0 0.12603366E+04</rscale>
<asrwt>0</asrwt>
<pdfrwt beam="1">  1        1 0.36802179E+00 0.12603366E+04</pdfrwt>
<pdfrwt beam="2">  1       -1 0.18811271E+00 0.12603366E+04</pdfrwt>
<totfact> 0.28603352E-01</totfact>
</mgrwt>
</event>
<event>
12    1  0.7781383E-008  0.7220583E+03  0.7818608E-02  0.9680236E-01
         -1   -1    0    0    0  501 -0.00000000000E+00  0.00000000000E+00  0.22411606717E+03  0.22411606717E+03  0.00000000000E+00 0.  1.
          1   -1    0    0  501    0  0.00000000000E+00 -0.00000000000E+00 -0.27478562675E+04  0.27478562675E+04  0.00000000000E+00 0. -1.
         23    2    1    2    0    0  0.61882375367E+03  0.20754512666E+03 -0.82300357057E+03  0.10543810856E+04  0.91470097342E+02 0.  0.
    5000000    2    1    2    0    0 -0.61882375367E+03 -0.20754512666E+03 -0.17007366298E+04  0.19175912491E+04  0.59885999792E+03 0.  0.
         23    2    4    4    0    0 -0.54409587930E+03  0.44656868285E+01 -0.71865527401E+03  0.90600485956E+03  0.91209289352E+02 0.  0.
         23    2    4    4    0    0 -0.74727874375E+02 -0.21201081349E+03 -0.98208135575E+03  0.10115863895E+04  0.91051600416E+02 0.  0.
          1    1    3    3  502    0  0.13380057014E+03  0.73186042532E+02 -0.14909844233E+03  0.21328182037E+03  0.00000000000E+00 0. -1.
         -1    1    3    3    0  502  0.48502318353E+03  0.13435908413E+03 -0.67390512824E+03  0.84109926520E+03  0.00000000000E+00 0.  1.
         15    1    5    5    0    0 -0.18919512840E+03  0.37617150057E+02 -0.21338352369E+03  0.28765523201E+03  0.17770000000E+01 0. -1.
        -15    1    5    5    0    0 -0.35490075090E+03 -0.33151463229E+02 -0.50527175031E+03  0.61834962755E+03  0.17770000000E+01 0.  1.
          4    1    6    6  503    0 -0.68380568341E+02 -0.73814899394E+02 -0.50123764104E+03  0.51123743436E+03  0.00000000000E+00 0. -1.
         -4    1    6    6    0  503 -0.63473060338E+01 -0.13819591409E+03 -0.48084371471E+03  0.50034895517E+03  0.00000000000E+00 0.  1.
<mgrwt>
<rscale>  0 0.72205832E+03</rscale>
<asrwt>0</asrwt>
<pdfrwt beam="1">  1        1 0.42274711E+00 0.72205832E+03</pdfrwt>
<pdfrwt beam="2">  1       -1 0.34479395E-01 0.72205832E+03</pdfrwt>
<totfact> 0.77045829E+00</totfact>
</mgrwt>
</event>
<event>
12    1  0.7781383E-008  0.5913812E+03  0.7818608E-02  0.9923450E-01
         -1   -1    0    0    0  501 -0.00000000000E+00  0.00000000000E+00  0.29405349834E+03  0.29405349834E+03  0.00000000000E+00 0.  1.
          1   -1    0    0  501    0  0.00000000000E+00 -0.00000000000E+00 -0.17293522724E+04  0.17293522724E+04  0.00000000000E+00 0. -1.
         23    2    1    2    0    0 -0.12714704009E+02  0.50820412424E+03 -0.18941486502E+03  0.55002276414E+03  0.90630868863E+02 0.  0.
    5000000    2    1    2    0    0  0.12714704009E+02 -0.50820412424E+03 -0.12458839091E+04  0.14733830066E+04  0.60016470555E+03 0.  0.
         23    2    4    4    0    0 -0.19786830084E+03 -0.29766391713E+03 -0.29288949119E+03  0.47081578759E+03  0.90153090644E+02 0.  0.
         23    2    4    4    0    0  0.21058300485E+03 -0.21054020711E+03 -0.95299441788E+03  0.10025672191E+04  0.90941120918E+02 0.  0.
          4    1    3    3  502    0 -0.43009547366E+02  0.32463357580E+03 -0.14827565271E+03  0.35947524099E+03  0.00000000000E+00 0. -1.
         -4    1    3    3    0  502  0.30294843357E+02  0.18357054844E+03 -0.41139212319E+02  0.19054752315E+03  0.00000000000E+00 0.  1.
         15    1    5    5    0    0 -0.10662581528E+03 -0.13071645692E+03 -0.19155765279E+03  0.25525153998E+03  0.17770000000E+01 0.  1.
        -15    1    5    5    0    0 -0.91242485565E+02 -0.16694746021E+03 -0.10133183841E+03  0.21556424761E+03  0.17770000000E+01 0. -1.
          1    1    6    6  503    0 -0.55701865266E+01 -0.24385885016E+02 -0.10247060002E+03  0.10547948727E+03  0.00000000000E+00 0. -1.
         -1    1    6    6    0  503  0.21615319138E+03 -0.18615432209E+03 -0.85052381786E+03  0.89708773178E+03  0.00000000000E+00 0.  1.
<mgrwt>
<rscale>  0 0.59138120E+03</rscale>
<asrwt>0</asrwt>
<pdfrwt beam="1">  1        1 0.26605420E+00 0.59138120E+03</pdfrwt>
<pdfrwt beam="2">  1       -1 0.45238999E-01 0.59138120E+03</pdfrwt>
<totfact> 0.23423315E+01</totfact>
</mgrwt>
</event>
<event>
12    1  0.7781383E-008  0.8326329E+03  0.7818608E-02  0.9513948E-01
          1   -1    0    0  501    0  0.00000000000E+00  0.00000000000E+00  0.18671483718E+04  0.18671483718E+04  0.00000000000E+00 0. -1.
         -1   -1    0    0    0  501 -0.00000000000E+00 -0.00000000000E+00 -0.43717044989E+03  0.43717044989E+03  0.00000000000E+00 0.  1.
         23    2    1    2    0    0 -0.53647900437E+03 -0.55348041968E+03  0.91676488657E+03  0.12009433973E+04  0.87503652975E+02 0.  0.
    5000000    2    1    2    0    0  0.53647900437E+03  0.55348041968E+03  0.51321303530E+03  0.11033754243E+04  0.59991616937E+03 0.  0.
         23    2    4    4    0    0 -0.53410601718E+02 -0.14526743102E+02  0.19027788952E+03  0.21852782939E+03  0.92114159248E+02 0.  0.
         23    2    4    4    0    0  0.58988960608E+03  0.56800716278E+03  0.32293514578E+03  0.88484759492E+03  0.89812435251E+02 0.  0.
          3    1    3    3  502    0 -0.97781596470E+02 -0.14080266365E+03  0.24067454824E+03  0.29548412625E+03  0.00000000000E+00 0. -1.
         -3    1    3    3    0  502 -0.43869740790E+03 -0.41267775603E+03  0.67609033833E+03  0.90545927109E+03  0.00000000000E+00 0.  1.
         15    1    5    5    0    0 -0.36741082662E+02  0.11120110333E+02  0.16081566097E+02  0.41657394375E+02  0.17770000000E+01 0. -1.
        -15    1    5    5    0    0 -0.16669519056E+02 -0.25646853436E+02  0.17419632343E+03  0.17687043501E+03  0.17770000000E+01 0.  1.
          3    1    6    6  503    0  0.25464633949E+03  0.19336964962E+03  0.10111367422E+03  0.33535138992E+03  0.00000000000E+00 0. -1.
         -3    1    6    6    0  503  0.33524326660E+03  0.37463751316E+03  0.22182147156E+03  0.54949620500E+03  0.00000000000E+00 0.  1.
<mgrwt>
<rscale>  0 0.83263288E+03</rscale>
<asrwt>0</asrwt>
<pdfrwt beam="1">  1        1 0.28725359E+00 0.83263288E+03</pdfrwt>
<pdfrwt beam="2">  1       -1 0.67256993E-01 0.83263288E+03</pdfrwt>
<totfact> 0.84737944E+00</totfact>
</mgrwt>
</event>
<event>
12    1  0.7781383E-008  0.1101342E+04  0.7818608E-02  0.9203885E-01
          2   -1    0    0  501    0  0.00000000000E+00  0.00000000000E+00  0.30499518351E+04  0.30499518351E+04  0.00000000000E+00 0. -1.
         -2   -1    0    0    0  501 -0.00000000000E+00 -0.00000000000E+00 -0.52683902628E+03  0.52683902628E+03  0.00000000000E+00 0.  1.
         23    2    1    2    0    0  0.95292785851E+03  0.45999451819E+03  0.19750384966E+04  0.22424761542E+04  0.90861315739E+02 0.  0.
    5000000    2    1    2    0    0 -0.95292785851E+03 -0.45999451819E+03  0.54807431221E+03  0.13343147072E+04  0.60028645318E+03 0.  0.
         23    2    4    4    0    0 -0.61785387885E+03 -0.50208784812E+03  0.17236616705E+03  0.81953745312E+03  0.89977323154E+02 0.  0.
         23    2    4    4    0    0 -0.33507397966E+03  0.42093329929E+02  0.37570814516E+03  0.51477725409E+03  0.98957519759E+02 0.  0.
          3    1    3    3  502    0  0.92346942974E+03  0.42594347096E+03  0.18871273854E+04  0.21437055294E+04  0.00000000000E+00 0. -1.
         -3    1    3    3    0  502  0.29458428772E+02  0.34051047227E+02  0.87911111174E+02  0.98770624736E+02  0.00000000000E+00 0.  1.
         15    1    5    5    0    0 -0.14913295433E+03 -0.16576923147E+03  0.69270825211E+02  0.23349878185E+03  0.17770000000E+01 0. -1.
        -15    1    5    5    0    0 -0.46872092452E+03 -0.33631861664E+03  0.10309534184E+03  0.58603867127E+03  0.17770000000E+01 0.  1.
          3    1    6    6  503    0 -0.57537175513E+02  0.25026286127E+02  0.12727525759E+03  0.14190078491E+03  0.00000000000E+00 0. -1.
         -3    1    6    6    0  503 -0.27753680415E+03  0.17067043802E+02  0.24843288757E+03  0.37287646918E+03  0.00000000000E+00 0.  1.
<mgrwt>
<rscale>  0 0.11013423E+04</rscale>
<asrwt>0</asrwt>
<pdfrwt beam="1">  1        2 0.46922335E+00 0.11013423E+04</pdfrwt>
<pdfrwt beam="2">  1       -2 0.81052159E-01 0.11013423E+04</pdfrwt>
<totfact> 0.21894377E+00</totfact>
</mgrwt>
</event>
<event>
12    1  0.7781383E-008  0.1049837E+04  0.7818608E-02  0.9255512E-01
          1   -1    0    0  501    0  0.00000000000E+00  0.00000000000E+00  0.53851890651E+03  0.53851890651E+03  0.00000000000E+00 0. -1.
         -1   -1    0    0    0  501 -0.00000000000E+00 -0.00000000000E+00 -0.23127468286E+04  0.23127468286E+04  0.00000000000E+00 0.  1.
         23    2    1    2    0    0  0.82366892634E+03 -0.61743678428E+03 -0.71389031157E+03  0.12562361474E+04  0.93974456074E+02 0.  0.
    5000000    2    1    2    0    0 -0.82366892634E+03  0.61743678428E+03 -0.10603376105E+04  0.15950295876E+04  0.60012069987E+03 0.  0.
         23    2    4    4    0    0 -0.32024280223E+03  0.41853504433E+03 -0.19308725145E+03  0.56866799560E+03  0.91507195540E+02 0.  0.
         23    2    4    4    0    0 -0.50342612411E+03  0.19890173995E+03 -0.86725035903E+03  0.10263615920E+04  0.91077811594E+02 0.  0.
          1    1    3    3  502    0  0.51418240126E+03 -0.41009139212E+03 -0.50446092063E+03  0.82887834578E+03  0.00000000000E+00 0.  1.
         -1    1    3    3    0  502  0.30948652508E+03 -0.20734539215E+03 -0.20942939094E+03  0.42735780167E+03  0.00000000000E+00 0. -1.
         15    1    5    5    0    0 -0.23212600067E+03  0.30163477367E+03 -0.18187303099E+03  0.42183761568E+03  0.17770000000E+01 0. -1.
        -15    1    5    5    0    0 -0.88116801556E+02  0.11690027066E+03 -0.11214220461E+02  0.14683037992E+03  0.17770000000E+01 0.  1.
          4    1    6    6  503    0 -0.23521405311E+03  0.11185795994E+03 -0.33835903731E+03  0.42699495560E+03  0.00000000000E+00 0. -1.
         -4    1    6    6    0  503 -0.26821207100E+03  0.87043780007E+02 -0.52889132172E+03  0.59936663643E+03  0.00000000000E+00 0.  1.
<mgrwt>
<rscale>  0 0.10498369E+04</rscale>
<asrwt>0</asrwt>
<pdfrwt beam="1">  1        1 0.82849064E-01 0.10498369E+04</pdfrwt>
<pdfrwt beam="2">  1       -1 0.35580720E+00 0.10498369E+04</pdfrwt>
<totfact> 0.57617917E-01</totfact>
</mgrwt>
</event>
<event>
12    1  0.7781383E-008  0.1012682E+04  0.7818608E-02  0.9294744E-01
         -2   -1    0    0    0  501 -0.00000000000E+00  0.00000000000E+00  0.91690163740E+03  0.91690163740E+03  0.00000000000E+00 0.  1.
          2   -1    0    0  501    0  0.00000000000E+00 -0.00000000000E+00 -0.24338495842E+04  0.24338495842E+04  0.00000000000E+00 0. -1.
         23    2    1    2    0    0  0.69795330780E+03  0.61238880777E+03  0.49424855234E+03  0.10555420777E+04  0.87912311768E+02 0.  0.
    5000000    2    1    2    0    0 -0.69795330780E+03 -0.61238880777E+03 -0.20111964991E+04  0.22952091439E+04  0.60076183663E+03 0.  0.
         23    2    4    4    0    0 -0.37690014257E+03  0.23104242040E+02 -0.69994545323E+03  0.80052828904E+03  0.91292828773E+02 0.  0.
         23    2    4    4    0    0 -0.32105316523E+03 -0.63549304981E+03 -0.13112510459E+04  0.14946808548E+04  0.88119244415E+02 0.  0.
          2    1    3    3  502    0  0.32821255952E+03  0.23275152594E+03  0.19847031766E+03  0.44865044751E+03  0.00000000000E+00 0.  1.
         -2    1    3    3    0  502  0.36974074827E+03  0.37963728183E+03  0.29577823468E+03  0.60689163019E+03  0.00000000000E+00 0. -1.
         15    1    5    5    0    0 -0.25646848872E+03  0.29372574091E+02 -0.55402337100E+03  0.61121509075E+03  0.17770000000E+01 0. -1.
        -15    1    5    5    0    0 -0.12043165385E+03 -0.62683320511E+01 -0.14592208223E+03  0.18931319829E+03  0.17770000000E+01 0.  1.
          3    1    6    6  503    0 -0.99471059154E+02 -0.25902057256E+03 -0.57843915122E+03  0.64154345159E+03  0.00000000000E+00 0. -1.
         -3    1    6    6    0  503 -0.22158210607E+03 -0.37647247725E+03 -0.73281189467E+03  0.85313740325E+03  0.00000000000E+00 0.  1.
<mgrwt>
<rscale>  0 0.10126821E+04</rscale>
<asrwt>0</asrwt>
<pdfrwt beam="1">  1        2 0.37443840E+00 0.10126821E+04</pdfrwt>
<pdfrwt beam="2">  1       -2 0.14106179E+00 0.10126821E+04</pdfrwt>
<totfact> 0.13426053E+00</totfact>
</mgrwt>
</event>
<event>
12    1  0.7781383E-008  0.3232555E+03  0.7818608E-02  0.1074161E+00
          1   -1    0    0  501    0  0.00000000000E+00  0.00000000000E+00  0.31776602167E+03  0.31776602167E+03  0.00000000000E+00 0.  1.
         -1   -1    0    0    0  501 -0.00000000000E+00 -0.00000000000E+00 -0.95456617462E+03  0.95456617462E+03  0.00000000000E+00 0. -1.
         23    2    1    2    0    0 -0.53861389379E+02  0.26854107170E+03 -0.53080797987E+03  0.60433790829E+03  0.91933886291E+02 0.  0.
    5000000    2    1    2    0    0  0.53861389379E+02 -0.26854107170E+03 -0.10599217308E+03  0.66799428799E+03  0.59997222567E+03 0.  0.
         23    2    4    4    0    0 -0.39846296366E+01 -0.26722933391E+03  0.19799687961E+03  0.34510411299E+03  0.92014619980E+02 0.  0.
         23    2    4    4    0    0  0.57846019015E+02 -0.13117377880E+01 -0.30398905269E+03  0.32289017500E+03  0.92199991237E+02 0.  0.
          1    1    3    3  502    0 -0.45120518956E+02  0.22018363210E+03 -0.34203269758E+03  0.40927137610E+03  0.00000000000E+00 0. -1.
         -1    1    3    3    0  502 -0.87408704223E+01  0.48357439603E+02 -0.18877528228E+03  0.19506653219E+03  0.00000000000E+00 0.  1.
         15    1    5    5    0    0 -0.28615009738E+02 -0.23905696812E+03  0.14796967632E+03  0.28260438006E+03  0.17770000000E+01 0. -1.
        -15    1    5    5    0    0  0.24630380101E+02 -0.28172365793E+02  0.50027203294E+02  0.62499732933E+02  0.17770000000E+01 0.  1.
          1    1    6    6  503    0  0.25087403859E+02 -0.37783439478E+02 -0.67155276755E+02  0.81035778068E+02  0.00000000000E+00 0. -1.
         -1    1    6    6    0  503  0.32758615157E+02  0.36471701690E+02 -0.23683377594E+03  0.24185439693E+03  0.00000000000E+00 0.  1.
<mgrwt>
<rscale>  0 0.32325546E+03</rscale>
<asrwt>0</asrwt>
<pdfrwt beam="1">  1        1 0.48887081E-01 0.32325546E+03</pdfrwt>
<pdfrwt beam="2">  1       -1 0.14685633E+00 0.32325546E+03</pdfrwt>
<totfact> 0.32537633E+01</totfact>
</mgrwt>
</event>
<event>
12    1  0.7781383E-008  0.8794097E+03  0.7818608E-02  0.9451693E-01
         -2   -1    0    0    0  501 -0.00000000000E+00  0.00000000000E+00  0.96796778398E+03  0.96796778398E+03  0.00000000000E+00 0.  1.
          2   -1    0    0  501    0  0.00000000000E+00 -0.00000000000E+00 -0.92874080528E+03  0.92874080528E+03  0.00000000000E+00 0. -1.
         23    2    1    2    0    0 -0.76252515588E+03  0.36687431423E+03  0.10637146581E+03  0.85724898218E+03  0.86715355757E+02 0.  0.
    5000000    2    1    2    0    0  0.76252515588E+03 -0.36687431423E+03 -0.67144487103E+02  0.10394596071E+04  0.59993876089E+03 0.  0.
         23    2    4    4    0    0  0.46076028879E+02 -0.11904763269E+03  0.17832571014E+03  0.23750997514E+03  0.91189857483E+02 0.  0.
         23    2    4    4    0    0  0.71644912700E+03 -0.24782668154E+03 -0.24547019725E+03  0.80194963194E+03  0.90278340550E+02 0.  0.
          3    1    3    3  502    0 -0.66724162176E+02  0.40658104816E+02 -0.14067306762E+02  0.79391967005E+02  0.00000000000E+00 0. -1.
         -3    1    3    3    0  502 -0.69580099370E+03  0.32621620942E+03  0.12043877257E+03  0.77785701518E+03  0.00000000000E+00 0.  1.
         15    1    5    5    0    0  0.42048877577E+02 -0.84361647023E+01  0.73149276260E+02  0.84813037481E+02  0.17770000000E+01 0. -1.
        -15    1    5    5    0    0  0.40271513025E+01 -0.11061146799E+03  0.10517643388E+03  0.15269693766E+03  0.17770000000E+01 0.  1.
          1    1    6    6  503    0  0.25548308731E+03 -0.74700720544E+02 -0.43398304816E+02  0.26969467628E+03  0.00000000000E+00 0. -1.
         -1    1    6    6    0  503  0.46096603968E+03 -0.17312596100E+03 -0.20207189243E+03  0.53225495566E+03  0.00000000000E+00 0.  1.
<mgrwt>
<rscale>  0 0.87940971E+03</rscale>
<asrwt>0</asrwt>
<pdfrwt beam="1">  1        2 0.14288320E+00 0.87940971E+03</pdfrwt>
<pdfrwt beam="2">  1       -2 0.14891812E+00 0.87940971E+03</pdfrwt>
<totfact> 0.85912912E+00</totfact>
</mgrwt>
</event>
<event>
12    1  0.7781383E-008  0.8094100E+03  0.7818608E-02  0.9546496E-01
          2   -1    0    0  501    0  0.00000000000E+00  0.00000000000E+00  0.29602454387E+04  0.29602454387E+04  0.00000000000E+00 0. -1.
         -2   -1    0    0    0  501 -0.00000000000E+00 -0.00000000000E+00 -0.32295534746E+03  0.32295534746E+03  0.00000000000E+00 0.  1.
         23    2    1    2    0    0  0.59425234715E+03  0.36507947766E+03  0.21069629331E+04  0.22212507304E+04  0.90791678812E+02 0.  0.
    5000000    2    1    2    0    0 -0.59425234715E+03 -0.36507947766E+03  0.53032715816E+03  0.10619500557E+04  0.60006012123E+03 0.  0.
         23    2    4    4    0    0 -0.61233919038E+03 -0.85652798580E+02  0.36879222993E+03  0.72579723882E+03  0.92077342692E+02 0.  0.
         23    2    4    4    0    0  0.18086843232E+02 -0.27942667908E+03  0.16153492823E+03  0.33615281692E+03  0.92188830141E+02 0.  0.
          3    1    3    3  502    0  0.15649058461E+03  0.53843338015E+02  0.45524694315E+03  0.48439466076E+03  0.00000000000E+00 0. -1.
         -3    1    3    3    0  502  0.43776176254E+03  0.31123613964E+03  0.16517159900E+04  0.17368560697E+04  0.00000000000E+00 0.  1.
         15    1    5    5    0    0 -0.12850051753E+03 -0.53689148426E+02  0.65974238811E+02  0.15411250948E+03  0.17770000000E+01 0. -1.
        -15    1    5    5    0    0 -0.48383867285E+03 -0.31963650155E+02  0.30281799111E+03  0.57168472933E+03  0.17770000000E+01 0.  1.
          1    1    6    6  503    0 -0.32457051664E+02 -0.14024837881E+03  0.10263413284E+03  0.17679602141E+03  0.00000000000E+00 0. -1.
         -1    1    6    6    0  503  0.50543894895E+02 -0.13917830027E+03  0.58900795390E+02  0.15935679551E+03  0.00000000000E+00 0.  1.
<mgrwt>
<rscale>  0 0.80940998E+03</rscale>
<asrwt>0</asrwt>
<pdfrwt beam="1">  1        2 0.45542236E+00 0.80940998E+03</pdfrwt>
<pdfrwt beam="2">  1       -2 0.49685440E-01 0.80940998E+03</pdfrwt>
<totfact> 0.74363518E+00</totfact>
</mgrwt>
</event>
<event>
12    1  0.7781383E-008  0.6348033E+03  0.7818608E-02  0.9835720E-01
         -1   -1    0    0    0  501 -0.00000000000E+00  0.00000000000E+00  0.16306183231E+03  0.16306183231E+03  0.00000000000E+00 0.  1.
          1   -1    0    0  501    0  0.00000000000E+00 -0.00000000000E+00 -0.25365290024E+04  0.25365290024E+04  0.00000000000E+00 0. -1.
         23    2    1    2    0    0  0.55028816511E+02 -0.49493301324E+03 -0.91810530807E+03  0.10485257353E+04  0.92206304262E+02 0.  0.
    5000000    2    1    2    0    0 -0.55028816511E+02  0.49493301324E+03 -0.14553618620E+04  0.16510650995E+04  0.59995912775E+03 0.  0.
         23    2    4    4    0    0 -0.25882527073E+03  0.58546680218E+02 -0.42077469605E+03  0.50614051154E+03  0.93320083865E+02 0.  0.
         23    2    4    4    0    0  0.20379645422E+03  0.43638633302E+03 -0.10345871660E+04  0.11449245879E+04  0.92280450917E+02 0.  0.
          1    1    3    3  502    0  0.84712185206E+01 -0.40122708881E+03 -0.70890428961E+03  0.81461661546E+03  0.00000000000E+00 0. -1.
         -1    1    3    3    0  502  0.46557597991E+02 -0.93705924427E+02 -0.20920101845E+03  0.23390911980E+03  0.00000000000E+00 0.  1.
         15    1    5    5    0    0 -0.11027665478E+02 -0.12170817333E+02 -0.55084315247E+01  0.17413751673E+02  0.17770000000E+01 0.  1.
        -15    1    5    5    0    0 -0.24779760525E+03  0.70717497551E+02 -0.41526626453E+03  0.48872675987E+03  0.17770000000E+01 0. -1.
          1    1    6    6  503    0  0.13961127131E+03  0.37690083511E+03 -0.87565623157E+03  0.96349332248E+03  0.00000000000E+00 0. -1.
         -1    1    6    6    0  503  0.64185182909E+02  0.59485497915E+02 -0.15893093442E+03  0.18143126545E+03  0.00000000000E+00 0.  1.
<mgrwt>
<rscale>  0 0.63480328E+03</rscale>
<asrwt>0</asrwt>
<pdfrwt beam="1">  1        1 0.39023524E+00 0.63480328E+03</pdfrwt>
<pdfrwt beam="2">  1       -1 0.25086435E-01 0.63480328E+03</pdfrwt>
<totfact> 0.19011259E+01</totfact>
</mgrwt>
</event>
<event>
12    1  0.7781383E-008  0.8575593E+03  0.7818608E-02  0.9480247E-01
          1   -1    0    0  501    0  0.00000000000E+00  0.00000000000E+00  0.16253310880E+04  0.16253310880E+04  0.00000000000E+00 0. -1.
         -1   -1    0    0    0  501 -0.00000000000E+00 -0.00000000000E+00 -0.70039236645E+03  0.70039236645E+03  0.00000000000E+00 0.  1.
         23    2    1    2    0    0 -0.30374167263E+03 -0.78699251975E+03 -0.11776940989E+03  0.85643520755E+03  0.89417006149E+02 0.  0.
    5000000    2    1    2    0    0  0.30374167263E+03  0.78699251975E+03  0.10427081315E+04  0.14692882469E+04  0.59995956137E+03 0.  0.
         23    2    4    4    0    0  0.52749628194E+02  0.22948174446E+03  0.73804568585E+03  0.78030513014E+03  0.93382371982E+02 0.  0.
         23    2    4    4    0    0  0.25099204444E+03  0.55751077528E+03  0.30466244560E+03  0.68898311677E+03  0.89795648626E+02 0.  0.
          1    1    3    3  502    0 -0.45813324084E+02 -0.18445360907E+03  0.24687454568E+01  0.19007390475E+03  0.00000000000E+00 0. -1.
         -1    1    3    3    0  502 -0.25792834855E+03 -0.60253891068E+03 -0.12023815534E+03  0.66636130280E+03  0.00000000000E+00 0.  1.
         15    1    5    5    0    0 -0.24910970925E+02  0.43731951578E+02  0.18571419041E+03  0.19242130420E+03  0.17770000000E+01 0. -1.
        -15    1    5    5    0    0  0.77660599119E+02  0.18574979288E+03  0.55233149544E+03  0.58788382593E+03  0.17770000000E+01 0.  1.
          2    1    6    6  503    0  0.18491705724E+03  0.30282419996E+03  0.17183057818E+03  0.39423668238E+03  0.00000000000E+00 0. -1.
         -2    1    6    6    0  503  0.66074987200E+02  0.25468657533E+03  0.13283186742E+03  0.29474643439E+03  0.00000000000E+00 0.  1.
<mgrwt>
<rscale>  0 0.85755928E+03</rscale>
<asrwt>0</asrwt>
<pdfrwt beam="1">  1        1 0.25005094E+00 0.85755928E+03</pdfrwt>
<pdfrwt beam="2">  1       -1 0.10775267E+00 0.85755928E+03</pdfrwt>
<totfact> 0.44096223E+00</totfact>
</mgrwt>
</event>
<event>
12    1  0.7781383E-008  0.7209873E+03  0.7818608E-02  0.9681999E-01
         -1   -1    0    0    0  501 -0.00000000000E+00  0.00000000000E+00  0.12666448840E+04  0.12666448840E+04  0.00000000000E+00 0.  1.
          1   -1    0    0  501    0  0.00000000000E+00 -0.00000000000E+00 -0.42995672754E+03  0.42995672754E+03  0.00000000000E+00 0. -1.
         23    2    1    2    0    0 -0.49830766335E+03 -0.34302640932E+03  0.46070452307E+03  0.76600459151E+03  0.92394435902E+02 0.  0.
    5000000    2    1    2    0    0  0.49830766335E+03  0.34302640932E+03  0.37598363342E+03  0.93059702007E+03  0.59889020389E+03 0.  0.
         23    2    4    4    0    0  0.37563539408E+03  0.50028329351E+03  0.28437439106E+03  0.69321167961E+03  0.91040185692E+02 0.  0.
         23    2    4    4    0    0  0.12267226927E+03 -0.15725688419E+03  0.91609242357E+02  0.23738534045E+03  0.90450723076E+02 0.  0.
          1    1    3    3  502    0 -0.23282304574E+03 -0.18121687798E+03  0.27805610325E+03  0.40541500225E+03  0.00000000000E+00 0. -1.
         -1    1    3    3    0  502 -0.26548461760E+03 -0.16180953134E+03  0.18264841983E+03  0.36058958926E+03  0.00000000000E+00 0.  1.
         15    1    5    5    0    0  0.22730145139E+03  0.29827238276E+03  0.21868335838E+03  0.43411741855E+03  0.17770000000E+01 0.  1.
        -15    1    5    5    0    0  0.14833394269E+03  0.20201091075E+03  0.65691032679E+02  0.25909426107E+03  0.17770000000E+01 0. -1.
          4    1    6    6  503    0  0.31769944856E+02 -0.95099327700E+02  0.76743598700E+02  0.12626476732E+03  0.00000000000E+00 0. -1.
         -4    1    6    6    0  503  0.90902324410E+02 -0.62157556491E+02  0.14865643657E+02  0.11112057313E+03  0.00000000000E+00 0.  1.
<mgrwt>
<rscale>  0 0.72098726E+03</rscale>
<asrwt>0</asrwt>
<pdfrwt beam="1">  1        1 0.66147189E-01 0.72098726E+03</pdfrwt>
<pdfrwt beam="2">  1       -1 0.19486844E+00 0.72098726E+03</pdfrwt>
<totfact> 0.92131069E+00</totfact>
</mgrwt>
</event>
<event>
12    1  0.7781383E-008  0.6170902E+03  0.7818608E-02  0.9870570E-01
          2   -1    0    0  501    0  0.00000000000E+00  0.00000000000E+00  0.74147652369E+03  0.74147652369E+03  0.00000000000E+00 0.  1.
         -2   -1    0    0    0  501 -0.00000000000E+00 -0.00000000000E+00 -0.73554821844E+03  0.73554821844E+03  0.00000000000E+00 0. -1.
         23    2    1    2    0    0 -0.55032529853E+03 -0.25340799580E+03 -0.84383452284E+02  0.61957296962E+03  0.98369462408E+02 0.  0.
    5000000    2    1    2    0    0  0.55032529853E+03  0.25340799580E+03  0.90311757535E+02  0.85745177251E+03  0.59999481840E+03 0.  0.
         23    2    4    4    0    0  0.29093477948E+03  0.13187375004E+03  0.33384357341E+03  0.47076795648E+03  0.90206460311E+02 0.  0.
         23    2    4    4    0    0  0.25939051905E+03  0.12153424576E+03 -0.24353181588E+03  0.38668381603E+03  0.90347185753E+02 0.  0.
          3    1    3    3  502    0 -0.26829587430E+03 -0.69844176553E+02 -0.33961014155E+02  0.27931028561E+03  0.00000000000E+00 0. -1.
         -3    1    3    3    0  502 -0.28202942423E+03 -0.18356381924E+03 -0.50422438130E+02  0.34026268402E+03  0.00000000000E+00 0.  1.
         15    1    5    5    0    0  0.12784369341E+03  0.15851404520E+02  0.10090475620E+03  0.16364658420E+03  0.17770000000E+01 0. -1.
        -15    1    5    5    0    0  0.16309108607E+03  0.11602234552E+03  0.23293881721E+03  0.30712137228E+03  0.17770000000E+01 0.  1.
          4    1    6    6  503    0  0.21195491742E+03  0.74563303605E+02 -0.14411595473E+03  0.26693441455E+03  0.00000000000E+00 0. -1.
         -4    1    6    6    0  503  0.47435601634E+02  0.46970942155E+02 -0.99415861147E+02  0.11974940149E+03  0.00000000000E+00 0.  1.
<mgrwt>
<rscale>  0 0.61709022E+03</rscale>
<asrwt>0</asrwt>
<pdfrwt beam="1">  1        2 0.11407331E+00 0.61709022E+03</pdfrwt>
<pdfrwt beam="2">  1       -2 0.11316126E+00 0.61709022E+03</pdfrwt>
<totfact> 0.23987502E+01</totfact>
</mgrwt>
</event>
<event>
12    1  0.7781383E-008  0.6719071E+03  0.7818608E-02  0.9766519E-01
          2   -1    0    0  501    0  0.00000000000E+00  0.00000000000E+00  0.14089348055E+04  0.14089348055E+04  0.00000000000E+00 0.  1.
         -2   -1    0    0    0  501 -0.00000000000E+00 -0.00000000000E+00 -0.52974942644E+03  0.52974942644E+03  0.00000000000E+00 0. -1.
         23    2    1    2    0    0  0.28718649113E+03  0.53077693848E+03 -0.12410253497E+03  0.62297666217E+03  0.92185917125E+02 0.  0.
    5000000    2    1    2    0    0 -0.28718649113E+03 -0.53077693848E+03  0.10032879140E+04  0.13157075697E+04  0.60024955776E+03 0.  0.
         23    2    4    4    0    0 -0.13783973281E+03  0.28479679027E+02  0.55065948173E+03  0.57553325903E+03  0.90563697876E+02 0.  0.
         23    2    4    4    0    0 -0.14934675831E+03 -0.55925661751E+03  0.45262843227E+03  0.74017431071E+03  0.88955573690E+02 0.  0.
          4    1    3    3  502    0  0.18856418363E+03  0.42646151570E+03 -0.10697813708E+03  0.47840380176E+03  0.00000000000E+00 0.  1.
         -4    1    3    3    0  502  0.98622307495E+02  0.10431542278E+03 -0.17124397892E+02  0.14457286041E+03  0.00000000000E+00 0. -1.
         15    1    5    5    0    0 -0.11070921640E+03 -0.18093190263E+01  0.26829267899E+03  0.29024803799E+03  0.17770000000E+01 0. -1.
        -15    1    5    5    0    0 -0.27130516417E+02  0.30288998054E+02  0.28236680274E+03  0.28528522104E+03  0.17770000000E+01 0.  1.
          1    1    6    6  503    0 -0.10525221644E+03 -0.26753779726E+03  0.18526965096E+03  0.34202243434E+03  0.00000000000E+00 0. -1.
         -1    1    6    6    0  503 -0.44094541874E+02 -0.29171882025E+03  0.26735878131E+03  0.39815187636E+03  0.00000000000E+00 0.  1.
<mgrwt>
<rscale>  0 0.67190713E+03</rscale>
<asrwt>0</asrwt>
<pdfrwt beam="1">  1        2 0.21675920E+00 0.67190713E+03</pdfrwt>
<pdfrwt beam="2">  1       -2 0.81499913E-01 0.67190713E+03</pdfrwt>
<totfact> 0.19575018E+01</totfact>
</mgrwt>
</event>
<event>
12    1  0.7781383E-008  0.5912786E+03  0.7818608E-02  0.9923667E-01
         -2   -1    0    0    0  501 -0.00000000000E+00  0.00000000000E+00  0.36844459941E+03  0.36844459941E+03  0.00000000000E+00 0.  1.
          2   -1    0    0  501    0  0.00000000000E+00 -0.00000000000E+00 -0.15149366962E+04  0.15149366962E+04  0.00000000000E+00 0. -1.
         23    2    1    2    0    0 -0.39319446888E+03 -0.27617044170E+03 -0.98202698929E+03  0.10973188823E+04  0.94126078239E+02 0.  0.
    5000000    2    1    2    0    0  0.39319446888E+03  0.27617044170E+03 -0.16446510749E+03  0.78606241327E+03  0.59997778521E+03 0.  0.
         23    2    4    4    0    0  0.51059851693E+03  0.20301766724E+03 -0.23707545064E+03  0.60543156858E+03  0.91736558923E+02 0.  0.
         23    2    4    4    0    0 -0.11740404805E+03  0.73152774468E+02  0.72610343148E+02  0.18063084469E+03  0.90665325282E+02 0.  0.
          1    1    3    3  502    0 -0.38235359731E+03 -0.23915841481E+03 -0.89961598779E+03  0.10063299391E+04  0.00000000000E+00 0. -1.
         -1    1    3    3    0  502 -0.10840871573E+02 -0.37012026890E+02 -0.82411001501E+02  0.90988943281E+02  0.00000000000E+00 0.  1.
         15    1    5    5    0    0  0.62359608706E+02  0.61350637754E+01 -0.54026192501E+02  0.82754740110E+02  0.17770000000E+01 0. -1.
        -15    1    5    5    0    0  0.44823890822E+03  0.19688260346E+03 -0.18304925814E+03  0.52267682847E+03  0.17770000000E+01 0.  1.
          3    1    6    6  503    0 -0.11717267445E+02  0.18133067670E+02 -0.20225486018E+02  0.29583319357E+02  0.00000000000E+00 0. -1.
         -3    1    6    6    0  503 -0.10568678061E+03  0.55019706798E+02  0.92835829166E+02  0.15104752533E+03  0.00000000000E+00 0.  1.
<mgrwt>
<rscale>  0 0.59127859E+03</rscale>
<asrwt>0</asrwt>
<pdfrwt beam="1">  1        2 0.23306718E+00 0.59127859E+03</pdfrwt>
<pdfrwt beam="2">  1       -2 0.56683786E-01 0.59127859E+03</pdfrwt>
<totfact> 0.37921872E+01</totfact>
</mgrwt>
</event>
<event>
12    1  0.8294861E-008  0.1021336E+04  0.7818608E-02  0.9285449E-01
          1   -1    0    0  501    0  0.00000000000E+00  0.00000000000E+00  0.12304644264E+04  0.12304644264E+04  0.00000000000E+00 0. -1.
         -1   -1    0    0    0  501 -0.00000000000E+00 -0.00000000000E+00 -0.95844205561E+03  0.95844205561E+03  0.00000000000E+00 0.  1.
         23    2    1    2    0    0  0.39431960757E+03 -0.86206531408E+03 -0.19767540639E+03  0.97264874351E+03  0.91243922016E+02 0.  0.
    5000000    2    1    2    0    0 -0.39431960757E+03  0.86206531408E+03  0.46969777719E+03  0.12162577385E+04  0.60001860465E+03 0.  0.
         23    2    4    4    0    0  0.97113761088E+02  0.37020300163E+03  0.42226327988E+02  0.39494755690E+03  0.87858778256E+02 0.  0.
         23    2    4    4    0    0 -0.49143336866E+03  0.49186231245E+03  0.42747144921E+03  0.82131018161E+03  0.91560276810E+02 0.  0.
          3    1    3    3  502    0  0.22086385630E+03 -0.58224017829E+03 -0.14271707903E+03  0.63886824376E+03  0.00000000000E+00 0. -1.
         -3    1    3    3    0  502  0.17345575127E+03 -0.27982513579E+03 -0.54958327362E+02  0.33378049975E+03  0.00000000000E+00 0.  1.
         15    1    5    5    0    0  0.69825071906E+02  0.12837501172E+03  0.40181173269E+02  0.15156968271E+03  0.17770000000E+01 0. -1.
        -15    1    5    5    0    0  0.27288689183E+02  0.24182798991E+03  0.20451547192E+01  0.24337787419E+03  0.17770000000E+01 0.  1.
          2    1    6    6  503    0 -0.34728332013E+03  0.40247035359E+03  0.32967350400E+03  0.62551795274E+03  0.00000000000E+00 0. -1.
         -2    1    6    6    0  503 -0.14415004853E+03  0.89391958859E+02  0.97797945208E+02  0.19579222887E+03  0.00000000000E+00 0.  1.
<mgrwt>
<rscale>  0 0.10213360E+04</rscale>
<asrwt>0</asrwt>
<pdfrwt beam="1">  1        1 0.18930222E+00 0.10213360E+04</pdfrwt>
<pdfrwt beam="2">  1       -1 0.14745262E+00 0.10213360E+04</pdfrwt>
<totfact> 0.37127142E+00</totfact>
</mgrwt>
</event>
<event>
12    1  0.7781383E-008  0.6054976E+03  0.7818608E-02  0.9894066E-01
          1   -1    0    0  501    0  0.00000000000E+00  0.00000000000E+00  0.14716039580E+04  0.14716039580E+04  0.00000000000E+00 0. -1.
         -1   -1    0    0    0  501 -0.00000000000E+00 -0.00000000000E+00 -0.27133852667E+03  0.27133852667E+03  0.00000000000E+00 0.  1.
         23    2    1    2    0    0 -0.32467249703E+03 -0.33101336084E+03  0.66059594433E+03  0.81237458951E+03  0.92646622397E+02 0.  0.
    5000000    2    1    2    0    0  0.32467249703E+03  0.33101336084E+03  0.53966948700E+03  0.93056789517E+03  0.59977610567E+03 0.  0.
         23    2    4    4    0    0  0.29224124371E+03 -0.95482063949E+02  0.21908469957E+03  0.38849798693E+03  0.91710474850E+02 0.  0.
         23    2    4    4    0    0  0.32431253317E+02  0.42649542479E+03  0.32058478743E+03  0.54206990824E+03  0.90083549734E+02 0.  0.
          1    1    3    3  502    0 -0.19393303338E+03 -0.15976352041E+03  0.41989479495E+03  0.48933224164E+03  0.00000000000E+00 0. -1.
         -1    1    3    3    0  502 -0.13073946365E+03 -0.17124984043E+03  0.24070114938E+03  0.32304234787E+03  0.00000000000E+00 0.  1.
         15    1    5    5    0    0  0.43156522402E+02 -0.20597187747E+02  0.80830737833E+02  0.93933463029E+02  0.17770000000E+01 0.  1.
        -15    1    5    5    0    0  0.24908472131E+03 -0.74884876202E+02  0.13825396174E+03  0.29456452390E+03  0.17770000000E+01 0. -1.
          3    1    6    6  503    0  0.61625208092E+02  0.32095112676E+03  0.22571602423E+03  0.39718385621E+03  0.00000000000E+00 0. -1.
         -3    1    6    6    0  503 -0.29193954775E+02  0.10554429803E+03  0.94868763204E+02  0.14488605203E+03  0.00000000000E+00 0.  1.
<mgrwt>
<rscale>  0 0.60549757E+03</rscale>
<asrwt>0</asrwt>
<pdfrwt beam="1">  1        1 0.22640060E+00 0.60549757E+03</pdfrwt>
<pdfrwt beam="2">  1       -1 0.41744389E-01 0.60549757E+03</pdfrwt>
<totfact> 0.40422275E+01</totfact>
</mgrwt>
</event>
<event>
12    1  0.7781383E-008  0.7818604E+03  0.7818608E-02  0.9586651E-01
         -2   -1    0    0    0  501 -0.00000000000E+00  0.00000000000E+00  0.30387412090E+03  0.30387412090E+03  0.00000000000E+00 0.  1.
          2   -1    0    0  501    0  0.00000000000E+00 -0.00000000000E+00 -0.25992428330E+04  0.25992428330E+04  0.00000000000E+00 0. -1.
         23    2    1    2    0    0  0.21176398428E+03  0.73270875424E+03 -0.13205806609E+04  0.15276742334E+04  0.90272796754E+02 0.  0.
    5000000    2    1    2    0    0 -0.21176398428E+03 -0.73270875424E+03 -0.97478805119E+03  0.13754427205E+04  0.59993735430E+03 0.  0.
         23    2    4    4    0    0 -0.69491506791E+02 -0.51286057118E+03 -0.96668391562E+03  0.11004475836E+04  0.93016431275E+02 0.  0.
         23    2    4    4    0    0 -0.14227247749E+03 -0.21984818306E+03 -0.81041355676E+01  0.27499513693E+03  0.83558164640E+02 0.  0.
          4    1    3    3  502    0  0.69304997250E+02  0.34885559296E+03 -0.68052493472E+03  0.76786560944E+03  0.00000000000E+00 0.  1.
         -4    1    3    3    0  502  0.14245898703E+03  0.38385316128E+03 -0.64005572617E+03  0.75980862394E+03  0.00000000000E+00 0. -1.
         15    1    5    5    0    0 -0.25628419686E+02 -0.43979820324E+03 -0.81577911938E+03  0.92713429708E+03  0.17770000000E+01 0.  1.
        -15    1    5    5    0    0 -0.43863087105E+02 -0.73062367937E+02 -0.15090479624E+03  0.17331328650E+03  0.17770000000E+01 0. -1.
          1    1    6    6  503    0 -0.92635891648E+02 -0.73382741399E+02  0.13087805445E+02  0.11890216906E+03  0.00000000000E+00 0. -1.
         -1    1    6    6    0  503 -0.49636585845E+02 -0.14646544166E+03 -0.21191941013E+02  0.15609296787E+03  0.00000000000E+00 0.  1.
<mgrwt>
<rscale>  0 0.78186039E+03</rscale>
<asrwt>0</asrwt>
<pdfrwt beam="1">  1        2 0.39988352E+00 0.78186039E+03</pdfrwt>
<pdfrwt beam="2">  1       -2 0.46749864E-01 0.78186039E+03</pdfrwt>
<totfact> 0.13805606E+01</totfact>
</mgrwt>
</event>
<event>
12    1  0.7781383E-008  0.8187997E+03  0.7818608E-02  0.9533197E-01
         -2   -1    0    0    0  501 -0.00000000000E+00  0.00000000000E+00  0.49077035388E+03  0.49077035388E+03  0.00000000000E+00 0.  1.
          2   -1    0    0  501    0  0.00000000000E+00 -0.00000000000E+00 -0.20994161045E+04  0.20994161045E+04  0.00000000000E+00 0. -1.
         23    2    1    2    0    0 -0.60733011725E+03 -0.37885878528E+03 -0.14811588442E+04  0.16475662119E+04  0.90879317450E+02 0.  0.
    5000000    2    1    2    0    0  0.60733011725E+03  0.37885878528E+03 -0.12748690640E+03  0.94262024645E+03  0.59991346644E+03 0.  0.
         23    2    4    4    0    0  0.24090475033E+03  0.47259048321E+03 -0.18990296401E+02  0.53855971824E+03  0.91154128856E+02 0.  0.
         23    2    4    4    0    0  0.36642536692E+03 -0.93731697923E+02 -0.10849661000E+03  0.40406052821E+03  0.91870644697E+02 0.  0.
          3    1    3    3  502    0 -0.73973392655E+02 -0.57501399757E+02 -0.13455608135E+03  0.16396283976E+03  0.00000000000E+00 0. -1.
         -3    1    3    3    0  502 -0.53335672459E+03 -0.32135738553E+03 -0.13466027629E+04  0.14836033722E+04  0.00000000000E+00 0.  1.
         15    1    5    5    0    0  0.12024362680E+03  0.31301275465E+03  0.14860703310E+02  0.33564789973E+03  0.17770000000E+01 0.  1.
        -15    1    5    5    0    0  0.12066112353E+03  0.15957772855E+03 -0.33850999711E+02  0.20291181851E+03  0.17770000000E+01 0. -1.
          1    1    6    6  503    0  0.26513545860E+03 -0.31620803852E+02 -0.99327450966E+02  0.28489055646E+03  0.00000000000E+00 0. -1.
         -1    1    6    6    0  503  0.10128990832E+03 -0.62110894071E+02 -0.91691590301E+01  0.11916997175E+03  0.00000000000E+00 0.  1.
<mgrwt>
<rscale>  0 0.81879967E+03</rscale>
<asrwt>0</asrwt>
<pdfrwt beam="1">  1        2 0.32298710E+00 0.81879967E+03</pdfrwt>
<pdfrwt beam="2">  1       -2 0.75503130E-01 0.81879967E+03</pdfrwt>
<totfact> 0.95044887E+00</totfact>
</mgrwt>
</event>
<event>
12    1  0.7781383E-008  0.6000390E+03  0.7818608E-02  0.9905325E-01
         -2   -1    0    0    0  501 -0.00000000000E+00  0.00000000000E+00  0.43982734018E+03  0.43982734018E+03  0.00000000000E+00 0.  1.
          2   -1    0    0  501    0  0.00000000000E+00 -0.00000000000E+00 -0.13137593993E+04  0.13137593993E+04  0.00000000000E+00 0. -1.
         23    2    1    2    0    0 -0.35632078014E+03 -0.28215450277E+03  0.14624001786E+03  0.48579407053E+03  0.89632998081E+02 0.  0.
    5000000    2    1    2    0    0  0.35632078014E+03  0.28215450277E+03 -0.10201720769E+04  0.12677926689E+04  0.59997626871E+03 0.  0.
         23    2    4    4    0    0  0.50130622121E+03  0.13688863732E+03 -0.68330514779E+03  0.86314268947E+03  0.89793935917E+02 0.  0.
         23    2    4    4    0    0 -0.14498544107E+03  0.14526586545E+03 -0.33686692914E+03  0.40464997945E+03  0.90218225048E+02 0.  0.
          1    1    3    3  502    0 -0.28020548972E+03 -0.18231242853E+03  0.13211922835E+03  0.35945573937E+03  0.00000000000E+00 0.  1.
         -1    1    3    3    0  502 -0.76115290420E+02 -0.99842074238E+02  0.14120789511E+02  0.12633833116E+03  0.00000000000E+00 0. -1.
         15    1    5    5    0    0  0.79628571304E+02  0.55784724117E+02 -0.10936079642E+03  0.14634065169E+03  0.17770000000E+01 0. -1.
        -15    1    5    5    0    0  0.42167764991E+03  0.81103913205E+02 -0.57394435137E+03  0.71680203778E+03  0.17770000000E+01 0.  1.
          1    1    6    6  503    0 -0.10545328913E+03  0.13752634516E+03 -0.31314421967E+03  0.35790109544E+03  0.00000000000E+00 0. -1.
         -1    1    6    6    0  503 -0.39532151947E+02  0.77395202879E+01 -0.23722709471E+02  0.46748884013E+02  0.00000000000E+00 0.  1.
<mgrwt>
<rscale>  0 0.60003900E+03</rscale>
<asrwt>0</asrwt>
<pdfrwt beam="1">  1        2 0.20211683E+00 0.60003900E+03</pdfrwt>
<pdfrwt beam="2">  1       -2 0.67665746E-01 0.60003900E+03</pdfrwt>
<totfact> 0.33730752E+01</totfact>
</mgrwt>
</event>
<event>
12    1  0.9705642E-008  0.7014533E+03  0.7818608E-02  0.9714750E-01
         -1   -1    0    0    0  501 -0.00000000000E+00  0.00000000000E+00  0.40096388470E+03  0.40096388470E+03  0.00000000000E+00 0.  1.
          1   -1    0    0  501    0  0.00000000000E+00 -0.00000000000E+00 -0.20755816514E+04  0.20755816514E+04  0.00000000000E+00 0. -1.
         23    2    1    2    0    0 -0.64154063511E+03 -0.21643783214E+03 -0.14369243171E+03  0.69831175903E+03  0.92585507442E+02 0.  0.
    5000000    2    1    2    0    0  0.64154063511E+03  0.21643783214E+03 -0.15309253350E+04  0.17782337770E+04  0.59996938498E+03 0.  0.
         23    2    4    4    0    0  0.12785613855E+03  0.12833982789E+03 -0.10302949681E+04  0.10498905527E+04  0.89129948571E+02 0.  0.
         23    2    4    4    0    0  0.51368449656E+03  0.88098004247E+02 -0.50063036684E+03  0.72834322434E+03  0.90664590004E+02 0.  0.
          2    1    3    3  502    0 -0.20176648771E+03 -0.89946135850E+02 -0.81569169552E+01  0.22105781645E+03  0.00000000000E+00 0. -1.
         -2    1    3    3    0  502 -0.43977414740E+03 -0.12649169629E+03 -0.13553551476E+03  0.47725394258E+03  0.00000000000E+00 0.  1.
         15    1    5    5    0    0  0.82060996908E+01  0.55725108072E+02 -0.41914820118E+03  0.42291961414E+03  0.17770000000E+01 0.  1.
        -15    1    5    5    0    0  0.11965003886E+03  0.72614719817E+02 -0.61114676694E+03  0.62697093857E+03  0.17770000000E+01 0. -1.
          1    1    6    6  503    0  0.35224255239E+03  0.19871728910E+02 -0.35463824172E+03  0.50023792721E+03  0.00000000000E+00 0. -1.
         -1    1    6    6    0  503  0.16144194417E+03  0.68226275337E+02 -0.14599212512E+03  0.22810529713E+03  0.00000000000E+00 0.  1.
<mgrwt>
<rscale>  0 0.70145329E+03</rscale>
<asrwt>0</asrwt>
<pdfrwt beam="1">  1        1 0.31932026E+00 0.70145329E+03</pdfrwt>
<pdfrwt beam="2">  1       -1 0.61686751E-01 0.70145329E+03</pdfrwt>
<totfact> 0.74647852E+00</totfact>
</mgrwt>
</event>
<event>
12    1  0.7781383E-008  0.1549018E+04  0.7818608E-02  0.8852496E-01
         -2   -1    0    0    0  501 -0.00000000000E+00  0.00000000000E+00  0.12075949802E+04  0.12075949802E+04  0.00000000000E+00 0.  1.
          2   -1    0    0  501    0  0.00000000000E+00 -0.00000000000E+00 -0.28969141650E+04  0.28969141650E+04  0.00000000000E+00 0. -1.
         23    2    1    2    0    0 -0.38221437546E+03 -0.14871657054E+04 -0.18978297161E+04  0.24428797489E+04  0.90300456421E+02 0.  0.
    5000000    2    1    2    0    0  0.38221437546E+03  0.14871657054E+04  0.20851053125E+03  0.16616293963E+04  0.59982159428E+03 0.  0.
         23    2    4    4    0    0  0.24903515047E+03  0.46804209636E+03 -0.16700474386E+03  0.56323668504E+03  0.90901423370E+02 0.  0.
         23    2    4    4    0    0  0.13317922499E+03  0.10191236090E+04  0.37551527511E+03  0.10983927112E+04  0.95421118715E+02 0.  0.
          2    1    3    3  502    0 -0.13541614596E+03 -0.65104312228E+03 -0.77006510307E+03  0.10174453020E+04  0.00000000000E+00 0. -1.
         -2    1    3    3    0  502 -0.24679822950E+03 -0.83612258308E+03 -0.11277646130E+04  0.14254344469E+04  0.00000000000E+00 0.  1.
         15    1    5    5    0    0  0.21936221074E+03  0.38406002349E+03 -0.17065013585E+03  0.47407436942E+03  0.17770000000E+01 0. -1.
        -15    1    5    5    0    0  0.29672939731E+02  0.83982072870E+02  0.36453919911E+01  0.89162315625E+02  0.17770000000E+01 0.  1.
          1    1    6    6  503    0  0.10283840158E+03  0.93153499035E+03  0.31986710935E+03  0.99027680106E+03  0.00000000000E+00 0. -1.
         -1    1    6    6    0  503  0.30340823416E+02  0.87588618649E+02  0.55648165762E+02  0.10811591018E+03  0.00000000000E+00 0.  1.
<mgrwt>
<rscale>  0 0.15490175E+04</rscale>
<asrwt>0</asrwt>
<pdfrwt beam="1">  1        2 0.44567910E+00 0.15490175E+04</pdfrwt>
<pdfrwt beam="2">  1       -2 0.18578384E+00 0.15490175E+04</pdfrwt>
<totfact> 0.31309528E-01</totfact>
</mgrwt>
</event>
<event>
12    1  0.7781383E-008  0.1293116E+04  0.7818608E-02  0.9035042E-01
         -1   -1    0    0    0  501 -0.00000000000E+00  0.00000000000E+00  0.12823505204E+04  0.12823505204E+04  0.00000000000E+00 0.  1.
          1   -1    0    0  501    0  0.00000000000E+00 -0.00000000000E+00 -0.34259394686E+04  0.34259394686E+04  0.00000000000E+00 0. -1.
         23    2    1    2    0    0 -0.19804938048E+03 -0.12164668244E+04 -0.28930022283E+04  0.31460285179E+04  0.94965520583E+02 0.  0.
    5000000    2    1    2    0    0  0.19804938048E+03  0.12164668244E+04  0.74941328014E+03  0.15622614712E+04  0.60002128960E+03 0.  0.
         23    2    4    4    0    0 -0.19063422875E+03  0.43153446307E+03  0.17688816696E+03  0.51195923239E+03  0.90826372951E+02 0.  0.
         23    2    4    4    0    0  0.38868360923E+03  0.78493236130E+03  0.57252511318E+03  0.10503022388E+04  0.90310728562E+02 0.  0.
          4    1    3    3  502    0 -0.20651254673E+03 -0.11587916898E+04 -0.27787849915E+04  0.30177958250E+04  0.00000000000E+00 0. -1.
         -4    1    3    3    0  502  0.84631662458E+01 -0.57675134566E+02 -0.11421723683E+03  0.12823269286E+03  0.00000000000E+00 0.  1.
         15    1    5    5    0    0 -0.16431591412E+03  0.38525719454E+03  0.12379437045E+03  0.43675053459E+03  0.17770000000E+01 0. -1.
        -15    1    5    5    0    0 -0.26318314629E+02  0.46277268532E+02  0.53093796507E+02  0.75208697796E+02  0.17770000000E+01 0.  1.
          1    1    6    6  503    0  0.32584746722E+03  0.59033630646E+03  0.46672016665E+03  0.82006172974E+03  0.00000000000E+00 0. -1.
         -1    1    6    6    0  503  0.62836142015E+02  0.19459605484E+03  0.10580494653E+03  0.23024050906E+03  0.00000000000E+00 0.  1.
<mgrwt>
<rscale>  0 0.12931164E+04</rscale>
<asrwt>0</asrwt>
<pdfrwt beam="1">  1        1 0.52706761E+00 0.12931164E+04</pdfrwt>
<pdfrwt beam="2">  1       -1 0.19728469E+00 0.12931164E+04</pdfrwt>
<totfact> 0.44087104E-02</totfact>
</mgrwt>
</event>
<event>
12    1  0.7781383E-008  0.8019884E+03  0.7818608E-02  0.9557143E-01
         -2   -1    0    0    0  501 -0.00000000000E+00  0.00000000000E+00  0.26756448854E+03  0.26756448854E+03  0.00000000000E+00 0.  1.
          2   -1    0    0  501    0  0.00000000000E+00 -0.00000000000E+00 -0.34430274896E+04  0.34430274896E+04  0.00000000000E+00 0. -1.
         23    2    1    2    0    0 -0.75892829799E+03  0.23492937915E+03 -0.20897147052E+04  0.22374986856E+04  0.91262502010E+02 0.  0.
    5000000    2    1    2    0    0  0.75892829799E+03 -0.23492937915E+03 -0.10857482958E+04  0.14730932925E+04  0.59999209314E+03 0.  0.
         23    2    4    4    0    0  0.43602111714E+03 -0.13744779347E+03 -0.10151719136E+04  0.11170581617E+04  0.90766799837E+02 0.  0.
         23    2    4    4    0    0  0.32290718085E+03 -0.97481585676E+02 -0.70576382230E+02  0.35603513080E+03  0.89489002896E+02 0.  0.
          1    1    3    3  502    0 -0.56823615262E+03  0.13563283478E+03 -0.15616168921E+04  0.16673139802E+04  0.00000000000E+00 0. -1.
         -1    1    3    3    0  502 -0.19069214537E+03  0.99296544373E+02 -0.52809781319E+03  0.57018470545E+03  0.00000000000E+00 0.  1.
         15    1    5    5    0    0  0.27633843395E+03 -0.13164590281E+03 -0.68230822144E+03  0.74782433805E+03  0.17770000000E+01 0.  1.
        -15    1    5    5    0    0  0.15968268318E+03 -0.58018906589E+01 -0.33286369215E+03  0.36923382365E+03  0.17770000000E+01 0. -1.
          1    1    6    6  503    0  0.23248246879E+03 -0.54603602784E+02 -0.87897964983E+02  0.25447142076E+03  0.00000000000E+00 0. -1.
         -1    1    6    6    0  503  0.90424712060E+02 -0.42877982892E+02  0.17321582753E+02  0.10156371004E+03  0.00000000000E+00 0.  1.
<mgrwt>
<rscale>  0 0.80198842E+03</rscale>
<asrwt>0</asrwt>
<pdfrwt beam="1">  1        2 0.52969655E+00 0.80198842E+03</pdfrwt>
<pdfrwt beam="2">  1       -2 0.41163767E-01 0.80198842E+03</pdfrwt>
<totfact> 0.53293845E+00</totfact>
</mgrwt>
</event>
<event>
12    1  0.7781383E-008  0.4080297E+03  0.7818608E-02  0.1041034E+00
         -2   -1    0    0    0  501 -0.00000000000E+00  0.00000000000E+00  0.51097526939E+03  0.51097526939E+03  0.00000000000E+00 0.  1.
          2   -1    0    0  501    0  0.00000000000E+00 -0.00000000000E+00 -0.15282591530E+04  0.15282591530E+04  0.00000000000E+00 0. -1.
         23    2    1    2    0    0 -0.24965694747E+02 -0.38507842797E+03  0.32898922425E+03  0.51566154067E+03  0.93617483673E+02 0.  0.
    5000000    2    1    2    0    0  0.24965694747E+02  0.38507842797E+03 -0.13462731079E+04  0.15235728818E+04  0.59992863191E+03 0.  0.
         23    2    4    4    0    0  0.79573067109E+02  0.17845028238E+03 -0.68476061827E+02  0.22538055703E+03  0.89056432413E+02 0.  0.
         23    2    4    4    0    0 -0.54607372362E+02  0.20662814559E+03 -0.12777970461E+04  0.12981923247E+04  0.82830340852E+02 0.  0.
          3    1    3    3  502    0  0.10521661994E+02 -0.15054619877E+03  0.76379158321E+02  0.16914088554E+03  0.00000000000E+00 0. -1.
         -3    1    3    3    0  502 -0.35487356741E+02 -0.23453222920E+03  0.25261006593E+03  0.34652065512E+03  0.00000000000E+00 0.  1.
         15    1    5    5    0    0  0.71748747352E+02  0.11947557489E+03 -0.85456317011E+02  0.16348772305E+03  0.17770000000E+01 0. -1.
        -15    1    5    5    0    0  0.78243197573E+01  0.58974707493E+02  0.16980255185E+02  0.61892833985E+02  0.17770000000E+01 0.  1.
          3    1    6    6  503    0 -0.76690414124E+02  0.15688848705E+03 -0.95302196217E+03  0.96888919767E+03  0.00000000000E+00 0. -1.
         -3    1    6    6    0  503  0.22083041762E+02  0.49739658541E+02 -0.32477508390E+03  0.32930312706E+03  0.00000000000E+00 0.  1.
<mgrwt>
<rscale>  0 0.40802967E+03</rscale>
<asrwt>0</asrwt>
<pdfrwt beam="1">  1        2 0.23511679E+00 0.40802967E+03</pdfrwt>
<pdfrwt beam="2">  1       -2 0.78611581E-01 0.40802967E+03</pdfrwt>
<totfact> 0.19096503E+01</totfact>
</mgrwt>
</event>
<event>
12    1  0.7781383E-008  0.4463690E+03  0.7818608E-02  0.1028810E+00
          1   -1    0    0  501    0  0.00000000000E+00  0.00000000000E+00  0.55953331259E+03  0.55953331259E+03  0.00000000000E+00 0. -1.
         -1   -1    0    0    0  501 -0.00000000000E+00 -0.00000000000E+00 -0.38451142400E+03  0.38451142400E+03  0.00000000000E+00 0.  1.
         23    2    1    2    0    0 -0.27146962059E+02 -0.25007362023E+03 -0.90124081229E+01  0.26789231922E+03  0.91713129457E+02 0.  0.
    5000000    2    1    2    0    0  0.27146962059E+02  0.25007362023E+03  0.18403429671E+03  0.67615241737E+03  0.60003307915E+03 0.  0.
         23    2    4    4    0    0 -0.26707589661E+03  0.15604528018E+03  0.51276935537E+02  0.32663265003E+03  0.91541793360E+02 0.  0.
         23    2    4    4    0    0  0.29422285867E+03  0.94028340053E+02  0.13275736117E+03  0.34951976734E+03  0.95556954342E+02 0.  0.
          1    1    3    3  502    0  0.28553836129E+02 -0.14249897647E+03  0.80617171971E+01  0.14555504505E+03  0.00000000000E+00 0. -1.
         -1    1    3    3    0  502 -0.55700798188E+02 -0.10757464375E+03 -0.17074125320E+02  0.12233727418E+03  0.00000000000E+00 0.  1.
         15    1    5    5    0    0 -0.15637647038E+03  0.50580536434E+02 -0.29675127902E+01  0.16438964388E+03  0.17770000000E+01 0. -1.
        -15    1    5    5    0    0 -0.11069942623E+03  0.10546474374E+03  0.54244448327E+02  0.16224300614E+03  0.17770000000E+01 0.  1.
          3    1    6    6  503    0  0.66729906356E+02  0.25048700671E+02 -0.10385540638E+02  0.72029002922E+02  0.00000000000E+00 0. -1.
         -3    1    6    6    0  503  0.22749295231E+03  0.68979639382E+02  0.14314290181E+03  0.27749076442E+03  0.00000000000E+00 0.  1.
<mgrwt>
<rscale>  0 0.44636898E+03</rscale>
<asrwt>0</asrwt>
<pdfrwt beam="1">  1        1 0.86082049E-01 0.44636898E+03</pdfrwt>
<pdfrwt beam="2">  1       -1 0.59155603E-01 0.44636898E+03</pdfrwt>
<totfact> 0.11442023E+02</totfact>
</mgrwt>
</event>
<event>
12    1  0.7781383E-008  0.1314234E+04  0.7818608E-02  0.9018353E-01
          1   -1    0    0  501    0  0.00000000000E+00  0.00000000000E+00  0.15026227544E+04  0.15026227544E+04  0.00000000000E+00 0. -1.
         -1   -1    0    0    0  501 -0.00000000000E+00 -0.00000000000E+00 -0.19430499570E+04  0.19430499570E+04  0.00000000000E+00 0.  1.
         23    2    1    2    0    0  0.31711659696E+03 -0.12156894755E+04 -0.12993559092E+04  0.18097491143E+04  0.91663739366E+02 0.  0.
    5000000    2    1    2    0    0 -0.31711659696E+03  0.12156894755E+04  0.85892870659E+03  0.16359235972E+04  0.60001971297E+03 0.  0.
         23    2    4    4    0    0  0.13121619580E+03  0.47300541640E+03  0.17987832515E+03  0.53041946933E+03  0.89648132188E+02 0.  0.
         23    2    4    4    0    0 -0.44833279276E+03  0.74268405907E+03  0.67905038144E+03  0.11055041278E+04  0.91913282458E+02 0.  0.
          3    1    3    3  502    0  0.48681344025E+02 -0.29844206638E+03 -0.35217058060E+03  0.46417847654E+03  0.00000000000E+00 0. -1.
         -3    1    3    3    0  502  0.26843525294E+03 -0.91724740909E+03 -0.94718532857E+03  0.13455706377E+04  0.00000000000E+00 0.  1.
         15    1    5    5    0    0  0.64994637763E+02  0.94366732359E+02  0.41527155513E+02  0.12188948063E+03  0.17770000000E+01 0.  1.
        -15    1    5    5    0    0  0.66221558033E+02  0.37863868404E+03  0.13835116964E+03  0.40852998870E+03  0.17770000000E+01 0. -1.
          2    1    6    6  503    0 -0.65073347037E+02  0.17237730894E+03  0.16561448259E+03  0.24774308058E+03  0.00000000000E+00 0. -1.
         -2    1    6    6    0  503 -0.38325944572E+03  0.57030675013E+03  0.51343589885E+03  0.85776104726E+03  0.00000000000E+00 0.  1.
<mgrwt>
<rscale>  0 0.13142337E+04</rscale>
<asrwt>0</asrwt>
<pdfrwt beam="1">  1        1 0.23117273E+00 0.13142337E+04</pdfrwt>
<pdfrwt beam="2">  1       -1 0.29893076E+00 0.13142337E+04</pdfrwt>
<totfact> 0.21162676E-01</totfact>
</mgrwt>
</event>
<event>
12    1  0.7781383E-008  0.1218288E+04  0.7818608E-02  0.9096998E-01
         -2   -1    0    0    0  501 -0.00000000000E+00  0.00000000000E+00  0.88187491318E+03  0.88187491318E+03  0.00000000000E+00 0.  1.
          2   -1    0    0  501    0  0.00000000000E+00 -0.00000000000E+00 -0.19779956047E+04  0.19779956047E+04  0.00000000000E+00 0. -1.
         23    2    1    2    0    0  0.45641205398E+03  0.10931973891E+04 -0.95515268700E+03  0.15245248737E+04  0.92015978907E+02 0.  0.
    5000000    2    1    2    0    0 -0.45641205398E+03 -0.10931973891E+04 -0.14096800456E+03  0.13353456442E+04  0.59990292263E+03 0.  0.
         23    2    4    4    0    0 -0.16483044848E+03 -0.79498408278E+02  0.13290137792E+03  0.24172960535E+03  0.85330839580E+02 0.  0.
         23    2    4    4    0    0 -0.29158160549E+03 -0.10136989809E+04 -0.27386938248E+03  0.10936160389E+04  0.91575899364E+02 0.  0.
          3    1    3    3  502    0  0.73458068236E+02  0.24687656681E+03 -0.24188220636E+03  0.35334279218E+03  0.00000000000E+00 0. -1.
         -3    1    3    3    0  502  0.38295398574E+03  0.84632082234E+03 -0.71327048063E+03  0.11711820815E+04  0.00000000000E+00 0.  1.
         15    1    5    5    0    0 -0.89824044891E+02 -0.12253655324E+02  0.10171116922E+03  0.13626015846E+03  0.17770000000E+01 0.  1.
        -15    1    5    5    0    0 -0.75006403593E+02 -0.67244752955E+02  0.31190208694E+02  0.10546944689E+03  0.17770000000E+01 0. -1.
          1    1    6    6  503    0 -0.51193653644E+02 -0.32934006530E+03 -0.78487887236E+02  0.34241205766E+03  0.00000000000E+00 0. -1.
         -1    1    6    6    0  503 -0.24038795185E+03 -0.68435891556E+03 -0.19538149525E+03  0.75120398121E+03  0.00000000000E+00 0.  1.
<mgrwt>
<rscale>  0 0.12182879E+04</rscale>
<asrwt>0</asrwt>
<pdfrwt beam="1">  1        2 0.30430701E+00 0.12182879E+04</pdfrwt>
<pdfrwt beam="2">  1       -2 0.13567306E+00 0.12182879E+04</pdfrwt>
<totfact> 0.26034474E+00</totfact>
</mgrwt>
</event>
<event>
12    1  0.7781383E-008  0.6187027E+03  0.7818608E-02  0.9867346E-01
          1   -1    0    0  501    0  0.00000000000E+00  0.00000000000E+00  0.15261912545E+04  0.15261912545E+04  0.00000000000E+00 0. -1.
         -1   -1    0    0    0  501 -0.00000000000E+00 -0.00000000000E+00 -0.34602268902E+03  0.34602268902E+03  0.00000000000E+00 0.  1.
         23    2    1    2    0    0  0.27412577100E+03  0.42666157905E+03  0.81785156437E+02  0.52178524677E+03  0.91575054291E+02 0.  0.
    5000000    2    1    2    0    0 -0.27412577100E+03 -0.42666157905E+03  0.10983834090E+04  0.13504286968E+04  0.60002209160E+03 0.  0.
         23    2    4    4    0    0 -0.42229285069E+03 -0.36737808218E+03  0.63326228479E+03  0.85013266410E+03  0.91687066823E+02 0.  0.
         23    2    4    4    0    0  0.14816707969E+03 -0.59283496864E+02  0.46512112425E+03  0.50029603265E+03  0.92143602929E+02 0.  0.
          3    1    3    3  502    0  0.25619908866E+03  0.33489108703E+03  0.61616445744E+02  0.42612979195E+03  0.00000000000E+00 0. -1.
         -3    1    3    3    0  502  0.17926682339E+02  0.91770492018E+02  0.20168710693E+02  0.95655454816E+02  0.00000000000E+00 0.  1.
         15    1    5    5    0    0 -0.92783191286E+02 -0.91521590679E+02  0.20857678775E+03  0.24595193893E+03  0.17770000000E+01 0. -1.
        -15    1    5    5    0    0 -0.32950965940E+03 -0.27585649150E+03  0.42468549704E+03  0.60418072517E+03  0.17770000000E+01 0.  1.
          2    1    6    6  503    0  0.56986557266E+01 -0.98309576664E+01  0.15535969462E+03  0.15577469986E+03  0.00000000000E+00 0. -1.
         -2    1    6    6    0  503  0.14246842396E+03 -0.49452539198E+02  0.30976142963E+03  0.34452133279E+03  0.00000000000E+00 0.  1.
<mgrwt>
<rscale>  0 0.61870270E+03</rscale>
<asrwt>0</asrwt>
<pdfrwt beam="1">  1        1 0.23479865E+00 0.61870270E+03</pdfrwt>
<pdfrwt beam="2">  1       -1 0.53234261E-01 0.61870270E+03</pdfrwt>
<totfact> 0.23523138E+01</totfact>
</mgrwt>
</event>
<event>
12    1  0.7781383E-008  0.1042181E+04  0.7818608E-02  0.9263454E-01
          2   -1    0    0  501    0  0.00000000000E+00  0.00000000000E+00  0.30971849282E+04  0.30971849282E+04  0.00000000000E+00 0. -1.
         -2   -1    0    0    0  501 -0.00000000000E+00 -0.00000000000E+00 -0.72232916333E+03  0.72232916333E+03  0.00000000000E+00 0.  1.
         23    2    1    2    0    0 -0.15230525225E+03 -0.99620788057E+03  0.24433083163E+04  0.26446433146E+04  0.93571906690E+02 0.  0.
    5000000    2    1    2    0    0  0.15230525225E+03  0.99620788057E+03 -0.68452551393E+02  0.11748707770E+04  0.60000713299E+03 0.  0.
         23    2    4    4    0    0  0.15404200647E+03  0.97270437178E+03 -0.20498008639E+03  0.10100291452E+04  0.90880711133E+02 0.  0.
         23    2    4    4    0    0 -0.17367542178E+01  0.23503508789E+02  0.13652753500E+03  0.16484163180E+03  0.89317212908E+02 0.  0.
          2    1    3    3  502    0 -0.19830431849E+02 -0.10200709506E+03  0.33408978519E+03  0.34987809025E+03  0.00000000000E+00 0.  1.
         -2    1    3    3    0  502 -0.13247482040E+03 -0.89420078551E+03  0.21092185311E+04  0.22947652243E+04  0.00000000000E+00 0. -1.
         15    1    5    5    0    0  0.94218730151E+02  0.42788938718E+03 -0.12869674983E+03  0.45665359729E+03  0.17770000000E+01 0. -1.
        -15    1    5    5    0    0  0.59823276315E+02  0.54481498460E+03 -0.76283336561E+02  0.55337554789E+03  0.17770000000E+01 0.  1.
          1    1    6    6  503    0  0.77091358607E+01  0.55938480994E+02  0.10167915955E+03  0.11630647411E+03  0.00000000000E+00 0.  1.
         -1    1    6    6    0  503 -0.94458900785E+01 -0.32434972205E+02  0.34848375445E+02  0.48535157695E+02  0.00000000000E+00 0. -1.
<mgrwt>
<rscale>  0 0.10421814E+04</rscale>
<asrwt>0</asrwt>
<pdfrwt beam="1">  1        2 0.47648998E+00 0.10421814E+04</pdfrwt>
<pdfrwt beam="2">  1       -2 0.11112757E+00 0.10421814E+04</pdfrwt>
<totfact> 0.98218886E-01</totfact>
</mgrwt>
</event>
<event>
12    1  0.7781383E-008  0.6451340E+03  0.7818608E-02  0.9815953E-01
          1   -1    0    0  501    0  0.00000000000E+00  0.00000000000E+00  0.10495437104E+04  0.10495437104E+04  0.00000000000E+00 0. -1.
         -1   -1    0    0    0  501 -0.00000000000E+00 -0.00000000000E+00 -0.43029793629E+03  0.43029793629E+03  0.00000000000E+00 0.  1.
         23    2    1    2    0    0  0.22909756920E+03 -0.46133377564E+03  0.40155525328E+03  0.65962971952E+03  0.92467273512E+02 0.  0.
    5000000    2    1    2    0    0 -0.22909756920E+03  0.46133377564E+03  0.21769052088E+03  0.82021192722E+03  0.60003657715E+03 0.  0.
         23    2    4    4    0    0 -0.38343772128E+03  0.46662639441E+03  0.15261682916E+03  0.62941375279E+03  0.90028315504E+02 0.  0.
         23    2    4    4    0    0  0.15434015208E+03 -0.52926187676E+01  0.65073691715E+02  0.19079817443E+03  0.91216575552E+02 0.  0.
          1    1    3    3  502    0  0.78068606454E+02 -0.94932408237E+02  0.61560092669E+02  0.13746459347E+03  0.00000000000E+00 0. -1.
         -1    1    3    3    0  502  0.15102896275E+03 -0.36640136741E+03  0.33999516061E+03  0.52216512605E+03  0.00000000000E+00 0.  1.
         15    1    5    5    0    0 -0.69700905767E+02  0.12914552653E+03  0.64319850040E+02  0.16024039480E+03  0.17770000000E+01 0. -1.
        -15    1    5    5    0    0 -0.31373681552E+03  0.33748086788E+03  0.88296979125E+02  0.46917335799E+03  0.17770000000E+01 0.  1.
          4    1    6    6  503    0  0.47020054119E+02 -0.26684656875E+02  0.60690442489E+02  0.81279063795E+02  0.00000000000E+00 0. -1.
         -4    1    6    6    0  503  0.10732009796E+03  0.21392038107E+02  0.43832492259E+01  0.10951911064E+03  0.00000000000E+00 0.  1.
<mgrwt>
<rscale>  0 0.64513405E+03</rscale>
<asrwt>0</asrwt>
<pdfrwt beam="1">  1        1 0.16146826E+00 0.64513405E+03</pdfrwt>
<pdfrwt beam="2">  1       -1 0.66199682E-01 0.64513405E+03</pdfrwt>
<totfact> 0.33303013E+01</totfact>
</mgrwt>
</event>
<event>
12    1  0.7781383E-008  0.4061601E+03  0.7818608E-02  0.1041667E+00
          1   -1    0    0  501    0  0.00000000000E+00  0.00000000000E+00  0.54035658067E+03  0.54035658067E+03  0.00000000000E+00 0. -1.
         -1   -1    0    0    0  501 -0.00000000000E+00 -0.00000000000E+00 -0.50880440382E+03  0.50880440382E+03  0.00000000000E+00 0.  1.
         23    2    1    2    0    0 -0.21919152351E+03  0.12068244052E+03 -0.22651234502E+03  0.34976221443E+03  0.91741968435E+02 0.  0.
    5000000    2    1    2    0    0  0.21919152351E+03 -0.12068244052E+03  0.25806452187E+03  0.69939877006E+03  0.59996013758E+03 0.  0.
         23    2    4    4    0    0  0.37140305852E+03 -0.15616176476E+03  0.30445738606E+03  0.51236367023E+03  0.86576567273E+02 0.  0.
         23    2    4    4    0    0 -0.15221153501E+03  0.35479324234E+02 -0.46392864190E+02  0.18703509983E+03  0.91666225417E+02 0.  0.
          3    1    3    3  502    0 -0.17385520136E+02  0.13536317061E+02  0.69425018068E+01  0.23101656246E+02  0.00000000000E+00 0. -1.
         -3    1    3    3    0  502 -0.20180600337E+03  0.10714612346E+03 -0.23345484683E+03  0.32666055819E+03  0.00000000000E+00 0.  1.
         15    1    5    5    0    0  0.22666902639E+03 -0.10981025858E+03  0.13894852427E+03  0.28765776635E+03  0.17770000000E+01 0.  1.
        -15    1    5    5    0    0  0.14473403212E+03 -0.46351506175E+02  0.16550886180E+03  0.22470590389E+03  0.17770000000E+01 0. -1.
          1    1    6    6  503    0 -0.88136185134E+02  0.32020132492E+02  0.18713447374E+02  0.95621488837E+02  0.00000000000E+00 0. -1.
         -1    1    6    6    0  503 -0.64075349875E+02  0.34591917427E+01 -0.65106311564E+02  0.91413610992E+02  0.00000000000E+00 0.  1.
<mgrwt>
<rscale>  0 0.40616006E+03</rscale>
<asrwt>0</asrwt>
<pdfrwt beam="1">  1        1 0.83131782E-01 0.40616006E+03</pdfrwt>
<pdfrwt beam="2">  1       -1 0.78277600E-01 0.40616006E+03</pdfrwt>
<totfact> 0.68706096E+01</totfact>
</mgrwt>
</event>
<event>
12    1  0.7781383E-008  0.8925521E+03  0.7818608E-02  0.9434940E-01
          1   -1    0    0  501    0  0.00000000000E+00  0.00000000000E+00  0.64852270954E+03  0.64852270954E+03  0.00000000000E+00 0. -1.
         -1   -1    0    0    0  501 -0.00000000000E+00 -0.00000000000E+00 -0.16290849819E+04  0.16290849819E+04  0.00000000000E+00 0.  1.
         23    2    1    2    0    0  0.63479186575E+03 -0.54623429476E+03 -0.91731928008E+03  0.12454916332E+04  0.91881059948E+02 0.  0.
    5000000    2    1    2    0    0 -0.63479186575E+03  0.54623429476E+03 -0.63242992323E+02  0.10321160583E+04  0.59994271734E+03 0.  0.
         23    2    4    4    0    0 -0.16445638788E+03 -0.40541705319E+02  0.15203718750E+03  0.24493570032E+03  0.90491201359E+02 0.  0.
         23    2    4    4    0    0 -0.47033547787E+03  0.58677600008E+03 -0.21528017983E+03  0.78718035796E+03  0.88237317057E+02 0.  0.
          1    1    3    3  502    0  0.17574457943E+03 -0.19943944904E+03 -0.25778733835E+03  0.37029253685E+03  0.00000000000E+00 0.  1.
         -1    1    3    3    0  502  0.45904728632E+03 -0.34679484572E+03 -0.65953194173E+03  0.87519909635E+03  0.00000000000E+00 0. -1.
         15    1    5    5    0    0 -0.16663718071E+03 -0.18864300950E+02  0.12028477694E+03  0.20638652363E+03  0.17770000000E+01 0. -1.
        -15    1    5    5    0    0  0.21807928325E+01 -0.21677404369E+02  0.31752410565E+02  0.38549176687E+02  0.17770000000E+01 0.  1.
          2    1    6    6  503    0 -0.18732450674E+03  0.18799375019E+03 -0.10815348128E+03  0.28658209374E+03  0.00000000000E+00 0. -1.
         -2    1    6    6    0  503 -0.28301097113E+03  0.39878224988E+03 -0.10712669855E+03  0.50059826423E+03  0.00000000000E+00 0.  1.
<mgrwt>
<rscale>  0 0.89255207E+03</rscale>
<asrwt>0</asrwt>
<pdfrwt beam="1">  1        1 0.99772725E-01 0.89255207E+03</pdfrwt>
<pdfrwt beam="2">  1       -1 0.25062846E+00 0.89255207E+03</pdfrwt>
<totfact> 0.21583616E+00</totfact>
</mgrwt>
</event>
<event>
12    1  0.7781383E-008  0.5898278E+03  0.7818608E-02  0.9926738E-01
          2   -1    0    0  501    0  0.00000000000E+00  0.00000000000E+00  0.14138923686E+03  0.14138923686E+03  0.00000000000E+00 0. -1.
         -2   -1    0    0    0  501 -0.00000000000E+00 -0.00000000000E+00 -0.29228140893E+04  0.29228140893E+04  0.00000000000E+00 0.  1.
         23    2    1    2    0    0 -0.47588989459E+03  0.10315041741E+03 -0.13405718674E+04  0.14291537825E+04  0.90754624100E+02 0.  0.
    5000000    2    1    2    0    0  0.47588989459E+03 -0.10315041741E+03 -0.14408529850E+04  0.16350495437E+04  0.60018204365E+03 0.  0.
         23    2    4    4    0    0  0.12331049826E+03  0.18120556046E+03 -0.86116499671E+03  0.89376380162E+03  0.95747832373E+02 0.  0.
         23    2    4    4    0    0  0.35257939634E+03 -0.28435597788E+03 -0.57968798828E+03  0.74128574205E+03  0.91081473074E+02 0.  0.
          2    1    3    3  502    0 -0.12648413543E+03  0.53833423017E+02 -0.29059872299E+03  0.32147144780E+03  0.00000000000E+00 0. -1.
         -2    1    3    3    0  502 -0.34940575916E+03  0.49316994397E+02 -0.10499731444E+04  0.11076823347E+04  0.00000000000E+00 0.  1.
         15    1    5    5    0    0  0.31754616950E+01  0.58065099980E+02 -0.12672114739E+03  0.13943832442E+03  0.17770000000E+01 0.  1.
        -15    1    5    5    0    0  0.12013503656E+03  0.12314046048E+03 -0.73444384931E+03  0.75432547719E+03  0.17770000000E+01 0. -1.
          4    1    6    6  503    0  0.11761315403E+03 -0.51825890493E+02 -0.20133831567E+03  0.23886375674E+03  0.00000000000E+00 0. -1.
         -4    1    6    6    0  503  0.23496624230E+03 -0.23253008738E+03 -0.37834967261E+03  0.50242198531E+03  0.00000000000E+00 0.  1.
<mgrwt>
<rscale>  0 0.58982776E+03</rscale>
<asrwt>0</asrwt>
<pdfrwt beam="1">  1        2 0.21752191E-01 0.58982776E+03</pdfrwt>
<pdfrwt beam="2">  1       -2 0.44966368E+00 0.58982776E+03</pdfrwt>
<totfact> 0.98393141E-01</totfact>
</mgrwt>
</event>
<event>
12    1  0.7781383E-008  0.7098636E+03  0.7818608E-02  0.9700511E-01
          1   -1    0    0  501    0  0.00000000000E+00  0.00000000000E+00  0.34411049620E+03  0.34411049620E+03  0.00000000000E+00 0. -1.
         -1   -1    0    0    0  501 -0.00000000000E+00 -0.00000000000E+00 -0.15302494858E+04  0.15302494858E+04  0.00000000000E+00 0.  1.
         23    2    1    2    0    0 -0.50032447822E+03 -0.32231388542E+03 -0.42406324589E+03  0.73642041557E+03  0.90964650877E+02 0.  0.
    5000000    2    1    2    0    0  0.50032447822E+03  0.32231388542E+03 -0.76207574375E+03  0.11379395665E+04  0.59994682553E+03 0.  0.
         23    2    4    4    0    0  0.23281589405E+03 -0.15029845920E+03 -0.21768827941E+03  0.36399267700E+03  0.91157087287E+02 0.  0.
         23    2    4    4    0    0  0.26750858417E+03  0.47261234462E+03 -0.54438746434E+03  0.77394688946E+03  0.87822579545E+02 0.  0.
          1    1    3    3  502    0 -0.21400356836E+03 -0.13162028051E+03 -0.12513891157E+03  0.28067984021E+03  0.00000000000E+00 0. -1.
         -1    1    3    3    0  502 -0.28632090986E+03 -0.19069360491E+03 -0.29892433432E+03  0.45574057536E+03  0.00000000000E+00 0.  1.
         15    1    5    5    0    0  0.86625062592E+02 -0.53813850623E+02 -0.27942961954E+02  0.10575348145E+03  0.17770000000E+01 0. -1.
        -15    1    5    5    0    0  0.14619083146E+03 -0.96484608574E+02 -0.18974531745E+03  0.25823919555E+03  0.17770000000E+01 0.  1.
          1    1    6    6  503    0  0.50050529364E+02  0.15102732444E+03 -0.12389160129E+03  0.20165177184E+03  0.00000000000E+00 0. -1.
         -1    1    6    6    0  503  0.21745805481E+03  0.32158502018E+03 -0.42049586305E+03  0.57229511762E+03  0.00000000000E+00 0.  1.
<mgrwt>
<rscale>  0 0.70986356E+03</rscale>
<asrwt>0</asrwt>
<pdfrwt beam="1">  1        1 0.52940076E-01 0.70986356E+03</pdfrwt>
<pdfrwt beam="2">  1       -1 0.23542300E+00 0.70986356E+03</pdfrwt>
<totfact> 0.66325690E+00</totfact>
</mgrwt>
</event>
<event>
12    1  0.7781383E-008  0.4978278E+03  0.7818608E-02  0.1014347E+00
          2   -1    0    0  501    0  0.00000000000E+00  0.00000000000E+00  0.30941667845E+04  0.30941667845E+04  0.00000000000E+00 0.  1.
         -2   -1    0    0    0  501 -0.00000000000E+00 -0.00000000000E+00 -0.12537481488E+03  0.12537481488E+03  0.00000000000E+00 0. -1.
         23    2    1    2    0    0  0.36970175093E+03 -0.21128809445E+03  0.16832138965E+04  0.17382505602E+04  0.83570000732E+02 0.  0.
    5000000    2    1    2    0    0 -0.36970175093E+03  0.21128809445E+03  0.12855780731E+04  0.14812910392E+04  0.60015841016E+03 0.  0.
         23    2    4    4    0    0 -0.40771576560E+03  0.69351476075E+02  0.41217320843E+03  0.59068802428E+03  0.89352199350E+02 0.  0.
         23    2    4    4    0    0  0.38014014672E+02  0.14193661838E+03  0.87340486464E+03  0.89060301489E+03  0.93523278431E+02 0.  0.
          1    1    3    3  502    0  0.21964917163E+03 -0.15438770990E+03  0.92144938060E+03  0.95976574463E+03  0.00000000000E+00 0. -1.
         -1    1    3    3    0  502  0.15005257930E+03 -0.56900384559E+02  0.76176451595E+03  0.77848481557E+03  0.00000000000E+00 0.  1.
         15    1    5    5    0    0 -0.24702838285E+03  0.58830714263E+02  0.30667823325E+03  0.39816927475E+03  0.17770000000E+01 0. -1.
        -15    1    5    5    0    0 -0.16068738275E+03  0.10520761813E+02  0.10549497517E+03  0.19251874953E+03  0.17770000000E+01 0.  1.
          2    1    6    6  503    0  0.17688590161E+02  0.12188222526E+03  0.82697679761E+03  0.83609735488E+03  0.00000000000E+00 0. -1.
         -2    1    6    6    0  503  0.20325424510E+02  0.20054393116E+02  0.46428067027E+02  0.54505660005E+02  0.00000000000E+00 0.  1.
<mgrwt>
<rscale>  0 0.49782779E+03</rscale>
<asrwt>0</asrwt>
<pdfrwt beam="1">  1        2 0.47602560E+00 0.49782779E+03</pdfrwt>
<pdfrwt beam="2">  1       -2 0.19288435E-01 0.49782779E+03</pdfrwt>
<totfact> 0.38356714E+01</totfact>
</mgrwt>
</event>
<event>
12    1  0.7781383E-008  0.5575549E+03  0.7818608E-02  0.9997602E-01
          2   -1    0    0  501    0  0.00000000000E+00  0.00000000000E+00  0.11725127301E+04  0.11725127301E+04  0.00000000000E+00 0. -1.
         -2   -1    0    0    0  501 -0.00000000000E+00 -0.00000000000E+00 -0.35555809359E+03  0.35555809359E+03  0.00000000000E+00 0.  1.
         23    2    1    2    0    0 -0.19222084387E+03 -0.37663502585E+03  0.37672127774E+01  0.43257909453E+03  0.91146506312E+02 0.  0.
    5000000    2    1    2    0    0  0.19222084387E+03  0.37663502585E+03  0.81318742373E+03  0.10954917292E+04  0.60002128883E+03 0.  0.
         23    2    4    4    0    0 -0.15646368483E+03 -0.85704563574E+01  0.34924571355E+03  0.39299808292E+03  0.88997681721E+02 0.  0.
         23    2    4    4    0    0  0.34868452870E+03  0.38520548221E+03  0.46394171018E+03  0.70249364625E+03  0.91056293027E+02 0.  0.
          3    1    3    3  502    0 -0.38120641646E+02 -0.11237594115E+03 -0.36216160611E+02  0.12406911686E+03  0.00000000000E+00 0. -1.
         -3    1    3    3    0  502 -0.15410020222E+03 -0.26425908471E+03  0.39983373389E+02  0.30850997767E+03  0.00000000000E+00 0.  1.
         15    1    5    5    0    0 -0.95354487892E+02  0.16895923687E+02  0.28387038689E+03  0.29993916863E+03  0.17770000000E+01 0. -1.
        -15    1    5    5    0    0 -0.61109196940E+02 -0.25466380044E+02  0.65375326662E+02  0.93058914288E+02  0.17770000000E+01 0.  1.
          3    1    6    6  503    0  0.17543400928E+03  0.12728218759E+03  0.19523353180E+03  0.29170872258E+03  0.00000000000E+00 0. -1.
         -3    1    6    6    0  503  0.17325051941E+03  0.25792329462E+03  0.26870817838E+03  0.41078492367E+03  0.00000000000E+00 0.  1.
<mgrwt>
<rscale>  0 0.55755489E+03</rscale>
<asrwt>0</asrwt>
<pdfrwt beam="1">  1        2 0.18038657E+00 0.55755489E+03</pdfrwt>
<pdfrwt beam="2">  1       -2 0.54701246E-01 0.55755489E+03</pdfrwt>
<totfact> 0.64156157E+01</totfact>
</mgrwt>
</event>
<event>
12    1  0.7781383E-008  0.4505912E+03  0.7818608E-02  0.1027546E+00
          2   -1    0    0  501    0  0.00000000000E+00  0.00000000000E+00  0.16594824473E+04  0.16594824473E+04  0.00000000000E+00 0. -1.
         -2   -1    0    0    0  501 -0.00000000000E+00 -0.00000000000E+00 -0.13648843314E+03  0.13648843314E+03  0.00000000000E+00 0.  1.
         23    2    1    2    0    0  0.55452308061E+02  0.27162526287E+03  0.45540166917E+03  0.54096839397E+03  0.91656320585E+02 0.  0.
    5000000    2    1    2    0    0 -0.55452308061E+02 -0.27162526287E+03  0.10675923449E+04  0.12550024864E+04  0.59868404356E+03 0.  0.
         23    2    4    4    0    0  0.21739461889E+03 -0.24368564742E+03  0.76396518108E+03  0.83555457945E+03  0.88687892432E+02 0.  0.
         23    2    4    4    0    0 -0.27284692695E+03 -0.27939615449E+02  0.30362716387E+03  0.41944790696E+03  0.92309394708E+02 0.  0.
          3    1    3    3  502    0  0.30040433981E+02  0.14179375363E+02  0.48124044800E+02  0.58475687660E+02  0.00000000000E+00 0. -1.
         -3    1    3    3    0  502  0.25411874080E+02  0.25744588751E+03  0.40727762437E+03  0.48249270631E+03  0.00000000000E+00 0.  1.
         15    1    5    5    0    0  0.16052316110E+01 -0.83522714719E+01  0.13478574360E+01  0.87927046996E+01  0.17770000000E+01 0.  1.
        -15    1    5    5    0    0  0.21578938728E+03 -0.23533337595E+03  0.76261732364E+03  0.82676187475E+03  0.17770000000E+01 0. -1.
          4    1    6    6  503    0 -0.63326518528E+02 -0.33593389974E+02  0.12483413502E+03  0.14395250976E+03  0.00000000000E+00 0. -1.
         -4    1    6    6    0  503 -0.20952040843E+03  0.56537745250E+01  0.17879302885E+03  0.27549539720E+03  0.00000000000E+00 0.  1.
<mgrwt>
<rscale>  0 0.45059124E+03</rscale>
<asrwt>0</asrwt>
<pdfrwt beam="1">  1        2 0.25530498E+00 0.45059124E+03</pdfrwt>
<pdfrwt beam="2">  1       -2 0.20998222E-01 0.45059124E+03</pdfrwt>
<totfact> 0.21207139E+02</totfact>
</mgrwt>
</event>
<event>
12    1  0.7781383E-008  0.3416524E+03  0.7818608E-02  0.1066094E+00
         -2   -1    0    0    0  501 -0.00000000000E+00  0.00000000000E+00  0.28182892200E+03  0.28182892200E+03  0.00000000000E+00 0.  1.
          2   -1    0    0  501    0  0.00000000000E+00 -0.00000000000E+00 -0.76687293126E+03  0.76687293126E+03  0.00000000000E+00 0. -1.
         23    2    1    2    0    0  0.22467707394E+01  0.14413200818E+03 -0.38789629544E+03  0.42400607974E+03  0.92404198375E+02 0.  0.
    5000000    2    1    2    0    0 -0.22467707394E+01 -0.14413200818E+03 -0.97147713822E+02  0.62469577353E+03  0.60002337239E+03 0.  0.
         23    2    4    4    0    0  0.40626861797E+02  0.18154259053E+03  0.10192049546E+03  0.23165622509E+03  0.93105129563E+02 0.  0.
         23    2    4    4    0    0 -0.42873632537E+02 -0.32567459871E+03 -0.19906820929E+03  0.39303954845E+03  0.83365712899E+02 0.  0.
          1    1    3    3  502    0 -0.27490117764E+02  0.98214413192E+02 -0.16082198867E+03  0.19043500091E+03  0.00000000000E+00 0. -1.
         -1    1    3    3    0  502  0.29736888504E+02  0.45917594986E+02 -0.22707430677E+03  0.23357107882E+03  0.00000000000E+00 0.  1.
         15    1    5    5    0    0  0.28890412564E+02  0.50869419543E+02 -0.97790040890E+01  0.59339198113E+02  0.17770000000E+01 0.  1.
        -15    1    5    5    0    0  0.11736449233E+02  0.13067317098E+03  0.11169949955E+03  0.17231702697E+03  0.17770000000E+01 0. -1.
          3    1    6    6  503    0 -0.54286466693E+02 -0.13020657189E+03 -0.62375409345E+02  0.15424481684E+03  0.00000000000E+00 0. -1.
         -3    1    6    6    0  503  0.11412834157E+02 -0.19546802681E+03 -0.13669279994E+03  0.23879473161E+03  0.00000000000E+00 0.  1.
<mgrwt>
<rscale>  0 0.34165242E+03</rscale>
<asrwt>0</asrwt>
<pdfrwt beam="1">  1        2 0.11798045E+00 0.34165242E+03</pdfrwt>
<pdfrwt beam="2">  1       -2 0.43358296E-01 0.34165242E+03</pdfrwt>
<totfact> 0.19112986E+02</totfact>
</mgrwt>
</event>
<event>
12    1  0.7781383E-008  0.6568835E+03  0.7818608E-02  0.9793948E-01
          1   -1    0    0  501    0  0.00000000000E+00  0.00000000000E+00  0.93079467987E+03  0.93079467987E+03  0.00000000000E+00 0. -1.
         -1   -1    0    0    0  501 -0.00000000000E+00 -0.00000000000E+00 -0.86862192713E+03  0.86862192713E+03  0.00000000000E+00 0.  1.
         23    2    1    2    0    0  0.40231388275E+03 -0.36265756387E+03 -0.55522695317E+03  0.78226359356E+03  0.10140212717E+03 0.  0.
    5000000    2    1    2    0    0 -0.40231388275E+03  0.36265756387E+03  0.61739970591E+03  0.10171530134E+04  0.60003407154E+03 0.  0.
         23    2    4    4    0    0  0.69210976622E+02 -0.74350736709E+02  0.21080638016E+03  0.25121896943E+03  0.91397206477E+02 0.  0.
         23    2    4    4    0    0 -0.47152485937E+03  0.43700830058E+03  0.40659332575E+03  0.76593404401E+03  0.89581691485E+02 0.  0.
          4    1    3    3  502    0  0.64245935075E+02 -0.69547918493E+02 -0.15665881596E+03  0.18304763795E+03  0.00000000000E+00 0. -1.
         -4    1    3    3    0  502  0.33806794768E+03 -0.29310964537E+03 -0.39856813721E+03  0.59921595561E+03  0.00000000000E+00 0.  1.
         15    1    5    5    0    0 -0.27630280857E+01 -0.53759863761E+02  0.48531447999E+02  0.72499768619E+02  0.17770000000E+01 0. -1.
        -15    1    5    5    0    0  0.71974004708E+02 -0.20590872948E+02  0.16227493216E+03  0.17871920081E+03  0.17770000000E+01 0.  1.
          4    1    6    6  503    0 -0.25137390373E+03  0.23533117443E+03  0.16481507775E+03  0.38175071839E+03  0.00000000000E+00 0. -1.
         -4    1    6    6    0  503 -0.22015095564E+03  0.20167712615E+03  0.24177824800E+03  0.38418332562E+03  0.00000000000E+00 0.  1.
<mgrwt>
<rscale>  0 0.65688350E+03</rscale>
<asrwt>0</asrwt>
<pdfrwt beam="1">  1        1 0.14319918E+00 0.65688350E+03</pdfrwt>
<pdfrwt beam="2">  1       -1 0.13363414E+00 0.65688350E+03</pdfrwt>
<totfact> 0.85068519E+00</totfact>
</mgrwt>
</event>
<event>
12    1  0.7781383E-008  0.5891305E+03  0.7818608E-02  0.9928217E-01
         -1   -1    0    0    0  501 -0.00000000000E+00  0.00000000000E+00  0.88850920804E+03  0.88850920804E+03  0.00000000000E+00 0.  1.
          1   -1    0    0  501    0  0.00000000000E+00 -0.00000000000E+00 -0.98730833520E+03  0.98730833520E+03  0.00000000000E+00 0. -1.
         23    2    1    2    0    0  0.44007065349E+03  0.16051369957E+02  0.66904574804E+03  0.80688640019E+03  0.97589053138E+02 0.  0.
    5000000    2    1    2    0    0 -0.44007065349E+03 -0.16051369957E+02 -0.76784487520E+03  0.10689311431E+04  0.59925638059E+03 0.  0.
         23    2    4    4    0    0 -0.10460562571E+03 -0.27169345702E+03 -0.39224483721E+03  0.49665078250E+03  0.89701259308E+02 0.  0.
         23    2    4    4    0    0 -0.33546502778E+03  0.25564208706E+03 -0.37560003800E+03  0.57228036056E+03  0.92410827255E+02 0.  0.
          1    1    3    3  502    0  0.30864207205E+03 -0.11837531740E+02  0.39272029590E+03  0.49962914908E+03  0.00000000000E+00 0. -1.
         -1    1    3    3    0  502  0.13142858144E+03  0.27888901697E+02  0.27632545214E+03  0.30725725111E+03  0.00000000000E+00 0.  1.
         15    1    5    5    0    0 -0.90300777651E+02 -0.11351882321E+03 -0.20462622903E+03  0.25083023143E+03  0.17770000000E+01 0.  1.
        -15    1    5    5    0    0 -0.14304848059E+02 -0.15817463382E+03 -0.18761860818E+03  0.24582055106E+03  0.17770000000E+01 0. -1.
          4    1    6    6  503    0 -0.21080919902E+03  0.10469199471E+03 -0.18957864280E+03  0.30222672607E+03  0.00000000000E+00 0. -1.
         -4    1    6    6    0  503 -0.12465582876E+03  0.15095009236E+03 -0.18602139520E+03  0.27005363449E+03  0.00000000000E+00 0.  1.
<mgrwt>
<rscale>  0 0.58913052E+03</rscale>
<asrwt>0</asrwt>
<pdfrwt beam="1">  1        1 0.15189359E+00 0.58913052E+03</pdfrwt>
<pdfrwt beam="2">  1       -1 0.13669372E+00 0.58913052E+03</pdfrwt>
<totfact> 0.73359663E+00</totfact>
</mgrwt>
</event>
<event>
12    1  0.7781383E-008  0.1597685E+04  0.7818608E-02  0.8821971E-01
          2   -1    0    0  501    0  0.00000000000E+00  0.00000000000E+00  0.31415291277E+04  0.31415291277E+04  0.00000000000E+00 0. -1.
         -2   -1    0    0    0  501 -0.00000000000E+00 -0.00000000000E+00 -0.94555889715E+03  0.94555889715E+03  0.00000000000E+00 0.  1.
         23    2    1    2    0    0  0.12340975016E+04 -0.98074431077E+03  0.17193222707E+04  0.23343803977E+04  0.91688190380E+02 0.  0.
    5000000    2    1    2    0    0 -0.12340975016E+04  0.98074431077E+03  0.47664795978E+03  0.17527076271E+04  0.59994558247E+03 0.  0.
         23    2    4    4    0    0 -0.88715013833E+03  0.50090726041E+03  0.52927628417E+03  0.11511283539E+04  0.83783355492E+02 0.  0.
         23    2    4    4    0    0 -0.34694736324E+03  0.47983705035E+03 -0.52628324382E+02  0.60157927318E+03  0.92259490823E+02 0.  0.
          4    1    3    3  502    0  0.45669214719E+03 -0.31050316949E+03  0.62380062161E+03  0.83313093274E+03  0.00000000000E+00 0. -1.
         -4    1    3    3    0  502  0.77740535439E+03 -0.67024114128E+03  0.10955216491E+04  0.15012494650E+04  0.00000000000E+00 0.  1.
         15    1    5    5    0    0 -0.62328595097E+03  0.34716238900E+03  0.32697338566E+03  0.78480688941E+03  0.17770000000E+01 0. -1.
        -15    1    5    5    0    0 -0.26386418736E+03  0.15374487142E+03  0.20230289851E+03  0.36632146447E+03  0.17770000000E+01 0.  1.
          2    1    6    6  503    0 -0.19325712695E+03  0.19716307148E+03 -0.35579327628E+01  0.27610551019E+03  0.00000000000E+00 0. -1.
         -2    1    6    6    0  503 -0.15369023629E+03  0.28267397888E+03 -0.49070391619E+02  0.32547376299E+03  0.00000000000E+00 0.  1.
<mgrwt>
<rscale>  0 0.15976851E+04</rscale>
<asrwt>0</asrwt>
<pdfrwt beam="1">  1        2 0.48331217E+00 0.15976851E+04</pdfrwt>
<pdfrwt beam="2">  1       -2 0.14547060E+00 0.15976851E+04</pdfrwt>
<totfact> 0.43190197E-01</totfact>
</mgrwt>
</event>
<event>
12    1  0.7781383E-008  0.1174286E+04  0.7818608E-02  0.9135667E-01
         -1   -1    0    0    0  501 -0.00000000000E+00  0.00000000000E+00  0.97381012414E+03  0.97381012414E+03  0.00000000000E+00 0.  1.
          1   -1    0    0  501    0  0.00000000000E+00 -0.00000000000E+00 -0.15199882268E+04  0.15199882268E+04  0.00000000000E+00 0. -1.
         23    2    1    2    0    0  0.89326194909E+03 -0.65242859877E+03 -0.54125454261E+03  0.12353022389E+04  0.97134727701E+02 0.  0.
    5000000    2    1    2    0    0 -0.89326194909E+03  0.65242859877E+03 -0.49235600387E+01  0.12584961120E+04  0.60017350523E+03 0.  0.
         23    2    4    4    0    0 -0.24595672069E+03 -0.68718456619E+02  0.76766540551E+02  0.28176326198E+03  0.90997248958E+02 0.  0.
         23    2    4    4    0    0 -0.64730522840E+03  0.72114705539E+03 -0.81690100590E+02  0.97673285006E+03  0.90976115760E+02 0.  0.
          4    1    3    3  502    0  0.18650697989E+03 -0.15615193423E+03 -0.78857651271E+02  0.25570844584E+03  0.00000000000E+00 0. -1.
         -4    1    3    3    0  502  0.70675496920E+03 -0.49627666454E+03 -0.46239689134E+03  0.97959379305E+03  0.00000000000E+00 0.  1.
         15    1    5    5    0    0 -0.16656931106E+03 -0.50032504597E+01  0.28427955911E+02  0.16906115553E+03  0.17770000000E+01 0. -1.
        -15    1    5    5    0    0 -0.79387409632E+02 -0.63715206159E+02  0.48338584640E+02  0.11270210645E+03  0.17770000000E+01 0.  1.
          2    1    6    6  503    0 -0.20078423258E+03  0.28877484784E+03 -0.25197438795E+02  0.35261896109E+03  0.00000000000E+00 0.  1.
         -2    1    6    6    0  503 -0.44652099582E+03  0.43237220755E+03 -0.56492661795E+02  0.62411388897E+03  0.00000000000E+00 0. -1.
<mgrwt>
<rscale>  0 0.11742856E+04</rscale>
<asrwt>0</asrwt>
<pdfrwt beam="1">  1        1 0.23384434E+00 0.11742856E+04</pdfrwt>
<pdfrwt beam="2">  1       -1 0.14981694E+00 0.11742856E+04</pdfrwt>
<totfact> 0.21824669E+00</totfact>
</mgrwt>
</event>
<event>
12    1  0.7781383E-008  0.5870693E+03  0.7818608E-02  0.9932602E-01
          1   -1    0    0  501    0  0.00000000000E+00  0.00000000000E+00  0.91878484935E+03  0.91878484935E+03  0.00000000000E+00 0. -1.
         -1   -1    0    0    0  501 -0.00000000000E+00 -0.00000000000E+00 -0.50573363029E+03  0.50573363029E+03  0.00000000000E+00 0.  1.
         23    2    1    2    0    0 -0.36062792350E+03  0.28068489859E+03 -0.14359509929E+03  0.48751315296E+03  0.90625660085E+02 0.  0.
    5000000    2    1    2    0    0  0.36062792350E+03 -0.28068489859E+03  0.55664631834E+03  0.93700532668E+03  0.59940582830E+03 0.  0.
         23    2    4    4    0    0  0.47812729364E+03 -0.29074835173E+03  0.54614784770E+03  0.78709124470E+03  0.89971345302E+02 0.  0.
         23    2    4    4    0    0 -0.11749937014E+03  0.10063453142E+02  0.10498470638E+02  0.14991408198E+03  0.91959985958E+02 0.  0.
          3    1    3    3  502    0 -0.27909961606E+03  0.17727209121E+03 -0.75022227195E+02  0.33904324883E+03  0.00000000000E+00 0. -1.
         -3    1    3    3    0  502 -0.81528307442E+02  0.10341280739E+03 -0.68572872090E+02  0.14846990413E+03  0.00000000000E+00 0.  1.
         15    1    5    5    0    0  0.32580860268E+03 -0.16710534428E+03  0.40110180161E+03  0.54310335541E+03  0.17770000000E+01 0. -1.
        -15    1    5    5    0    0  0.15231869096E+03 -0.12364300745E+03  0.14504604609E+03  0.24398788929E+03  0.17770000000E+01 0.  1.
          1    1    6    6  503    0 -0.11841858048E+03  0.35791555990E+02  0.10674085847E+02  0.12416896468E+03  0.00000000000E+00 0. -1.
         -1    1    6    6    0  503  0.91921033663E+00 -0.25728102848E+02 -0.17561520900E+00  0.25745117294E+02  0.00000000000E+00 0.  1.
<mgrwt>
<rscale>  0 0.58706933E+03</rscale>
<asrwt>0</asrwt>
<pdfrwt beam="1">  1        1 0.14135152E+00 0.58706933E+03</pdfrwt>
<pdfrwt beam="2">  1       -1 0.77805174E-01 0.58706933E+03</pdfrwt>
<totfact> 0.30438883E+01</totfact>
</mgrwt>
</event>
<event>
12    1  0.7781383E-008  0.2006220E+04  0.7818608E-02  0.8603718E-01
          2   -1    0    0  501    0  0.00000000000E+00  0.00000000000E+00  0.26810241782E+04  0.26810241782E+04  0.00000000000E+00 0. -1.
         -2   -1    0    0    0  501 -0.00000000000E+00 -0.00000000000E+00 -0.20916334435E+04  0.20916334435E+04  0.00000000000E+00 0.  1.
         23    2    1    2    0    0  0.19612178810E+04  0.30073023921E+03  0.15193216534E+04  0.25007045236E+04  0.91490842101E+02 0.  0.
    5000000    2    1    2    0    0 -0.19612178810E+04 -0.30073023921E+03 -0.92993091863E+03  0.22719530982E+04  0.60015424135E+03 0.  0.
         23    2    4    4    0    0 -0.73162571955E+02 -0.10437802456E+03 -0.15157053665E+03  0.21836554950E+03  0.91991041302E+02 0.  0.
         23    2    4    4    0    0 -0.18880553090E+04 -0.19635221465E+03 -0.77836038198E+03  0.20535875487E+04  0.89832587017E+02 0.  0.
          1    1    3    3  502    0  0.39906678501E+03  0.76455394157E+02  0.35431514683E+03  0.53910940398E+03  0.00000000000E+00 0.  1.
         -1    1    3    3    0  502  0.15621510960E+04  0.22427484505E+03  0.11650065066E+04  0.19615951196E+04  0.00000000000E+00 0. -1.
         15    1    5    5    0    0 -0.29863482552E+02 -0.46268592892E+02 -0.13236622566E+03  0.14337568030E+03  0.17770000000E+01 0.  1.
        -15    1    5    5    0    0 -0.43299089403E+02 -0.58109431670E+02 -0.19204310994E+02  0.74989869195E+02  0.17770000000E+01 0. -1.
          4    1    6    6  503    0 -0.13882708898E+04 -0.10443026285E+03 -0.57146289219E+03  0.15049158051E+04  0.00000000000E+00 0. -1.
         -4    1    6    6    0  503 -0.49978441921E+03 -0.91921951792E+02 -0.20689748979E+03  0.54867174357E+03  0.00000000000E+00 0.  1.
<mgrwt>
<rscale>  0 0.20062202E+04</rscale>
<asrwt>0</asrwt>
<pdfrwt beam="1">  1        2 0.41246526E+00 0.20062202E+04</pdfrwt>
<pdfrwt beam="2">  1       -2 0.32178976E+00 0.20062202E+04</pdfrwt>
<totfact> 0.56233331E-02</totfact>
</mgrwt>
</event>
<event>
12    1  0.7781383E-008  0.8932358E+03  0.7818608E-02  0.9434077E-01
          3   -1    0    0  501    0  0.00000000000E+00  0.00000000000E+00  0.87867638234E+03  0.87867638234E+03  0.00000000000E+00 0. -1.
         -3   -1    0    0    0  501 -0.00000000000E+00 -0.00000000000E+00 -0.94321842044E+03  0.94321842044E+03  0.00000000000E+00 0.  1.
         23    2    1    2    0    0  0.23774990661E+03  0.77183895080E+03  0.14182555590E+02  0.81279451568E+03  0.90406834745E+02 0.  0.
    5000000    2    1    2    0    0 -0.23774990661E+03 -0.77183895080E+03 -0.78724593689E+02  0.10091002871E+04  0.59985451879E+03 0.  0.
         23    2    4    4    0    0  0.15384287860E+03 -0.12853885547E+03 -0.11501578822E+03  0.24962725666E+03  0.94314723486E+02 0.  0.
         23    2    4    4    0    0 -0.39159278522E+03 -0.64330009533E+03  0.36291194530E+02  0.75947303044E+03  0.91117018612E+02 0.  0.
          3    1    3    3  502    0  0.71666928262E+02  0.28290133704E+03  0.45995043072E+02  0.29544011084E+03  0.00000000000E+00 0. -1.
         -3    1    3    3    0  502  0.16608297835E+03  0.48893761376E+03 -0.31812487482E+02  0.51735440484E+03  0.00000000000E+00 0.  1.
         15    1    5    5    0    0  0.16059329908E+03 -0.96771566301E+02 -0.87024190775E+02  0.20671553222E+03  0.17770000000E+01 0. -1.
        -15    1    5    5    0    0 -0.67504204749E+01 -0.31767289173E+02 -0.27991597444E+02  0.42911724440E+02  0.17770000000E+01 0.  1.
          1    1    6    6  503    0 -0.33713505543E+03 -0.60165177173E+03  0.26121310683E+02  0.69016463463E+03  0.00000000000E+00 0. -1.
         -1    1    6    6    0  503 -0.54457729783E+02 -0.41648323601E+02  0.10169883847E+02  0.69308395808E+02  0.00000000000E+00 0.  1.
<mgrwt>
<rscale>  0 0.89323583E+03</rscale>
<asrwt>0</asrwt>
<pdfrwt beam="1">  1        3 0.13518098E+00 0.89323583E+03</pdfrwt>
<pdfrwt beam="2">  1       -3 0.14511053E+00 0.89323583E+03</pdfrwt>
<totfact> 0.38006196E-01</totfact>
</mgrwt>
</event>
<event>
12    1  0.7781383E-008  0.7640058E+03  0.7818608E-02  0.9613630E-01
          2   -1    0    0  501    0  0.00000000000E+00  0.00000000000E+00  0.11929555989E+04  0.11929555989E+04  0.00000000000E+00 0.  1.
         -2   -1    0    0    0  501 -0.00000000000E+00 -0.00000000000E+00 -0.52954076969E+03  0.52954076969E+03  0.00000000000E+00 0. -1.
         23    2    1    2    0    0 -0.31343806653E+03 -0.58419044846E+03  0.13166562731E+03  0.68207995912E+03  0.91516837752E+02 0.  0.
    5000000    2    1    2    0    0  0.31343806653E+03  0.58419044846E+03  0.53174920194E+03  0.10404164095E+04  0.60015597122E+03 0.  0.
         23    2    4    4    0    0  0.65841180674E+02  0.60228777785E+03  0.27357369728E+03  0.67072023660E+03  0.89092308998E+02 0.  0.
         23    2    4    4    0    0  0.24759688585E+03 -0.18097329386E+02  0.25817550466E+03  0.36969617291E+03  0.91591144996E+02 0.  0.
          4    1    3    3  502    0 -0.16653314054E+03 -0.21690679550E+03  0.62326156205E+02  0.28047530120E+03  0.00000000000E+00 0.  1.
         -4    1    3    3    0  502 -0.14690492598E+03 -0.36728365296E+03  0.69339471100E+02  0.40160465792E+03  0.00000000000E+00 0. -1.
         15    1    5    5    0    0  0.56214418297E+02  0.27055856012E+03  0.85534916293E+02  0.28927733218E+03  0.17770000000E+01 0.  1.
        -15    1    5    5    0    0  0.96267623778E+01  0.33172921773E+03  0.18803878099E+03  0.38144290442E+03  0.17770000000E+01 0. -1.
          4    1    6    6  503    0  0.12942972747E+03  0.82437357604E+01  0.19207198955E+03  0.23175776729E+03  0.00000000000E+00 0. -1.
         -4    1    6    6    0  503  0.11816715838E+03 -0.26341065146E+02  0.66103515112E+02  0.13793840561E+03  0.00000000000E+00 0.  1.
<mgrwt>
<rscale>  0 0.76400583E+03</rscale>
<asrwt>0</asrwt>
<pdfrwt beam="1">  1        2 0.18353163E+00 0.76400583E+03</pdfrwt>
<pdfrwt beam="2">  1       -2 0.81467811E-01 0.76400583E+03</pdfrwt>
<totfact> 0.25812905E+01</totfact>
</mgrwt>
</event>
<event>
12    1  0.7781383E-008  0.1743178E+04  0.7818608E-02  0.8737114E-01
         -1   -1    0    0    0  501 -0.00000000000E+00  0.00000000000E+00  0.11234800488E+04  0.11234800488E+04  0.00000000000E+00 0.  1.
          1   -1    0    0  501    0  0.00000000000E+00 -0.00000000000E+00 -0.28478364292E+04  0.28478364292E+04  0.00000000000E+00 0. -1.
         23    2    1    2    0    0 -0.16442313672E+04 -0.44741205282E+03 -0.12133473489E+04  0.20938229567E+04  0.90600503627E+02 0.  0.
    5000000    2    1    2    0    0  0.16442313672E+04  0.44741205282E+03 -0.51100903155E+03  0.18774935213E+04  0.60014778046E+03 0.  0.
         23    2    4    4    0    0  0.16293614078E+04  0.38123018354E+03 -0.53195535971E+03  0.17582880705E+04  0.91898771785E+02 0.  0.
         23    2    4    4    0    0  0.14869959418E+02  0.66181869278E+02  0.20946328161E+02  0.11920545079E+03  0.95760301375E+02 0.  0.
          3    1    3    3  502    0 -0.12624109376E+04 -0.30581586331E+03 -0.90777945097E+03  0.15846981571E+04  0.00000000000E+00 0. -1.
         -3    1    3    3    0  502 -0.38182042962E+03 -0.14159618951E+03 -0.30556789791E+03  0.50912479963E+03  0.00000000000E+00 0.  1.
         15    1    5    5    0    0  0.34404169351E+03  0.46609825460E+02 -0.92339408018E+02  0.35925880184E+03  0.17770000000E+01 0. -1.
        -15    1    5    5    0    0  0.12853197142E+04  0.33462035808E+03 -0.43961595169E+03  0.13990292687E+04  0.17770000000E+01 0.  1.
          3    1    6    6  503    0  0.29231481685E+02  0.79843651527E+02  0.37929890465E+02  0.93102979551E+02  0.00000000000E+00 0. -1.
         -3    1    6    6    0  503 -0.14361522267E+02 -0.13661782249E+02 -0.16983562304E+02  0.26102471235E+02  0.00000000000E+00 0.  1.
<mgrwt>
<rscale>  0 0.17431781E+04</rscale>
<asrwt>0</asrwt>
<pdfrwt beam="1">  1        1 0.43812867E+00 0.17431781E+04</pdfrwt>
<pdfrwt beam="2">  1       -1 0.17284309E+00 0.17431781E+04</pdfrwt>
<totfact> 0.16667297E-01</totfact>
</mgrwt>
</event>
<event>
12    1  0.7781383E-008  0.4982677E+03  0.7818608E-02  0.1014232E+00
         -1   -1    0    0    0  501 -0.00000000000E+00  0.00000000000E+00  0.55777502325E+03  0.55777502325E+03  0.00000000000E+00 0.  1.
          1   -1    0    0  501    0  0.00000000000E+00 -0.00000000000E+00 -0.11200110019E+04  0.11200110019E+04  0.00000000000E+00 0. -1.
         23    2    1    2    0    0 -0.17563002752E+03  0.28190031804E+03  0.38026273083E+03  0.51232562286E+03  0.86971854684E+02 0.  0.
    5000000    2    1    2    0    0  0.17563002752E+03 -0.28190031804E+03 -0.94249870947E+03  0.11654604023E+04  0.59973363757E+03 0.  0.
         23    2    4    4    0    0 -0.20292381657E+03 -0.96292916294E+02 -0.23956454332E+03  0.34093023194E+03  0.91607049816E+02 0.  0.
         23    2    4    4    0    0  0.37855384409E+03 -0.18560740174E+03 -0.70293416614E+03  0.82453017033E+03  0.89333305050E+02 0.  0.
          3    1    3    3  502    0 -0.12707402432E+03  0.24380090887E+03  0.26647983592E+03  0.38288143567E+03  0.00000000000E+00 0.  1.
         -3    1    3    3    0  502 -0.48556003194E+02  0.38099409164E+02  0.11378289491E+03  0.12944418720E+03  0.00000000000E+00 0. -1.
         15    1    5    5    0    0 -0.16445640946E+03 -0.10886181042E+03 -0.22147883403E+03  0.29656843398E+03  0.17770000000E+01 0.  1.
        -15    1    5    5    0    0 -0.38467407106E+02  0.12568894121E+02 -0.18085709289E+02  0.44361797961E+02  0.17770000000E+01 0. -1.
          2    1    6    6  503    0  0.19396269663E+03 -0.83217093374E+02 -0.26846401609E+03  0.34149603255E+03  0.00000000000E+00 0.  1.
         -2    1    6    6    0  503  0.18459114746E+03 -0.10239030837E+03 -0.43447015006E+03  0.48303413778E+03  0.00000000000E+00 0. -1.
<mgrwt>
<rscale>  0 0.49826774E+03</rscale>
<asrwt>0</asrwt>
<pdfrwt beam="1">  1        1 0.17230938E+00 0.49826774E+03</pdfrwt>
<pdfrwt beam="2">  1       -1 0.85811543E-01 0.49826774E+03</pdfrwt>
<totfact> 0.17619252E+01</totfact>
</mgrwt>
</event>
<event>
12    1  0.7781383E-008  0.2327926E+03  0.7818608E-02  0.1124689E+00
         -2   -1    0    0    0  501 -0.00000000000E+00  0.00000000000E+00  0.25384738049E+03  0.25384738049E+03  0.00000000000E+00 0.  1.
          2   -1    0    0  501    0  0.00000000000E+00 -0.00000000000E+00 -0.92243575940E+03  0.92243575940E+03  0.00000000000E+00 0. -1.
         23    2    1    2    0    0  0.19180645218E+03  0.39673097126E+02  0.47819740726E+02  0.22147694597E+03  0.91660461814E+02 0.  0.
    5000000    2    1    2    0    0 -0.19180645218E+03 -0.39673097126E+02 -0.71640811964E+03  0.95480619391E+03  0.60004216878E+03 0.  0.
         23    2    4    4    0    0 -0.15928444530E+03 -0.24950368401E+02  0.43912480518E+02  0.18775188351E+03  0.85606123726E+02 0.  0.
         23    2    4    4    0    0 -0.32522006888E+02 -0.14722728725E+02 -0.76032060016E+03  0.76705431040E+03  0.94923445028E+02 0.  0.
          2    1    3    3  502    0  0.15890775387E+03  0.56822889039E+01  0.72766473334E+01  0.15917572756E+03  0.00000000000E+00 0.  1.
         -2    1    3    3    0  502  0.32898698315E+02  0.33990808222E+02  0.40543093392E+02  0.62301218417E+02  0.00000000000E+00 0. -1.
         15    1    5    5    0    0 -0.85957796454E+02 -0.26991850032E+02  0.65341480547E+02  0.11131024009E+03  0.17770000000E+01 0. -1.
        -15    1    5    5    0    0 -0.73326648842E+02  0.20414816308E+01 -0.21429000029E+02  0.76441643421E+02  0.17770000000E+01 0.  1.
          3    1    6    6  503    0 -0.28936361446E+02  0.35292129893E+02 -0.49012897747E+03  0.49224918690E+03  0.00000000000E+00 0. -1.
         -3    1    6    6    0  503 -0.35856454422E+01 -0.50014858618E+02 -0.27019162268E+03  0.27480512350E+03  0.00000000000E+00 0.  1.
<mgrwt>
<rscale>  0 0.23279264E+03</rscale>
<asrwt>0</asrwt>
<pdfrwt beam="1">  1        2 0.14191320E+00 0.23279264E+03</pdfrwt>
<pdfrwt beam="2">  1       -2 0.39053442E-01 0.23279264E+03</pdfrwt>
<totfact> 0.18633820E+02</totfact>
</mgrwt>
</event>
<event>
12    1  0.7781383E-008  0.3822140E+03  0.7818608E-02  0.1050118E+00
          1   -1    0    0  501    0  0.00000000000E+00  0.00000000000E+00  0.82482208335E+03  0.82482208335E+03  0.00000000000E+00 0. -1.
         -1   -1    0    0    0  501 -0.00000000000E+00 -0.00000000000E+00 -0.38829086798E+03  0.38829086798E+03  0.00000000000E+00 0.  1.
         23    2    1    2    0    0  0.20767244715E+03 -0.63176185745E+02  0.51867269734E+03  0.56970277962E+03  0.91764995437E+02 0.  0.
    5000000    2    1    2    0    0 -0.20767244715E+03  0.63176185745E+02 -0.82141481979E+02  0.64341017171E+03  0.60009195150E+03 0.  0.
         23    2    4    4    0    0 -0.11895335804E+03 -0.21927712786E+03 -0.17692318711E+03  0.31923752922E+03  0.91533740960E+02 0.  0.
         23    2    4    4    0    0 -0.88719089110E+02  0.28245331360E+03  0.94781705127E+02  0.32417264250E+03  0.91942261112E+02 0.  0.
          4    1    3    3  502    0  0.20765576030E+03 -0.60755632726E+02  0.43348362042E+03  0.48447931934E+03  0.00000000000E+00 0.  1.
         -4    1    3    3    0  502  0.16686847232E-01 -0.24205530190E+01  0.85189076922E+02  0.85223460281E+02  0.00000000000E+00 0. -1.
         15    1    5    5    0    0 -0.95579990774E+02 -0.18117337509E+03 -0.94800700139E+02  0.22572030692E+03  0.17770000000E+01 0. -1.
        -15    1    5    5    0    0 -0.23373367262E+02 -0.38103752768E+02 -0.82122486967E+02  0.93517222300E+02  0.17770000000E+01 0.  1.
          3    1    6    6  503    0 -0.73478388841E+02  0.23557763758E+03  0.11327392338E+03  0.27152693913E+03  0.00000000000E+00 0. -1.
         -3    1    6    6    0  503 -0.15240700269E+02  0.46875676020E+02 -0.18492218252E+02  0.52645703366E+02  0.00000000000E+00 0.  1.
<mgrwt>
<rscale>  0 0.38221395E+03</rscale>
<asrwt>0</asrwt>
<pdfrwt beam="1">  1        1 0.12689570E+00 0.38221395E+03</pdfrwt>
<pdfrwt beam="2">  1       -1 0.59737057E-01 0.38221395E+03</pdfrwt>
<totfact> 0.63884948E+01</totfact>
</mgrwt>
</event>
<event>
12    1  0.7781383E-008  0.8251038E+03  0.7818608E-02  0.9524375E-01
         -1   -1    0    0    0  501 -0.00000000000E+00  0.00000000000E+00  0.57339210478E+03  0.57339210478E+03  0.00000000000E+00 0.  1.
          1   -1    0    0  501    0  0.00000000000E+00 -0.00000000000E+00 -0.19775827222E+04  0.19775827222E+04  0.00000000000E+00 0. -1.
         23    2    1    2    0    0 -0.34052599888E+03  0.63887621634E+03 -0.14353078677E+04  0.16101832243E+04  0.91981330092E+02 0.  0.
    5000000    2    1    2    0    0  0.34052599888E+03 -0.63887621634E+03  0.31117250222E+02  0.94079160271E+03  0.59999981728E+03 0.  0.
         23    2    4    4    0    0 -0.13279182501E+03 -0.31676846455E+03 -0.36390258024E+02  0.35678793991E+03  0.89428486851E+02 0.  0.
         23    2    4    4    0    0  0.47331782389E+03 -0.32210775179E+03  0.67507508247E+02  0.58400366280E+03  0.93380128072E+02 0.  0.
          4    1    3    3  502    0 -0.24500890245E+03  0.37252066147E+03 -0.91759850859E+03  0.10201901923E+04  0.00000000000E+00 0.  1.
         -4    1    3    3    0  502 -0.95517096431E+02  0.26635555488E+03 -0.51770935909E+03  0.58999303201E+03  0.00000000000E+00 0. -1.
         15    1    5    5    0    0 -0.17906230715E+02 -0.10459065535E+02  0.14960603325E+02  0.25632060611E+02  0.17770000000E+01 0. -1.
        -15    1    5    5    0    0 -0.11488559429E+03 -0.30630939902E+03 -0.51350861350E+02  0.33115587930E+03  0.17770000000E+01 0.  1.
          2    1    6    6  503    0  0.16611367754E+03 -0.13164199910E+03  0.67847717562E+02  0.22254591115E+03  0.00000000000E+00 0. -1.
         -2    1    6    6    0  503  0.30720414635E+03 -0.19046575269E+03 -0.34020931527E+00  0.36145775165E+03  0.00000000000E+00 0.  1.
<mgrwt>
<rscale>  0 0.82510381E+03</rscale>
<asrwt>0</asrwt>
<pdfrwt beam="1">  1        1 0.30424349E+00 0.82510381E+03</pdfrwt>
<pdfrwt beam="2">  1       -1 0.88214170E-01 0.82510381E+03</pdfrwt>
<totfact> 0.40411477E+00</totfact>
</mgrwt>
</event>
<event>
12    1  0.7781383E-008  0.5293081E+03  0.7818608E-02  0.1006400E+00
          2   -1    0    0  501    0  0.00000000000E+00  0.00000000000E+00  0.12677613908E+04  0.12677613908E+04  0.00000000000E+00 0. -1.
         -2   -1    0    0    0  501 -0.00000000000E+00 -0.00000000000E+00 -0.23230651006E+03  0.23230651006E+03  0.00000000000E+00 0.  1.
         23    2    1    2    0    0  0.31979300692E+03  0.16900052156E+03  0.47546169140E+03  0.60310685557E+03  0.82736422945E+02 0.  0.
    5000000    2    1    2    0    0 -0.31979300692E+03 -0.16900052156E+03  0.55999318935E+03  0.89696104530E+03  0.60009832620E+03 0.  0.
         23    2    4    4    0    0 -0.43327623435E+03 -0.27359506170E+03  0.42510780497E+03  0.67177168286E+03  0.89319622773E+02 0.  0.
         23    2    4    4    0    0  0.11348322743E+03  0.10459454014E+03  0.13488538438E+03  0.22518936244E+03  0.93261574628E+02 0.  0.
          1    1    3    3  502    0  0.28020336047E+03  0.17500830112E+03  0.41243918624E+03  0.52843912708E+03  0.00000000000E+00 0. -1.
         -1    1    3    3    0  502  0.39589646445E+02 -0.60077795616E+01  0.63022505158E+02  0.74667728486E+02  0.00000000000E+00 0.  1.
         15    1    5    5    0    0 -0.19670536943E+03 -0.11625980275E+03  0.13351664424E+03  0.26464919443E+03  0.17770000000E+01 0. -1.
        -15    1    5    5    0    0 -0.23657086492E+03 -0.15733525895E+03  0.29159116073E+03  0.40712248843E+03  0.17770000000E+01 0.  1.
          3    1    6    6  503    0 -0.95034519127E+01  0.30636670992E+02  0.47010353962E+02  0.56911286994E+02  0.00000000000E+00 0. -1.
         -3    1    6    6    0  503  0.12298667935E+03  0.73957869144E+02  0.87875030418E+02  0.16827807545E+03  0.00000000000E+00 0.  1.
<mgrwt>
<rscale>  0 0.52930811E+03</rscale>
<asrwt>0</asrwt>
<pdfrwt beam="1">  1        2 0.19504021E+00 0.52930811E+03</pdfrwt>
<pdfrwt beam="2">  1       -2 0.35739464E-01 0.52930811E+03</pdfrwt>
<totfact> 0.13152221E+02</totfact>
</mgrwt>
</event>
<event>
12    1  0.7781383E-008  0.3608541E+03  0.7818608E-02  0.1058246E+00
          1   -1    0    0  501    0  0.00000000000E+00  0.00000000000E+00  0.12087472754E+04  0.12087472754E+04  0.00000000000E+00 0. -1.
         -1   -1    0    0    0  501 -0.00000000000E+00 -0.00000000000E+00 -0.27317650335E+03  0.27317650335E+03  0.00000000000E+00 0.  1.
         23    2    1    2    0    0  0.29602411433E+03  0.11840335320E+03  0.67877329639E+03  0.75546873433E+03  0.91379375997E+02 0.  0.
    5000000    2    1    2    0    0 -0.29602411433E+03 -0.11840335320E+03  0.25679747564E+03  0.72645504439E+03  0.60011861971E+03 0.  0.
         23    2    4    4    0    0 -0.27101451539E+03 -0.13368371039E+03 -0.12040813400E+03  0.33756608463E+03  0.90180600919E+02 0.  0.
         23    2    4    4    0    0 -0.25009598937E+02  0.15280357192E+02  0.37720560964E+03  0.38888895976E+03  0.89953219666E+02 0.  0.
          2    1    3    3  502    0  0.11625831288E+02  0.13326797448E+02  0.10536609397E+03  0.10683996088E+03  0.00000000000E+00 0. -1.
         -2    1    3    3    0  502  0.28439828304E+03  0.10507655575E+03  0.57340720242E+03  0.64862877345E+03  0.00000000000E+00 0.  1.
         15    1    5    5    0    0 -0.13246089952E+03 -0.95662088292E+02 -0.10219869027E+03  0.19273000560E+03  0.17770000000E+01 0.  1.
        -15    1    5    5    0    0 -0.13855361587E+03 -0.38021622100E+02 -0.18209443733E+02  0.14483607903E+03  0.17770000000E+01 0. -1.
          1    1    6    6  503    0  0.33711393854E+02  0.71880809568E+01  0.16487517251E+03  0.16843974915E+03  0.00000000000E+00 0. -1.
         -1    1    6    6    0  503 -0.58720992791E+02  0.80922762350E+01  0.21233043713E+03  0.22044921061E+03  0.00000000000E+00 0.  1.
<mgrwt>
<rscale>  0 0.36085409E+03</rscale>
<asrwt>0</asrwt>
<pdfrwt beam="1">  1        1 0.18596112E+00 0.36085409E+03</pdfrwt>
<pdfrwt beam="2">  1       -1 0.42027155E-01 0.36085409E+03</pdfrwt>
<totfact> 0.63319037E+01</totfact>
</mgrwt>
</event>
<event>
12    1  0.7781383E-008  0.7444661E+03  0.7818608E-02  0.9644072E-01
         -1   -1    0    0    0  501 -0.00000000000E+00  0.00000000000E+00  0.30619688685E+03  0.30619688685E+03  0.00000000000E+00 0.  1.
          1   -1    0    0  501    0  0.00000000000E+00 -0.00000000000E+00 -0.21386738792E+04  0.21386738792E+04  0.00000000000E+00 0. -1.
         23    2    1    2    0    0 -0.67439121085E+03  0.63714365619E+02 -0.56131016634E+03  0.88452282160E+03  0.91915686622E+02 0.  0.
    5000000    2    1    2    0    0  0.67439121085E+03 -0.63714365619E+02 -0.12711668260E+04  0.15603479444E+04  0.59996465107E+03 0.  0.
         23    2    4    4    0    0  0.70989096495E+03 -0.11441174410E+03 -0.81884763522E+03  0.10937368258E+04  0.93346478779E+02 0.  0.
         23    2    4    4    0    0 -0.35499754105E+02  0.50697378479E+02 -0.45231919076E+03  0.46661111862E+03  0.96451173989E+02 0.  0.
          1    1    3    3  502    0 -0.49716548062E+03  0.79402935313E+02 -0.38258317261E+03  0.63233553215E+03  0.00000000000E+00 0. -1.
         -1    1    3    3    0  502 -0.17722573022E+03 -0.15688569694E+02 -0.17872699373E+03  0.25218728945E+03  0.00000000000E+00 0.  1.
         15    1    5    5    0    0  0.27440976796E+03 -0.32074761574E+01 -0.28033883647E+03  0.39230604077E+03  0.17770000000E+01 0. -1.
        -15    1    5    5    0    0  0.43548119699E+03 -0.11120426794E+03 -0.53850879875E+03  0.70143078504E+03  0.17770000000E+01 0.  1.
          2    1    6    6  503    0 -0.17152921614E+02  0.60477498715E+02 -0.43509393186E+03  0.43961173792E+03  0.00000000000E+00 0.  1.
         -2    1    6    6    0  503 -0.18346832491E+02 -0.97801202354E+01 -0.17225258899E+02  0.26999380704E+02  0.00000000000E+00 0. -1.
<mgrwt>
<rscale>  0 0.74446607E+03</rscale>
<asrwt>0</asrwt>
<pdfrwt beam="1">  1        1 0.32902674E+00 0.74446607E+03</pdfrwt>
<pdfrwt beam="2">  1       -1 0.47107216E-01 0.74446607E+03</pdfrwt>
<totfact> 0.11297474E+01</totfact>
</mgrwt>
</event>
<event>
12    1  0.7781383E-008  0.1198694E+04  0.7818608E-02  0.9114001E-01
          2   -1    0    0  501    0  0.00000000000E+00  0.00000000000E+00  0.25128150692E+04  0.25128150692E+04  0.00000000000E+00 0. -1.
         -2   -1    0    0    0  501 -0.00000000000E+00 -0.00000000000E+00 -0.61120500877E+03  0.61120500877E+03  0.00000000000E+00 0.  1.
         23    2    1    2    0    0  0.69876362812E+03 -0.90738089847E+03  0.62730472376E+03  0.13089795510E+04  0.91134766618E+02 0.  0.
    5000000    2    1    2    0    0 -0.69876362812E+03  0.90738089847E+03  0.12743053366E+04  0.18150405269E+04  0.59908874168E+03 0.  0.
         23    2    4    4    0    0  0.44224328222E+02  0.37408107218E+02  0.98769147134E+01  0.10751724385E+03  0.90040249830E+02 0.  0.
         23    2    4    4    0    0 -0.74298795634E+03  0.86997279125E+03  0.12644284219E+04  0.17075232830E+04  0.89290353213E+02 0.  0.
          1    1    3    3  502    0  0.69864464193E+02 -0.10778345093E+03  0.40995472205E+02  0.13482931578E+03  0.00000000000E+00 0. -1.
         -1    1    3    3    0  502  0.62889916393E+03 -0.79959744754E+03  0.58630925156E+03  0.11741502353E+04  0.00000000000E+00 0.  1.
         15    1    5    5    0    0  0.13508010498E+01 -0.28211026756E+02 -0.12552028837E+01  0.28327018152E+02  0.17770000000E+01 0.  1.
        -15    1    5    5    0    0  0.42873527172E+02  0.65619133974E+02  0.11132117597E+02  0.79190225703E+02  0.17770000000E+01 0. -1.
          4    1    6    6  503    0 -0.43972295636E+03  0.48048479446E+03  0.77568606417E+03  0.10128725419E+04  0.00000000000E+00 0. -1.
         -4    1    6    6    0  503 -0.30326499998E+03  0.38948799680E+03  0.48874235775E+03  0.69465074111E+03  0.00000000000E+00 0.  1.
<mgrwt>
<rscale>  0 0.11986939E+04</rscale>
<asrwt>0</asrwt>
<pdfrwt beam="1">  1        2 0.38658693E+00 0.11986939E+04</pdfrwt>
<pdfrwt beam="2">  1       -2 0.94031541E-01 0.11986939E+04</pdfrwt>
<totfact> 0.32160240E+00</totfact>
</mgrwt>
</event>
<event>
12    1  0.7781383E-008  0.8838767E+03  0.7818608E-02  0.9445964E-01
          2   -1    0    0  501    0  0.00000000000E+00  0.00000000000E+00  0.48121079253E+04  0.48121079253E+04  0.00000000000E+00 0. -1.
         -2   -1    0    0    0  501 -0.00000000000E+00 -0.00000000000E+00 -0.16981276397E+03  0.16981276397E+03  0.00000000000E+00 0.  1.
         23    2    1    2    0    0 -0.78748295055E+03 -0.13651360450E+03  0.22386205556E+04  0.23787508285E+04  0.90929368843E+02 0.  0.
    5000000    2    1    2    0    0  0.78748295055E+03  0.13651360450E+03  0.24036746057E+04  0.26031698608E+04  0.60006362380E+03 0.  0.
         23    2    4    4    0    0  0.53799210220E+03  0.33261480434E+03  0.12668294872E+04  0.14190754316E+04  0.94074549616E+02 0.  0.
         23    2    4    4    0    0  0.24949084836E+03 -0.19610119984E+03  0.11368451185E+04  0.11840944292E+04  0.94664828963E+02 0.  0.
          3    1    3    3  502    0 -0.59760084208E+03 -0.66298621269E+02  0.16317152357E+04  0.17389700642E+04  0.00000000000E+00 0. -1.
         -3    1    3    3    0  502 -0.18988210847E+03 -0.70214983232E+02  0.60690531991E+03  0.63978076427E+03  0.00000000000E+00 0.  1.
         15    1    5    5    0    0  0.28582050161E+03  0.12361555364E+03  0.64627212435E+03  0.71738760840E+03  0.17770000000E+01 0. -1.
        -15    1    5    5    0    0  0.25217160058E+03  0.20899925070E+03  0.62055736284E+03  0.70168782321E+03  0.17770000000E+01 0.  1.
          2    1    6    6  503    0  0.81075115139E+02 -0.24586535247E+02  0.20664907728E+03  0.22334169595E+03  0.00000000000E+00 0. -1.
         -2    1    6    6    0  503  0.16841573322E+03 -0.17151466459E+03  0.93019604119E+03  0.96075273323E+03  0.00000000000E+00 0.  1.
<mgrwt>
<rscale>  0 0.88387666E+03</rscale>
<asrwt>0</asrwt>
<pdfrwt beam="1">  1        2 0.74032419E+00 0.88387666E+03</pdfrwt>
<pdfrwt beam="2">  1       -2 0.26125044E-01 0.88387666E+03</pdfrwt>
<totfact> 0.85471985E-01</totfact>
</mgrwt>
</event>
<event>
12    1  0.7781383E-008  0.7225246E+03  0.7818608E-02  0.9679469E-01
          2   -1    0    0  501    0  0.00000000000E+00  0.00000000000E+00  0.21775872649E+04  0.21775872649E+04  0.00000000000E+00 0. -1.
         -2   -1    0    0    0  501 -0.00000000000E+00 -0.00000000000E+00 -0.25889574700E+03  0.25889574700E+03  0.00000000000E+00 0.  1.
         23    2    1    2    0    0  0.81054048701E+02  0.60596530905E+03  0.58391070141E+03  0.85046672952E+03  0.92618768123E+02 0.  0.
    5000000    2    1    2    0    0 -0.81054048701E+02 -0.60596530905E+03  0.13347808165E+04  0.15860162824E+04  0.60003675330E+03 0.  0.
         23    2    4    4    0    0  0.23630431984E+03 -0.21757766192E+03  0.39212005863E+03  0.51433998254E+03  0.87222168719E+02 0.  0.
         23    2    4    4    0    0 -0.31735836854E+03 -0.38838764713E+03  0.94266075783E+03  0.10716762998E+04  0.91211231290E+02 0.  0.
          3    1    3    3  502    0  0.81400031218E+02  0.26888979389E+03  0.25180707103E+03  0.37727243122E+03  0.00000000000E+00 0. -1.
         -3    1    3    3    0  502 -0.34598251715E+00  0.33707551516E+03  0.33210363039E+03  0.47319429829E+03  0.00000000000E+00 0.  1.
         15    1    5    5    0    0  0.88880053077E+02 -0.11140203148E+03  0.23138569526E+03  0.27175830098E+03  0.17770000000E+01 0. -1.
        -15    1    5    5    0    0  0.14742426676E+03 -0.10617563044E+03  0.16073436337E+03  0.24258168156E+03  0.17770000000E+01 0.  1.
          2    1    6    6  503    0 -0.24535544458E+03 -0.27541280856E+03  0.60718735862E+03  0.71044211430E+03  0.00000000000E+00 0. -1.
         -2    1    6    6    0  503 -0.72002923958E+02 -0.11297483857E+03  0.33547339921E+03  0.36123418552E+03  0.00000000000E+00 0.  1.
<mgrwt>
<rscale>  0 0.72252457E+03</rscale>
<asrwt>0</asrwt>
<pdfrwt beam="1">  1        2 0.33501341E+00 0.72252457E+03</pdfrwt>
<pdfrwt beam="2">  1       -2 0.39830116E-01 0.72252457E+03</pdfrwt>
<totfact> 0.32957677E+01</totfact>
</mgrwt>
</event>
<event>
12    1  0.7781383E-008  0.1770193E+04  0.7818608E-02  0.8722313E-01
         -1   -1    0    0    0  501 -0.00000000000E+00  0.00000000000E+00  0.32885029230E+04  0.32885029230E+04  0.00000000000E+00 0.  1.
          1   -1    0    0  501    0  0.00000000000E+00 -0.00000000000E+00 -0.10982509314E+04  0.10982509314E+04  0.00000000000E+00 0. -1.
         23    2    1    2    0    0 -0.10600614281E+04 -0.14072125398E+04  0.41013051833E+03  0.18112690230E+04  0.92255450411E+02 0.  0.
    5000000    2    1    2    0    0  0.10600614281E+04  0.14072125398E+04  0.17801214733E+04  0.25754848314E+04  0.60026018846E+03 0.  0.
         23    2    4    4    0    0  0.74714229459E+03  0.11174621666E+04  0.16280826872E+04  0.21132220989E+04  0.90061647993E+02 0.  0.
         23    2    4    4    0    0  0.31291913349E+03  0.28975037320E+03  0.15203878604E+03  0.46226273258E+03  0.93259737296E+02 0.  0.
          3    1    3    3  502    0 -0.69317088597E+03 -0.99070064935E+03  0.27512967346E+03  0.12400282219E+04  0.00000000000E+00 0. -1.
         -3    1    3    3    0  502 -0.36689054211E+03 -0.41651189048E+03  0.13500084487E+03  0.57124080117E+03  0.00000000000E+00 0.  1.
         15    1    5    5    0    0  0.60052963648E+03  0.83502258087E+03  0.12194796706E+04  0.15953157617E+04  0.17770000000E+01 0. -1.
        -15    1    5    5    0    0  0.14661265811E+03  0.28243958576E+03  0.40860301665E+03  0.51790633716E+03  0.17770000000E+01 0.  1.
          4    1    6    6  503    0  0.11498198618E+02  0.24758095745E+00 -0.87683252638E+01  0.14462136624E+02  0.00000000000E+00 0.  1.
         -4    1    6    6    0  503  0.30142093487E+03  0.28950279224E+03  0.16080711130E+03  0.44780059596E+03  0.00000000000E+00 0. -1.
<mgrwt>
<rscale>  0 0.17701931E+04</rscale>
<asrwt>0</asrwt>
<pdfrwt beam="1">  1        1 0.16896168E+00 0.17701931E+04</pdfrwt>
<pdfrwt beam="2">  1       -1 0.50592352E+00 0.17701931E+04</pdfrwt>
<totfact> 0.15848608E-02</totfact>
</mgrwt>
</event>
<event>
12    1  0.7781383E-008  0.7318326E+03  0.7818608E-02  0.9664291E-01
          2   -1    0    0  501    0  0.00000000000E+00  0.00000000000E+00  0.21037088169E+04  0.21037088169E+04  0.00000000000E+00 0.  1.
         -2   -1    0    0    0  501 -0.00000000000E+00 -0.00000000000E+00 -0.28901488404E+03  0.28901488404E+03  0.00000000000E+00 0. -1.
         23    2    1    2    0    0 -0.65293289228E+03  0.34815445650E+02  0.63877169924E+03  0.91951946026E+03  0.99766111348E+02 0.  0.
    5000000    2    1    2    0    0  0.65293289228E+03 -0.34815445650E+02  0.11759222336E+04  0.14732042406E+04  0.60000346512E+03 0.  0.
         23    2    4    4    0    0  0.43714966568E+03  0.19721725631E+03  0.96785334638E+03  0.10841793276E+04  0.93328655254E+02 0.  0.
         23    2    4    4    0    0  0.21578322660E+03 -0.23203270196E+03  0.20806888720E+03  0.38902491305E+03  0.87442240890E+02 0.  0.
          2    1    3    3  502    0 -0.87703104443E+02 -0.21349960698E+02  0.12078680276E+03  0.15078828559E+03  0.00000000000E+00 0. -1.
         -2    1    3    3    0  502 -0.56522978784E+03  0.56165406349E+02  0.51798489648E+03  0.76873117467E+03  0.00000000000E+00 0.  1.
         15    1    5    5    0    0  0.18732445578E+03  0.50083320487E+02  0.46346549435E+03  0.50239646984E+03  0.17770000000E+01 0.  1.
        -15    1    5    5    0    0  0.24982520990E+03  0.14713393583E+03  0.50438785203E+03  0.58178285775E+03  0.17770000000E+01 0. -1.
          3    1    6    6  503    0  0.97530828059E+02 -0.66260901086E+02  0.11650206523E+03  0.16575735470E+03  0.00000000000E+00 0. -1.
         -3    1    6    6    0  503  0.11825239854E+03 -0.16577180088E+03  0.91566821975E+02  0.22326755836E+03  0.00000000000E+00 0.  1.
<mgrwt>
<rscale>  0 0.73183259E+03</rscale>
<asrwt>0</asrwt>
<pdfrwt beam="1">  1        2 0.32364750E+00 0.73183259E+03</pdfrwt>
<pdfrwt beam="2">  1       -2 0.44463830E-01 0.73183259E+03</pdfrwt>
<totfact> 0.29099006E+01</totfact>
</mgrwt>
</event>
<event>
12    1  0.7781383E-008  0.5902376E+03  0.7818608E-02  0.9925869E-01
          1   -1    0    0  501    0  0.00000000000E+00  0.00000000000E+00  0.15236821022E+04  0.15236821022E+04  0.00000000000E+00 0. -1.
         -1   -1    0    0    0  501 -0.00000000000E+00 -0.00000000000E+00 -0.31318056537E+03  0.31318056537E+03  0.00000000000E+00 0.  1.
         23    2    1    2    0    0 -0.12568337769E+03  0.54104318784E+03  0.53206969939E+03  0.77444488305E+03  0.90236740521E+02 0.  0.
    5000000    2    1    2    0    0  0.12568337769E+03 -0.54104318784E+03  0.67843183745E+03  0.10624177845E+04  0.59994812132E+03 0.  0.
         23    2    4    4    0    0  0.11498021604E+03 -0.82962327874E+02 -0.67967486435E+02  0.18171124999E+03  0.91083484959E+02 0.  0.
         23    2    4    4    0    0  0.10703161652E+02 -0.45808085997E+03  0.74639932389E+03  0.88070653455E+03  0.92625144257E+02 0.  0.
          2    1    3    3  502    0 -0.24951076954E+02  0.12304085628E+03  0.71969948462E+02  0.14471102942E+03  0.00000000000E+00 0. -1.
         -2    1    3    3    0  502 -0.10073230074E+03  0.41800233157E+03  0.46009975093E+03  0.62973385363E+03  0.00000000000E+00 0.  1.
         15    1    5    5    0    0  0.94956011069E+02 -0.15358805960E+02 -0.26070203122E+02  0.99676226747E+02  0.17770000000E+01 0. -1.
        -15    1    5    5    0    0  0.20024204972E+02 -0.67603521914E+02 -0.41897283313E+02  0.82035023240E+02  0.17770000000E+01 0.  1.
          1    1    6    6  503    0  0.25324161363E+01 -0.19902172512E+03  0.41256398043E+03  0.45806669618E+03  0.00000000000E+00 0. -1.
         -1    1    6    6    0  503  0.81707455155E+01 -0.25905913485E+03  0.33383534346E+03  0.42263983837E+03  0.00000000000E+00 0.  1.
<mgrwt>
<rscale>  0 0.59023763E+03</rscale>
<asrwt>0</asrwt>
<pdfrwt beam="1">  1        1 0.23441263E+00 0.59023763E+03</pdfrwt>
<pdfrwt beam="2">  1       -1 0.48181626E-01 0.59023763E+03</pdfrwt>
<totfact> 0.28645878E+01</totfact>
</mgrwt>
</event>
<event>
12    1  0.7781383E-008  0.4386261E+03  0.7818608E-02  0.1031169E+00
          2   -1    0    0  501    0  0.00000000000E+00  0.00000000000E+00  0.13088696768E+04  0.13088696768E+04  0.00000000000E+00 0. -1.
         -2   -1    0    0    0  501 -0.00000000000E+00 -0.00000000000E+00 -0.26423418833E+03  0.26423418833E+03  0.00000000000E+00 0.  1.
         23    2    1    2    0    0 -0.36824003489E+03 -0.10530294421E+03  0.12872660023E+03  0.41311238562E+03  0.86034133868E+02 0.  0.
    5000000    2    1    2    0    0  0.36824003489E+03  0.10530294421E+03  0.91590888827E+03  0.11599914795E+04  0.60000142303E+03 0.  0.
         23    2    4    4    0    0  0.34709659356E+03  0.53693929222E+01  0.16232011062E+03  0.39404163993E+03  0.91739413829E+02 0.  0.
         23    2    4    4    0    0  0.21143441334E+02  0.99933551288E+02  0.75358877766E+03  0.76594983961E+03  0.91374784328E+02 0.  0.
          1    1    3    3  502    0 -0.16800680889E+03 -0.22302634389E+02  0.93354369843E+02  0.19349091375E+03  0.00000000000E+00 0. -1.
         -1    1    3    3    0  502 -0.20023322600E+03 -0.83000309822E+02  0.35372230388E+02  0.21962147187E+03  0.00000000000E+00 0.  1.
         15    1    5    5    0    0  0.25238721604E+03 -0.28210094330E+02  0.87019366861E+02  0.26845976268E+03  0.17770000000E+01 0. -1.
        -15    1    5    5    0    0  0.94709377522E+02  0.33579487253E+02  0.75300743758E+02  0.12558187725E+03  0.17770000000E+01 0.  1.
          1    1    6    6  503    0 -0.30222138130E+02  0.71988603445E+02  0.46286830760E+03  0.46940686706E+03  0.00000000000E+00 0. -1.
         -1    1    6    6    0  503  0.51365579465E+02  0.27944947844E+02  0.29072047005E+03  0.29654297255E+03  0.00000000000E+00 0.  1.
<mgrwt>
<rscale>  0 0.43862606E+03</rscale>
<asrwt>0</asrwt>
<pdfrwt beam="1">  1        2 0.20136456E+00 0.43862606E+03</pdfrwt>
<pdfrwt beam="2">  1       -2 0.40651414E-01 0.43862606E+03</pdfrwt>
<totfact> 0.98442494E+01</totfact>
</mgrwt>
</event>
<event>
12    1  0.7781383E-008  0.1606577E+04  0.7818608E-02  0.8816518E-01
          2   -1    0    0  501    0  0.00000000000E+00  0.00000000000E+00  0.29361970426E+04  0.29361970426E+04  0.00000000000E+00 0.  1.
         -2   -1    0    0    0  501 -0.00000000000E+00 -0.00000000000E+00 -0.94018748857E+03  0.94018748857E+03  0.00000000000E+00 0. -1.
         23    2    1    2    0    0  0.29537180506E+03 -0.15283869601E+04  0.14269179422E+04  0.21136692049E+04  0.91057623804E+02 0.  0.
    5000000    2    1    2    0    0 -0.29537180506E+03  0.15283869601E+04  0.56909161186E+03  0.17627153263E+04  0.60007404205E+03 0.  0.
         23    2    4    4    0    0  0.47369704387E+02  0.10740939094E+04  0.26413317983E+03  0.11107739885E+04  0.90171512898E+02 0.  0.
         23    2    4    4    0    0 -0.34274150945E+03  0.45429305067E+03  0.30495843203E+03  0.65194133780E+03  0.90409869338E+02 0.  0.
          4    1    3    3  502    0  0.25125174335E+03 -0.11067180076E+04  0.10618939848E+04  0.15542107392E+04  0.00000000000E+00 0. -1.
         -4    1    3    3    0  502  0.44120061708E+02 -0.42166895247E+03  0.36502395740E+03  0.55945846566E+03  0.00000000000E+00 0.  1.
         15    1    5    5    0    0  0.65766748071E+02  0.54921419688E+03  0.11748855186E+03  0.56548051846E+03  0.17770000000E+01 0.  1.
        -15    1    5    5    0    0 -0.18397043684E+02  0.52487971254E+03  0.14664462797E+03  0.54529347006E+03  0.17770000000E+01 0. -1.
          3    1    6    6  503    0 -0.98052982209E+02  0.20176573655E+03  0.12836780304E+03  0.25846100794E+03  0.00000000000E+00 0. -1.
         -3    1    6    6    0  503 -0.24468852724E+03  0.25252731412E+03  0.17659062899E+03  0.39348032986E+03  0.00000000000E+00 0.  1.
<mgrwt>
<rscale>  0 0.16065772E+04</rscale>
<asrwt>0</asrwt>
<pdfrwt beam="1">  1        2 0.45172262E+00 0.16065772E+04</pdfrwt>
<pdfrwt beam="2">  1       -2 0.14464423E+00 0.16065772E+04</pdfrwt>
<totfact> 0.58987883E-01</totfact>
</mgrwt>
</event>
<event>
12    1  0.7781383E-008  0.3244919E+04  0.7818608E-02  0.8177054E-01
         -2   -1    0    0    0  501 -0.00000000000E+00  0.00000000000E+00  0.25409895837E+04  0.25409895837E+04  0.00000000000E+00 0. -1.
          2   -1    0    0  501    0  0.00000000000E+00 -0.00000000000E+00 -0.41998150467E+04  0.41998150467E+04  0.00000000000E+00 0.  1.
         23    2    1    2    0    0  0.21238117542E+04 -0.24267815231E+04 -0.51722197525E+03  0.32676188291E+04  0.99846445994E+02 0.  0.
    5000000    2    1    2    0    0 -0.21238117542E+04  0.24267815231E+04 -0.11416034877E+04  0.34731858013E+04  0.59993012836E+03 0.  0.
         23    2    4    4    0    0 -0.80961429140E+03  0.58381299926E+03 -0.49075693900E+03  0.11160890902E+04  0.92193086176E+02 0.  0.
         23    2    4    4    0    0 -0.13141974628E+04  0.18429685239E+04 -0.65084654875E+03  0.23570967111E+04  0.93036145275E+02 0.  0.
          3    1    3    3  502    0  0.74595405706E+03 -0.78922421958E+03 -0.19670027952E+03  0.11036364093E+04  0.00000000000E+00 0. -1.
         -3    1    3    3    0  502  0.13778576971E+04 -0.16375573035E+04 -0.32052169573E+03  0.21639824198E+04  0.00000000000E+00 0.  1.
         15    1    5    5    0    0 -0.28049038271E+03  0.19112797462E+03 -0.11993022271E+03  0.35998774079E+03  0.17770000000E+01 0.  1.
        -15    1    5    5    0    0 -0.52912390869E+03  0.39268502464E+03 -0.37082671629E+03  0.75610134941E+03  0.17770000000E+01 0. -1.
          1    1    6    6  503    0 -0.86819794636E+03  0.12909722418E+04 -0.45377594268E+03  0.16205831078E+04  0.00000000000E+00 0. -1.
         -1    1    6    6    0  503 -0.44599951641E+03  0.55199628210E+03 -0.19707060607E+03  0.73651360332E+03  0.00000000000E+00 0.  1.
<mgrwt>
<rscale>  0 0.32449191E+04</rscale>
<asrwt>0</asrwt>
<pdfrwt beam="1">  1        2 0.64612538E+00 0.32449191E+04</pdfrwt>
<pdfrwt beam="2">  1       -2 0.39092148E+00 0.32449191E+04</pdfrwt>
<totfact> 0.15284369E-03</totfact>
</mgrwt>
</event>
<event>
12    1  0.7781383E-008  0.1069420E+04  0.7818608E-02  0.9235521E-01
          1   -1    0    0  501    0  0.00000000000E+00  0.00000000000E+00  0.61480525234E+03  0.61480525234E+03  0.00000000000E+00 0. -1.
         -1   -1    0    0    0  501 -0.00000000000E+00 -0.00000000000E+00 -0.37515278128E+04  0.37515278128E+04  0.00000000000E+00 0.  1.
         23    2    1    2    0    0  0.78159601213E+02  0.99295863136E+03  0.21590377652E+02  0.10007931188E+04  0.95104970870E+02 0.  0.
    5000000    2    1    2    0    0 -0.78159601213E+02 -0.99295863136E+03 -0.31583129381E+04  0.33655399463E+04  0.59986894246E+03 0.  0.
         23    2    4    4    0    0 -0.30862482775E+03 -0.44648341456E+03 -0.12689684713E+04  0.13832018906E+04  0.91486420746E+02 0.  0.
         23    2    4    4    0    0  0.23046522653E+03 -0.54647521679E+03 -0.18893444668E+04  0.19823380557E+04  0.91061899761E+02 0.  0.
          1    1    3    3  502    0  0.90907111289E+02  0.62034555014E+03 -0.53014620936E+01  0.62699346883E+03  0.00000000000E+00 0. -1.
         -1    1    3    3    0  502 -0.12747510076E+02  0.37261308122E+03  0.26891839745E+02  0.37379965002E+03  0.00000000000E+00 0.  1.
         15    1    5    5    0    0 -0.27025808444E+03 -0.38631614034E+03 -0.10108030218E+04  0.11153499447E+04  0.17770000000E+01 0. -1.
        -15    1    5    5    0    0 -0.38366743306E+02 -0.60167274227E+02 -0.25816544951E+03  0.26785194592E+03  0.17770000000E+01 0.  1.
          3    1    6    6  503    0  0.19937236540E+03 -0.40598883021E+03 -0.13309868902E+04  0.14057390840E+04  0.00000000000E+00 0. -1.
         -3    1    6    6    0  503  0.31092861131E+02 -0.14048638658E+03 -0.55835757659E+03  0.57659897170E+03  0.00000000000E+00 0.  1.
<mgrwt>
<rscale>  0 0.10694195E+04</rscale>
<asrwt>0</asrwt>
<pdfrwt beam="1">  1        1 0.94585424E-01 0.10694195E+04</pdfrwt>
<pdfrwt beam="2">  1       -1 0.57715812E+00 0.10694195E+04</pdfrwt>
<totfact> 0.17890666E-02</totfact>
</mgrwt>
</event>
<event>
12    1  0.7781383E-008  0.9764511E+03  0.7818608E-02  0.9334757E-01
          1   -1    0    0  501    0  0.00000000000E+00  0.00000000000E+00  0.43934741032E+03  0.43934741032E+03  0.00000000000E+00 0. -1.
         -1   -1    0    0    0  501 -0.00000000000E+00 -0.00000000000E+00 -0.39529740353E+04  0.39529740353E+04  0.00000000000E+00 0.  1.
         23    2    1    2    0    0 -0.66020293047E+03  0.59564000360E+03 -0.20858230295E+03  0.91752226045E+03  0.87667542659E+02 0.  0.
    5000000    2    1    2    0    0  0.66020293047E+03 -0.59564000360E+03 -0.33050443220E+04  0.34747991851E+04  0.60021369809E+03 0.  0.
         23    2    4    4    0    0  0.47783247573E+03 -0.61920086854E+02 -0.12752598807E+04  0.13661503625E+04  0.89000436631E+02 0.  0.
         23    2    4    4    0    0  0.18237045474E+03 -0.53371991674E+03 -0.20297844413E+04  0.21086488226E+04  0.90879296956E+02 0.  0.
          4    1    3    3  502    0 -0.29933998137E+03  0.22095027920E+03 -0.63197358076E+02  0.37738224175E+03  0.00000000000E+00 0. -1.
         -4    1    3    3    0  502 -0.36086294910E+03  0.37468972440E+03 -0.14538494487E+03  0.54014001870E+03  0.00000000000E+00 0.  1.
         15    1    5    5    0    0  0.14961425608E+03 -0.61241368908E+02 -0.43268643071E+03  0.46190435800E+03  0.17770000000E+01 0.  1.
        -15    1    5    5    0    0  0.32821821966E+03 -0.67871794625E+00 -0.84257344995E+03  0.90424600451E+03  0.17770000000E+01 0. -1.
          1    1    6    6  503    0  0.12171962804E+03 -0.22198099969E+03 -0.94633901925E+03  0.97961664514E+03  0.00000000000E+00 0. -1.
         -1    1    6    6    0  503  0.60650826700E+02 -0.31173891706E+03 -0.10834454221E+04  0.11290321775E+04  0.00000000000E+00 0.  1.
<mgrwt>
<rscale>  0 0.97645114E+03</rscale>
<asrwt>0</asrwt>
<pdfrwt beam="1">  1        1 0.67591911E-01 0.97645114E+03</pdfrwt>
<pdfrwt beam="2">  1       -1 0.60814984E+00 0.97645114E+03</pdfrwt>
<totfact> 0.21460444E-02</totfact>
</mgrwt>
</event>
<event>
12    1  0.7781383E-008  0.5435386E+03  0.7818608E-02  0.1003001E+00
         -2   -1    0    0    0  501 -0.00000000000E+00  0.00000000000E+00  0.27896632659E+03  0.27896632659E+03  0.00000000000E+00 0.  1.
          2   -1    0    0  501    0  0.00000000000E+00 -0.00000000000E+00 -0.24002556106E+04  0.24002556106E+04  0.00000000000E+00 0. -1.
         23    2    1    2    0    0  0.46533073133E+03 -0.46716589533E+02 -0.17850162344E+04  0.18474835171E+04  0.90538717726E+02 0.  0.
    5000000    2    1    2    0    0 -0.46533073133E+03  0.46716589533E+02 -0.33627304958E+03  0.83173842013E+03  0.59999508863E+03 0.  0.
         23    2    4    4    0    0  0.22610550640E+02  0.80837386750E+02  0.10883147746E+03  0.16476677577E+03  0.90872877217E+02 0.  0.
         23    2    4    4    0    0 -0.48794128197E+03 -0.34120797218E+02 -0.44510452704E+03  0.66697164436E+03  0.86499774189E+02 0.  0.
          3    1    3    3  502    0  0.19625655384E+03  0.18918535509E+02 -0.65581205498E+03  0.68480946063E+03  0.00000000000E+00 0. -1.
         -3    1    3    3    0  502  0.26907417749E+03 -0.65635125042E+02 -0.11292041794E+04  0.11626740564E+04  0.00000000000E+00 0.  1.
         15    1    5    5    0    0  0.54721984495E+02  0.69451615763E+02  0.88175591248E+02  0.12488440711E+03  0.17770000000E+01 0.  1.
        -15    1    5    5    0    0 -0.32111433855E+02  0.11385770988E+02  0.20655886211E+02  0.39882368653E+02  0.17770000000E+01 0. -1.
          4    1    6    6  503    0 -0.15539626716E+03  0.55173577447E+01 -0.93711233190E+02  0.18154954230E+03  0.00000000000E+00 0.  1.
         -4    1    6    6    0  503 -0.33254501481E+03 -0.39638154962E+02 -0.35139329385E+03  0.48542210206E+03  0.00000000000E+00 0. -1.
<mgrwt>
<rscale>  0 0.54353859E+03</rscale>
<asrwt>0</asrwt>
<pdfrwt beam="1">  1        2 0.36927009E+00 0.54353859E+03</pdfrwt>
<pdfrwt beam="2">  1       -2 0.42917897E-01 0.54353859E+03</pdfrwt>
<totfact> 0.22120612E+01</totfact>
</mgrwt>
</event>
<event>
12    1  0.7781383E-008  0.3765585E+03  0.7818608E-02  0.1052213E+00
         -2   -1    0    0    0  501 -0.00000000000E+00  0.00000000000E+00  0.85672095780E+02  0.85672095780E+02  0.00000000000E+00 0. -1.
          2   -1    0    0  501    0  0.00000000000E+00 -0.00000000000E+00 -0.22831638401E+04  0.22831638401E+04  0.00000000000E+00 0.  1.
         23    2    1    2    0    0 -0.88347291368E+01 -0.19852786472E+03 -0.29904985545E+03  0.36789997255E+03  0.80176107722E+02 0.  0.
    5000000    2    1    2    0    0  0.88347291368E+01  0.19852786472E+03 -0.18984418889E+04  0.20009359633E+04  0.60014311495E+03 0.  0.
         23    2    4    4    0    0  0.86973001118E+02  0.35753184310E+03 -0.81325437570E+03  0.89732959134E+03  0.91784498385E+02 0.  0.
         23    2    4    4    0    0 -0.78138271981E+02 -0.15900397838E+03 -0.10851875132E+04  0.11036063720E+04  0.94484024408E+02 0.  0.
          1    1    3    3  502    0  0.49920102455E+01 -0.67479953619E+02 -0.43688675371E+02  0.80542936763E+02  0.00000000000E+00 0. -1.
         -1    1    3    3    0  502 -0.13826739382E+02 -0.13104791110E+03 -0.25536118008E+03  0.28735703579E+03  0.00000000000E+00 0.  1.
         15    1    5    5    0    0  0.59780152016E+02  0.10588563050E+03 -0.20260601561E+03  0.23630020866E+03  0.17770000000E+01 0. -1.
        -15    1    5    5    0    0  0.27192849103E+02  0.25164621259E+03 -0.61064836009E+03  0.66102938268E+03  0.17770000000E+01 0.  1.
          4    1    6    6  503    0 -0.62169071406E+02 -0.99358417812E+02 -0.91667477561E+03  0.92413729114E+03  0.00000000000E+00 0.  1.
         -4    1    6    6    0  503 -0.15969200575E+02 -0.59645560567E+02 -0.16851273756E+03  0.17946908085E+03  0.00000000000E+00 0. -1.
<mgrwt>
<rscale>  0 0.37655854E+03</rscale>
<asrwt>0</asrwt>
<pdfrwt beam="1">  1        2 0.35125592E+00 0.37655854E+03</pdfrwt>
<pdfrwt beam="2">  1       -2 0.13180325E-01 0.37655854E+03</pdfrwt>
<totfact> 0.21858842E+02</totfact>
</mgrwt>
</event>
<event>
12    1  0.7781383E-008  0.7098546E+03  0.7818608E-02  0.9700526E-01
         -2   -1    0    0    0  501 -0.00000000000E+00  0.00000000000E+00  0.29869540096E+03  0.29869540096E+03  0.00000000000E+00 0.  1.
          2   -1    0    0  501    0  0.00000000000E+00 -0.00000000000E+00 -0.27582135788E+04  0.27582135788E+04  0.00000000000E+00 0. -1.
         23    2    1    2    0    0 -0.63408468544E+03  0.15245672357E+03 -0.30181886157E+03  0.72432846527E+03  0.90833141187E+02 0.  0.
    5000000    2    1    2    0    0  0.63408468544E+03 -0.15245672357E+03 -0.21576993162E+04  0.23325805144E+04  0.59996589594E+03 0.  0.
         23    2    4    4    0    0  0.82623050134E+02  0.10059523698E+03 -0.10490884833E+03  0.18980377887E+03  0.89853424533E+02 0.  0.
         23    2    4    4    0    0  0.55146163530E+03 -0.25305196055E+03 -0.20527904679E+04  0.21427767356E+04  0.96944332048E+02 0.  0.
          3    1    3    3  502    0 -0.39132548046E+03  0.13653002807E+03 -0.17385572160E+03  0.44944620607E+03  0.00000000000E+00 0. -1.
         -3    1    3    3    0  502 -0.24275920498E+03  0.15926695500E+02 -0.12796313997E+03  0.27488225920E+03  0.00000000000E+00 0.  1.
         15    1    5    5    0    0  0.72986525677E+02  0.22427207859E+02 -0.33215656022E+02  0.83285353555E+02  0.17770000000E+01 0.  1.
        -15    1    5    5    0    0  0.96365244572E+01  0.78168029116E+02 -0.71693192311E+02  0.10651842532E+03  0.17770000000E+01 0. -1.
          2    1    6    6  503    0  0.50928884467E+03 -0.23626089254E+03 -0.17863059678E+04  0.18724538304E+04  0.00000000000E+00 0. -1.
         -2    1    6    6    0  503  0.42172790627E+02 -0.16791068006E+02 -0.26648450013E+03  0.27032290514E+03  0.00000000000E+00 0.  1.
<mgrwt>
<rscale>  0 0.70985458E+03</rscale>
<asrwt>0</asrwt>
<pdfrwt beam="1">  1        2 0.42434054E+00 0.70985458E+03</pdfrwt>
<pdfrwt beam="2">  1       -2 0.45953140E-01 0.70985458E+03</pdfrwt>
<totfact> 0.11694601E+01</totfact>
</mgrwt>
</event>
<event>
12    1  0.7781383E-008  0.1948587E+04  0.7818608E-02  0.8631043E-01
          2   -1    0    0  501    0  0.00000000000E+00  0.00000000000E+00  0.27712170685E+04  0.27712170685E+04  0.00000000000E+00 0.  1.
         -2   -1    0    0    0  501 -0.00000000000E+00 -0.00000000000E+00 -0.24732070704E+04  0.24732070704E+04  0.00000000000E+00 0. -1.
         23    2    1    2    0    0 -0.12512518693E+04 -0.14468253434E+04 -0.15911213994E+04  0.24898311895E+04  0.93044236481E+02 0.  0.
    5000000    2    1    2    0    0  0.12512518693E+04  0.14468253434E+04  0.18891313975E+04  0.27545929493E+04  0.60002505360E+03 0.  0.
         23    2    4    4    0    0  0.42443886499E+03  0.88181614159E+03  0.75646063121E+03  0.12403288853E+04  0.91842253520E+02 0.  0.
         23    2    4    4    0    0  0.82681300428E+03  0.56500920185E+03  0.11326707662E+04  0.15142640640E+04  0.84837778332E+02 0.  0.
          3    1    3    3  502    0 -0.10051431440E+04 -0.11101045133E+04 -0.12672084738E+04  0.19617497512E+04  0.00000000000E+00 0. -1.
         -3    1    3    3    0  502 -0.24610872531E+03 -0.33672083015E+03 -0.32391292557E+03  0.52808143830E+03  0.00000000000E+00 0.  1.
         15    1    5    5    0    0  0.19840126439E+03  0.37965507337E+03  0.38596949633E+03  0.57660787913E+03  0.17770000000E+01 0.  1.
        -15    1    5    5    0    0  0.22603760061E+03  0.50216106822E+03  0.37049113489E+03  0.66372100621E+03  0.17770000000E+01 0. -1.
          4    1    6    6  503    0  0.57213427935E+03  0.35439147012E+03  0.79826556311E+03  0.10441067268E+04  0.00000000000E+00 0. -1.
         -4    1    6    6    0  503  0.25467872494E+03  0.21061773173E+03  0.33440520313E+03  0.47015733722E+03  0.00000000000E+00 0.  1.
<mgrwt>
<rscale>  0 0.19485868E+04</rscale>
<asrwt>0</asrwt>
<pdfrwt beam="1">  1        2 0.42634108E+00 0.19485868E+04</pdfrwt>
<pdfrwt beam="2">  1       -2 0.38049340E+00 0.19485868E+04</pdfrwt>
<totfact> 0.21210462E-02</totfact>
</mgrwt>
</event>
<event>
12    1  0.7781383E-008  0.4947944E+03  0.7818608E-02  0.1015147E+00
         -2   -1    0    0    0  501 -0.00000000000E+00  0.00000000000E+00  0.24587088389E+03  0.24587088389E+03  0.00000000000E+00 0.  1.
          2   -1    0    0  501    0  0.00000000000E+00 -0.00000000000E+00 -0.14648421568E+04  0.14648421568E+04  0.00000000000E+00 0. -1.
         23    2    1    2    0    0  0.13999838538E+03 -0.37137247339E+03 -0.74480820698E+03  0.84909367040E+03  0.93293804824E+02 0.  0.
    5000000    2    1    2    0    0 -0.13999838538E+03  0.37137247339E+03 -0.47416306587E+03  0.86161937025E+03  0.60003355260E+03 0.  0.
         23    2    4    4    0    0 -0.15600000825E+03  0.45122451705E+03 -0.14006126722E+03  0.50590399306E+03  0.91553941812E+02 0.  0.
         23    2    4    4    0    0  0.16001622871E+02 -0.79852043656E+02 -0.33410179865E+03  0.35571537719E+03  0.90978112168E+02 0.  0.
          3    1    3    3  502    0  0.10466285528E+03 -0.15304696517E+03 -0.37120476152E+03  0.41493452712E+03  0.00000000000E+00 0. -1.
         -3    1    3    3    0  502  0.35335530096E+02 -0.21832550822E+03 -0.37360344546E+03  0.43415914328E+03  0.00000000000E+00 0.  1.
         15    1    5    5    0    0 -0.10646809010E+03  0.31321667458E+03 -0.14010238580E+03  0.35926588438E+03  0.17770000000E+01 0.  1.
        -15    1    5    5    0    0 -0.49531918151E+02  0.13800784246E+03  0.41118573359E-01  0.14663810868E+03  0.17770000000E+01 0. -1.
          2    1    6    6  503    0 -0.19769584337E+02 -0.62959812326E+02 -0.11100957237E+03  0.12914294248E+03  0.00000000000E+00 0. -1.
         -2    1    6    6    0  503  0.35771207208E+02 -0.16892231330E+02 -0.22309222628E+03  0.22657243471E+03  0.00000000000E+00 0.  1.
<mgrwt>
<rscale>  0 0.49479442E+03</rscale>
<asrwt>0</asrwt>
<pdfrwt beam="1">  1        2 0.22536033E+00 0.49479442E+03</pdfrwt>
<pdfrwt beam="2">  1       -2 0.37826291E-01 0.49479442E+03</pdfrwt>
<totfact> 0.91853478E+01</totfact>
</mgrwt>
</event>
<event>
12    1  0.7958597E-008  0.6730177E+03  0.7818608E-02  0.9764522E-01
          1   -1    0    0  501    0  0.00000000000E+00  0.00000000000E+00  0.10428941131E+04  0.10428941131E+04  0.00000000000E+00 0. -1.
         -1   -1    0    0    0  501 -0.00000000000E+00 -0.00000000000E+00 -0.49089014760E+03  0.49089014760E+03  0.00000000000E+00 0.  1.
         23    2    1    2    0    0 -0.39085102483E+03  0.38834007784E+03  0.44104623713E+03  0.71147054265E+03  0.89977831215E+02 0.  0.
    5000000    2    1    2    0    0  0.39085102483E+03 -0.38834007784E+03  0.11095772838E+03  0.82231371806E+03  0.60026302048E+03 0.  0.
         23    2    4    4    0    0 -0.69661563426E+02 -0.29235481771E+03 -0.45537868420E+02  0.31796070953E+03  0.93280450724E+02 0.  0.
         23    2    4    4    0    0  0.46051258826E+03 -0.95985260132E+02  0.15649559680E+03  0.50435300853E+03  0.92715000366E+02 0.  0.
          2    1    3    3  502    0 -0.89796913016E+02  0.12912229341E+03  0.89332883665E+02  0.18087679880E+03  0.00000000000E+00 0. -1.
         -2    1    3    3    0  502 -0.30105411182E+03  0.25921778443E+03  0.35171335346E+03  0.53059374385E+03  0.00000000000E+00 0.  1.
         15    1    5    5    0    0 -0.55892120107E+02 -0.69594797383E+02 -0.30179010056E+02  0.94240624413E+02  0.17770000000E+01 0.  1.
        -15    1    5    5    0    0 -0.13769443319E+02 -0.22276002032E+03 -0.15358858364E+02  0.22372008511E+03  0.17770000000E+01 0. -1.
          4    1    6    6  503    0  0.21593691036E+03 -0.91158846460E+02  0.65709212742E+02  0.24342634447E+03  0.00000000000E+00 0.  1.
         -4    1    6    6    0  503  0.24457567790E+03 -0.48264136721E+01  0.90786384056E+02  0.26092666407E+03  0.00000000000E+00 0. -1.
<mgrwt>
<rscale>  0 0.67301768E+03</rscale>
<asrwt>0</asrwt>
<pdfrwt beam="1">  1        1 0.16044525E+00 0.67301768E+03</pdfrwt>
<pdfrwt beam="2">  1       -1 0.75521561E-01 0.67301768E+03</pdfrwt>
<totfact> 0.25634822E+01</totfact>
</mgrwt>
</event>
<event>
12    1  0.7781383E-008  0.1140923E+04  0.7818608E-02  0.9166199E-01
         -1   -1    0    0    0  501 -0.00000000000E+00  0.00000000000E+00  0.99711896680E+03  0.99711896680E+03  0.00000000000E+00 0.  1.
          1   -1    0    0  501    0  0.00000000000E+00 -0.00000000000E+00 -0.14829000943E+04  0.14829000943E+04  0.00000000000E+00 0. -1.
         23    2    1    2    0    0  0.16873610803E+03 -0.11211453737E+04 -0.10476322174E+03  0.11419474621E+04  0.87349015033E+02 0.  0.
    5000000    2    1    2    0    0 -0.16873610803E+03  0.11211453737E+04 -0.38101790578E+03  0.13380715990E+04  0.59985176216E+03 0.  0.
         23    2    4    4    0    0 -0.12387242912E+03  0.55100629331E+03  0.10594935016E+03  0.58143415065E+03  0.88814935545E+02 0.  0.
         23    2    4    4    0    0 -0.44863678919E+02  0.57013908038E+03 -0.48696725595E+03  0.75663744840E+03  0.91059317503E+02 0.  0.
          3    1    3    3  502    0  0.16617180757E+03 -0.87622324872E+03 -0.93909255738E+02  0.89677154256E+03  0.00000000000E+00 0. -1.
         -3    1    3    3    0  502  0.25643004615E+01 -0.24492212496E+03 -0.10853965999E+02  0.24517591951E+03  0.00000000000E+00 0.  1.
         15    1    5    5    0    0 -0.58523818519E+02  0.17373563537E+03  0.72257963587E+02  0.19706212057E+03  0.17770000000E+01 0. -1.
        -15    1    5    5    0    0 -0.65348610596E+02  0.37727065794E+03  0.33691386576E+02  0.38437203008E+03  0.17770000000E+01 0.  1.
          3    1    6    6  503    0  0.23282294517E+02  0.27279356159E+03 -0.24178410447E+03  0.36526421349E+03  0.00000000000E+00 0. -1.
         -3    1    6    6    0  503 -0.68145973437E+02  0.29734551878E+03 -0.24518315148E+03  0.39137323491E+03  0.00000000000E+00 0.  1.
<mgrwt>
<rscale>  0 0.11409227E+04</rscale>
<asrwt>0</asrwt>
<pdfrwt beam="1">  1        1 0.22813848E+00 0.11409227E+04</pdfrwt>
<pdfrwt beam="2">  1       -1 0.15340292E+00 0.11409227E+04</pdfrwt>
<totfact> 0.21797764E+00</totfact>
</mgrwt>
</event>
<event>
12    1  0.7781383E-008  0.9408905E+03  0.7818608E-02  0.9375862E-01
          2   -1    0    0  501    0  0.00000000000E+00  0.00000000000E+00  0.13457579873E+04  0.13457579873E+04  0.00000000000E+00 0. -1.
         -2   -1    0    0    0  501 -0.00000000000E+00 -0.00000000000E+00 -0.71290201875E+03  0.71290201875E+03  0.00000000000E+00 0.  1.
         23    2    1    2    0    0 -0.82054718388E+03  0.23029217798E+03  0.37265697357E+02  0.85826483280E+03  0.94327211353E+02 0.  0.
    5000000    2    1    2    0    0  0.82054718388E+03 -0.23029217798E+03  0.59559027115E+03  0.12003951732E+04  0.59990718663E+03 0.  0.
         23    2    4    4    0    0  0.27129318177E+03 -0.36009749272E+03  0.18181814404E+03  0.49452464108E+03  0.90700542424E+02 0.  0.
         23    2    4    4    0    0  0.54925400211E+03  0.12980531474E+03  0.41377212710E+03  0.70587053213E+03  0.92284648743E+02 0.  0.
          1    1    3    3  502    0 -0.49634635619E+03  0.91157498989E+02  0.19682871221E+02  0.50503149441E+03  0.00000000000E+00 0. -1.
         -1    1    3    3    0  502 -0.32420082769E+03  0.13913467899E+03  0.17582826136E+02  0.35323333839E+03  0.00000000000E+00 0.  1.
         15    1    5    5    0    0  0.23684201392E+02 -0.90940105633E+02  0.42579038758E+02  0.10318515629E+03  0.17770000000E+01 0.  1.
        -15    1    5    5    0    0  0.24760898038E+03 -0.26915738709E+03  0.13923910529E+03  0.39133948479E+03  0.17770000000E+01 0. -1.
          1    1    6    6  503    0  0.32462722159E+03  0.68525764740E+02  0.18700286843E+03  0.38085257808E+03  0.00000000000E+00 0. -1.
         -1    1    6    6    0  503  0.22462678052E+03  0.61279549997E+02  0.22676925867E+03  0.32501795405E+03  0.00000000000E+00 0.  1.
<mgrwt>
<rscale>  0 0.94089051E+03</rscale>
<asrwt>0</asrwt>
<pdfrwt beam="1">  1        2 0.20703969E+00 0.94089051E+03</pdfrwt>
<pdfrwt beam="2">  1       -2 0.10967723E+00 0.94089051E+03</pdfrwt>
<totfact> 0.10286865E+01</totfact>
</mgrwt>
</event>
<event>
12    1  0.7781383E-008  0.4538261E+03  0.7818608E-02  0.1026587E+00
         -1   -1    0    0    0  501 -0.00000000000E+00  0.00000000000E+00  0.39343060232E+03  0.39343060232E+03  0.00000000000E+00 0.  1.
          1   -1    0    0  501    0  0.00000000000E+00 -0.00000000000E+00 -0.11891284484E+04  0.11891284484E+04  0.00000000000E+00 0. -1.
         23    2    1    2    0    0  0.38203332212E+02 -0.27533852664E+03  0.22323466905E+03  0.36777635449E+03  0.90304654458E+02 0.  0.
    5000000    2    1    2    0    0 -0.38203332212E+02  0.27533852664E+03 -0.10189325151E+04  0.12147826962E+04  0.60016891774E+03 0.  0.
         23    2    4    4    0    0 -0.20122338550E+03 -0.90326715980E+02 -0.49163097488E+03  0.54648209888E+03  0.91059883811E+02 0.  0.
         23    2    4    4    0    0  0.16302005329E+03  0.36566524262E+03 -0.52730154026E+03  0.66830059736E+03  0.91061334497E+02 0.  0.
          1    1    3    3  502    0  0.39479321537E+02 -0.16817116678E+03  0.18715755824E+03  0.25469218632E+03  0.00000000000E+00 0. -1.
         -1    1    3    3    0  502 -0.12759893246E+01 -0.10716735986E+03  0.36077110805E+02  0.11308416817E+03  0.00000000000E+00 0.  1.
         15    1    5    5    0    0 -0.69855129825E+02 -0.19461006106E+02 -0.76937772808E+02  0.10574047728E+03  0.17770000000E+01 0.  1.
        -15    1    5    5    0    0 -0.13136825567E+03 -0.70865709874E+02 -0.41469320207E+03  0.44074162160E+03  0.17770000000E+01 0. -1.
          4    1    6    6  503    0  0.16255690140E+03  0.30808127279E+03 -0.48368078661E+03  0.59605865497E+03  0.00000000000E+00 0. -1.
         -4    1    6    6    0  503  0.46315189135E+00  0.57583969830E+02 -0.43620753657E+02  0.72241942392E+02  0.00000000000E+00 0.  1.
<mgrwt>
<rscale>  0 0.45382606E+03</rscale>
<asrwt>0</asrwt>
<pdfrwt beam="1">  1        1 0.18294284E+00 0.45382606E+03</pdfrwt>
<pdfrwt beam="2">  1       -1 0.60527785E-01 0.45382606E+03</pdfrwt>
<totfact> 0.32363682E+01</totfact>
</mgrwt>
</event>
<event>
12    1  0.7781383E-008  0.8599107E+03  0.7818608E-02  0.9477131E-01
          2   -1    0    0  501    0  0.00000000000E+00  0.00000000000E+00  0.41044316009E+04  0.41044316009E+04  0.00000000000E+00 0. -1.
         -2   -1    0    0    0  501 -0.00000000000E+00 -0.00000000000E+00 -0.18471422548E+03  0.18471422548E+03  0.00000000000E+00 0.  1.
         23    2    1    2    0    0 -0.40642441433E+03 -0.64422780722E+03  0.15856254344E+04  0.17616413954E+04  0.94668450474E+02 0.  0.
    5000000    2    1    2    0    0  0.40642441433E+03  0.64422780722E+03  0.23340919410E+04  0.25275044310E+04  0.60006931887E+03 0.  0.
         23    2    4    4    0    0 -0.14317678287E+03  0.13086000480E+03  0.57461678588E+03  0.61195568732E+03  0.81739712648E+02 0.  0.
         23    2    4    4    0    0  0.54960119721E+03  0.51336780242E+03  0.17594751551E+04  0.19155487437E+04  0.89253522738E+02 0.  0.
          1    1    3    3  502    0 -0.25261647715E+03 -0.35445997012E+03  0.99459591976E+03  0.10856693781E+04  0.00000000000E+00 0. -1.
         -1    1    3    3    0  502 -0.15380793718E+03 -0.28976783710E+03  0.59102951465E+03  0.67597201728E+03  0.00000000000E+00 0.  1.
         15    1    5    5    0    0 -0.97552213314E+02  0.49764875598E+02  0.22616919571E+03  0.25129393145E+03  0.17770000000E+01 0.  1.
        -15    1    5    5    0    0 -0.45624569561E+02  0.81095129200E+02  0.34844759016E+03  0.36066175587E+03  0.17770000000E+01 0. -1.
          3    1    6    6  503    0  0.48224267391E+03  0.42501283013E+03  0.15595131043E+04  0.16867943042E+04  0.00000000000E+00 0. -1.
         -3    1    6    6    0  503  0.67358523298E+02  0.88354972295E+02  0.19996205085E+03  0.22875443945E+03  0.00000000000E+00 0.  1.
<mgrwt>
<rscale>  0 0.85991067E+03</rscale>
<asrwt>0</asrwt>
<pdfrwt beam="1">  1        2 0.63145095E+00 0.85991067E+03</pdfrwt>
<pdfrwt beam="2">  1       -2 0.28417576E-01 0.85991067E+03</pdfrwt>
<totfact> 0.34528575E+00</totfact>
</mgrwt>
</event>
<event>
12    1  0.7781383E-008  0.4882175E+03  0.7818608E-02  0.1016901E+00
         -2   -1    0    0    0  501 -0.00000000000E+00  0.00000000000E+00  0.33267825942E+03  0.33267825942E+03  0.00000000000E+00 0.  1.
          2   -1    0    0  501    0  0.00000000000E+00 -0.00000000000E+00 -0.83452197547E+03  0.83452197547E+03  0.00000000000E+00 0. -1.
         23    2    1    2    0    0 -0.21564000052E+03 -0.25247390764E+03 -0.54416199935E+02  0.34845784360E+03  0.90653527732E+02 0.  0.
    5000000    2    1    2    0    0  0.21564000052E+03  0.25247390764E+03 -0.44742751611E+03  0.81874239129E+03  0.59992002571E+03 0.  0.
         23    2    4    4    0    0  0.30192928689E+03 -0.58491487164E+02 -0.10128433588E+03  0.33669155624E+03  0.92304599016E+02 0.  0.
         23    2    4    4    0    0 -0.86289286370E+02  0.31096539480E+03 -0.34614318023E+03  0.48205083504E+03  0.91720164827E+02 0.  0.
          3    1    3    3  502    0 -0.96460526377E+02 -0.96039809808E+02 -0.66364039293E+02  0.15143468535E+03  0.00000000000E+00 0. -1.
         -3    1    3    3    0  502 -0.11917947414E+03 -0.15643409783E+03  0.11947839358E+02  0.19702315825E+03  0.00000000000E+00 0.  1.
         15    1    5    5    0    0  0.89867047448E+02 -0.39001547011E+02 -0.72291207912E+02  0.12176363725E+03  0.17770000000E+01 0.  1.
        -15    1    5    5    0    0  0.21206223944E+03 -0.19489940152E+02 -0.28993127965E+02  0.21492791899E+03  0.17770000000E+01 0. -1.
          2    1    6    6  503    0 -0.41085089372E+02  0.26527582951E+03 -0.25292537832E+03  0.36882312467E+03  0.00000000000E+00 0. -1.
         -2    1    6    6    0  503 -0.45204196998E+02  0.45689565288E+02 -0.93217801916E+02  0.11322771037E+03  0.00000000000E+00 0.  1.
<mgrwt>
<rscale>  0 0.48821754E+03</rscale>
<asrwt>0</asrwt>
<pdfrwt beam="1">  1        2 0.12838800E+00 0.48821754E+03</pdfrwt>
<pdfrwt beam="2">  1       -2 0.51181271E-01 0.48821754E+03</pdfrwt>
<totfact> 0.12124168E+02</totfact>
</mgrwt>
</event>
<event>
12    1  0.7781383E-008  0.1362344E+04  0.7818608E-02  0.8981536E-01
          1   -1    0    0  501    0  0.00000000000E+00  0.00000000000E+00  0.30813880103E+04  0.30813880103E+04  0.00000000000E+00 0. -1.
         -1   -1    0    0    0  501 -0.00000000000E+00 -0.00000000000E+00 -0.66736052951E+03  0.66736052951E+03  0.00000000000E+00 0.  1.
         23    2    1    2    0    0 -0.12454824020E+04 -0.53213094490E+03  0.14212553771E+04  0.19655014396E+04  0.94017583634E+02 0.  0.
    5000000    2    1    2    0    0  0.12454824020E+04  0.53213094490E+03  0.99277210375E+03  0.17832471002E+04  0.59998667838E+03 0.  0.
         23    2    4    4    0    0  0.83000627985E+03  0.41979814262E+03  0.33659548016E+03  0.99422911814E+03  0.10027021975E+03 0.  0.
         23    2    4    4    0    0  0.41547612216E+03  0.11233280228E+03  0.65617662360E+03  0.78901798208E+03  0.82113020514E+02 0.  0.
          4    1    3    3  502    0 -0.39174274853E+03 -0.12889448213E+03  0.46848768774E+03  0.62414492077E+03  0.00000000000E+00 0. -1.
         -4    1    3    3    0  502 -0.85373965347E+03 -0.40323646277E+03  0.95276768931E+03  0.13413565188E+04  0.00000000000E+00 0.  1.
         15    1    5    5    0    0  0.61986741496E+03  0.30291371658E+03  0.29430308131E+03  0.75007319191E+03  0.17770000000E+01 0. -1.
        -15    1    5    5    0    0  0.21013886489E+03  0.11688442604E+03  0.42292398850E+02  0.24415592624E+03  0.17770000000E+01 0.  1.
          4    1    6    6  503    0  0.31351922213E+03  0.48027761571E+02  0.49095015988E+03  0.58449382204E+03  0.00000000000E+00 0. -1.
         -4    1    6    6    0  503  0.10195690003E+03  0.64305040712E+02  0.16522646372E+03  0.20452416004E+03  0.00000000000E+00 0.  1.
<mgrwt>
<rscale>  0 0.13623441E+04</rscale>
<asrwt>0</asrwt>
<pdfrwt beam="1">  1        1 0.47405969E+00 0.13623441E+04</pdfrwt>
<pdfrwt beam="2">  1       -1 0.10267085E+00 0.13623441E+04</pdfrwt>
<totfact> 0.45566537E-01</totfact>
</mgrwt>
</event>
<event>
12    1  0.7781383E-008  0.3866477E+03  0.7818608E-02  0.1048504E+00
          2   -1    0    0  501    0  0.00000000000E+00  0.00000000000E+00  0.80366119183E+03  0.80366119183E+03  0.00000000000E+00 0.  1.
         -2   -1    0    0    0  501 -0.00000000000E+00 -0.00000000000E+00 -0.32329163898E+03  0.32329163898E+03  0.00000000000E+00 0. -1.
         23    2    1    2    0    0 -0.74022921587E+02 -0.25642063820E+03 -0.46299520454E+02  0.28515888157E+03  0.89112319719E+02 0.  0.
    5000000    2    1    2    0    0  0.74022921587E+02  0.25642063820E+03  0.52666907330E+03  0.84179394924E+03  0.60000483631E+03 0.  0.
         23    2    4    4    0    0 -0.17145530419E+03  0.15996706058E+03  0.50061292847E+03  0.56183985856E+03  0.10032118773E+03 0.  0.
         23    2    4    4    0    0  0.24547822578E+03  0.96453577622E+02  0.26056144831E+02  0.27995409068E+03  0.90180475936E+02 0.  0.
          1    1    3    3  502    0 -0.50089138561E+02 -0.15340850983E+03 -0.71394852938E+02  0.17646619425E+03  0.00000000000E+00 0. -1.
         -1    1    3    3    0  502 -0.23933783026E+02 -0.10301212838E+03  0.25095332484E+02  0.10869268731E+03  0.00000000000E+00 0.  1.
         15    1    5    5    0    0 -0.43622296599E+02  0.50020216948E+02  0.57869669140E+02  0.88073737286E+02  0.17770000000E+01 0.  1.
        -15    1    5    5    0    0 -0.12783300759E+03  0.10994684363E+03  0.44274325933E+03  0.47376612127E+03  0.17770000000E+01 0. -1.
          3    1    6    6  503    0  0.16294361440E+03  0.94968732094E+02  0.47855908510E+02  0.19457612785E+03  0.00000000000E+00 0. -1.
         -3    1    6    6    0  503  0.82534611374E+02  0.14848455285E+01 -0.21799763679E+02  0.85377962832E+02  0.00000000000E+00 0.  1.
<mgrwt>
<rscale>  0 0.38664772E+03</rscale>
<asrwt>0</asrwt>
<pdfrwt beam="1">  1        2 0.12364018E+00 0.38664772E+03</pdfrwt>
<pdfrwt beam="2">  1       -2 0.49737175E-01 0.38664772E+03</pdfrwt>
<totfact> 0.13640971E+02</totfact>
</mgrwt>
</event>
<event>
12    1  0.7781383E-008  0.1029242E+04  0.7818608E-02  0.9277041E-01
          1   -1    0    0  501    0  0.00000000000E+00  0.00000000000E+00  0.18064556389E+04  0.18064556389E+04  0.00000000000E+00 0. -1.
         -1   -1    0    0    0  501 -0.00000000000E+00 -0.00000000000E+00 -0.74427658270E+03  0.74427658270E+03  0.00000000000E+00 0.  1.
         23    2    1    2    0    0 -0.34921111842E+03  0.88382477679E+03 -0.67613200418E+02  0.95712409477E+03  0.91762446745E+02 0.  0.
    5000000    2    1    2    0    0  0.34921111842E+03 -0.88382477679E+03  0.11297922567E+04  0.15936081269E+04  0.60005139574E+03 0.  0.
         23    2    4    4    0    0 -0.83093692697E+02  0.64350218237E+01  0.71697195007E+02  0.14192424054E+03  0.89755395438E+02 0.  0.
         23    2    4    4    0    0  0.43230481112E+03 -0.89025979861E+03  0.10580950616E+04  0.14516838863E+04  0.91493101307E+02 0.  0.
          3    1    3    3  502    0 -0.70758595220E+02  0.23072516130E+03 -0.52525893621E+02  0.24698147371E+03  0.00000000000E+00 0. -1.
         -3    1    3    3    0  502 -0.27845252320E+03  0.65309961549E+03 -0.15087306798E+02  0.71014262107E+03  0.00000000000E+00 0.  1.
         15    1    5    5    0    0 -0.99247959875E+02 -0.17965119914E+01  0.73630917733E+02  0.12360442860E+03  0.17770000000E+01 0.  1.
        -15    1    5    5    0    0  0.16154267178E+02  0.82315338151E+01 -0.19337227262E+01  0.18319811942E+02  0.17770000000E+01 0. -1.
          3    1    6    6  503    0  0.98217078411E+01 -0.19615056803E+02  0.72070256328E+01  0.23090206079E+02  0.00000000000E+00 0. -1.
         -3    1    6    6    0  503  0.42248310328E+03 -0.87064474181E+03  0.10508880360E+04  0.14285936802E+04  0.00000000000E+00 0.  1.
<mgrwt>
<rscale>  0 0.10292424E+04</rscale>
<asrwt>0</asrwt>
<pdfrwt beam="1">  1        1 0.27791625E+00 0.10292424E+04</pdfrwt>
<pdfrwt beam="2">  1       -1 0.11450409E+00 0.10292424E+04</pdfrwt>
<totfact> 0.28101444E+00</totfact>
</mgrwt>
</event>
<event>
12    1  0.7781383E-008  0.7178036E+03  0.7818608E-02  0.9687261E-01
          2   -1    0    0  501    0  0.00000000000E+00  0.00000000000E+00  0.13328209334E+04  0.13328209334E+04  0.00000000000E+00 0. -1.
         -2   -1    0    0    0  501 -0.00000000000E+00 -0.00000000000E+00 -0.84792678538E+03  0.84792678538E+03  0.00000000000E+00 0.  1.
         23    2    1    2    0    0 -0.66234615455E+03 -0.15982727136E+03  0.94076036044E+03  0.11648134636E+04  0.86678510590E+02 0.  0.
    5000000    2    1    2    0    0  0.66234615455E+03  0.15982727136E+03 -0.45586621240E+03  0.10159342552E+04  0.60005101622E+03 0.  0.
         23    2    4    4    0    0  0.62244814647E+03  0.85092256075E+02 -0.10372511311E+03  0.64311658297E+03  0.90319727154E+02 0.  0.
         23    2    4    4    0    0  0.39898008080E+02  0.74735015285E+02 -0.35214109930E+03  0.37281767218E+03  0.88388287246E+02 0.  0.
          2    1    3    3  502    0 -0.10483719108E+03 -0.33875986708E+02  0.20931095416E+03  0.23653645521E+03  0.00000000000E+00 0. -1.
         -2    1    3    3    0  502 -0.55750896347E+03 -0.12595128465E+03  0.73144940628E+03  0.92827700844E+03  0.00000000000E+00 0.  1.
         15    1    5    5    0    0  0.45991632010E+03  0.91994105934E+02 -0.49523947896E+02  0.47163727182E+03  0.17770000000E+01 0. -1.
        -15    1    5    5    0    0  0.16253182637E+03 -0.69018498595E+01 -0.54201165212E+02  0.17147931116E+03  0.17770000000E+01 0.  1.
          2    1    6    6  503    0 -0.91438668049E+01  0.72487789721E+02 -0.22274573895E+03  0.23442217084E+03  0.00000000000E+00 0. -1.
         -2    1    6    6    0  503  0.49041874884E+02  0.22472255638E+01 -0.12939536034E+03  0.13839550135E+03  0.00000000000E+00 0.  1.
<mgrwt>
<rscale>  0 0.71780363E+03</rscale>
<asrwt>0</asrwt>
<pdfrwt beam="1">  1        2 0.20504937E+00 0.71780363E+03</pdfrwt>
<pdfrwt beam="2">  1       -2 0.13045027E+00 0.71780363E+03</pdfrwt>
<totfact> 0.69948016E+00</totfact>
</mgrwt>
</event>
<event>
12    1  0.7781383E-008  0.5366673E+03  0.7818608E-02  0.1004628E+00
          2   -1    0    0  501    0  0.00000000000E+00  0.00000000000E+00  0.23724549872E+04  0.23724549872E+04  0.00000000000E+00 0. -1.
         -2   -1    0    0    0  501 -0.00000000000E+00 -0.00000000000E+00 -0.20623807077E+03  0.20623807077E+03  0.00000000000E+00 0.  1.
         23    2    1    2    0    0 -0.26315893968E+03 -0.32212678979E+03  0.17951813860E+03  0.46211644707E+03  0.91140289270E+02 0.  0.
    5000000    2    1    2    0    0  0.26315893968E+03  0.32212678979E+03  0.19866987778E+04  0.21165766109E+04  0.59992184470E+03 0.  0.
         23    2    4    4    0    0  0.97454740240E+02 -0.13517707719E+03  0.94247678618E+03  0.96128195906E+03  0.89611627201E+02 0.  0.
         23    2    4    4    0    0  0.16570419944E+03  0.45730386698E+03  0.10442219916E+04  0.11552946518E+04  0.87871817247E+02 0.  0.
          3    1    3    3  502    0 -0.12448270418E+03 -0.18593852769E+03  0.13946600687E+03  0.26366616543E+03  0.00000000000E+00 0. -1.
         -3    1    3    3    0  502 -0.13867623550E+03 -0.13618826211E+03  0.40052131730E+02  0.19845028164E+03  0.00000000000E+00 0.  1.
         15    1    5    5    0    0  0.50777662697E+02 -0.60623832121E+02  0.67704138427E+03  0.68164639938E+03  0.17770000000E+01 0.  1.
        -15    1    5    5    0    0  0.46677077542E+02 -0.74553245067E+02  0.26543540191E+03  0.27963555967E+03  0.17770000000E+01 0. -1.
          1    1    6    6  503    0  0.13908837435E+03  0.41903040448E+03  0.87945302507E+03  0.98405776206E+03  0.00000000000E+00 0. -1.
         -1    1    6    6    0  503  0.26615825089E+02  0.38273462506E+02  0.16476896657E+03  0.17123688978E+03  0.00000000000E+00 0.  1.
<mgrwt>
<rscale>  0 0.53666733E+03</rscale>
<asrwt>0</asrwt>
<pdfrwt beam="1">  1        2 0.36499306E+00 0.53666733E+03</pdfrwt>
<pdfrwt beam="2">  1       -2 0.31728936E-01 0.53666733E+03</pdfrwt>
<totfact> 0.40900461E+01</totfact>
</mgrwt>
</event>
<event>
12    1  0.7781383E-008  0.1416632E+04  0.7818608E-02  0.8941867E-01
         -1   -1    0    0    0  501 -0.00000000000E+00  0.00000000000E+00  0.15295217956E+04  0.15295217956E+04  0.00000000000E+00 0.  1.
          1   -1    0    0  501    0  0.00000000000E+00 -0.00000000000E+00 -0.15911126343E+04  0.15911126343E+04  0.00000000000E+00 0. -1.
         23    2    1    2    0    0 -0.40450105931E+03 -0.13056118540E+04 -0.64979963170E+03  0.15162083787E+04  0.91678055311E+02 0.  0.
    5000000    2    1    2    0    0  0.40450105931E+03  0.13056118540E+04  0.58820879296E+03  0.16044260513E+04  0.59995828987E+03 0.  0.
         23    2    4    4    0    0  0.52613406547E+03  0.11511807643E+04  0.44508282884E+03  0.13451571275E+04  0.96513036500E+02 0.  0.
         23    2    4    4    0    0 -0.12163300616E+03  0.15443108974E+03  0.14312596412E+03  0.25926892380E+03  0.89954341604E+02 0.  0.
          1    1    3    3  502    0 -0.20089967913E+03 -0.72875447306E+03 -0.31599289175E+03  0.81932610767E+03  0.00000000000E+00 0. -1.
         -1    1    3    3    0  502 -0.20360138019E+03 -0.57685738095E+03 -0.33380673996E+03  0.69688227098E+03  0.00000000000E+00 0.  1.
         15    1    5    5    0    0  0.18358562949E+03  0.30459902532E+03  0.10822701374E+03  0.37175327008E+03  0.17770000000E+01 0. -1.
        -15    1    5    5    0    0  0.34254843598E+03  0.84658173894E+03  0.33685581510E+03  0.97340385740E+03  0.17770000000E+01 0.  1.
          3    1    6    6  503    0 -0.34723298323E+02  0.48761620416E+02 -0.18980900811E+01  0.59891617260E+02  0.00000000000E+00 0. -1.
         -3    1    6    6    0  503 -0.86909707841E+02  0.10566946933E+03  0.14502405420E+03  0.19937730654E+03  0.00000000000E+00 0.  1.
<mgrwt>
<rscale>  0 0.14166315E+04</rscale>
<asrwt>0</asrwt>
<pdfrwt beam="1">  1        1 0.24478656E+00 0.14166315E+04</pdfrwt>
<pdfrwt beam="2">  1       -1 0.23531105E+00 0.14166315E+04</pdfrwt>
<totfact> 0.47016267E-01</totfact>
</mgrwt>
</event>
<event>
12    1  0.7781383E-008  0.1150392E+04  0.7818608E-02  0.9157422E-01
         -2   -1    0    0    0  501 -0.00000000000E+00  0.00000000000E+00  0.75313110053E+03  0.75313110053E+03  0.00000000000E+00 0.  1.
          2   -1    0    0  501    0  0.00000000000E+00 -0.00000000000E+00 -0.19537614345E+04  0.19537614345E+04  0.00000000000E+00 0. -1.
         23    2    1    2    0    0 -0.10569968052E+04  0.35517778912E+03 -0.81399978564E+03  0.13828899149E+04  0.79970979806E+02 0.  0.
    5000000    2    1    2    0    0  0.10569968052E+04 -0.35517778912E+03 -0.38663054832E+03  0.13240026201E+04  0.60008853422E+03 0.  0.
         23    2    4    4    0    0  0.97982518709E+03 -0.21799244471E+03 -0.48387912040E+03  0.11182419296E+04  0.93530245360E+02 0.  0.
         23    2    4    4    0    0  0.77171618154E+02 -0.13718534440E+03  0.97248572078E+02  0.20576069046E+03  0.90027215876E+02 0.  0.
          3    1    3    3  502    0 -0.80344787899E+03  0.26297605392E+03 -0.65763462494E+03  0.10710593817E+04  0.00000000000E+00 0. -1.
         -3    1    3    3    0  502 -0.25354892626E+03  0.92201735200E+02 -0.15636516070E+03  0.31183053324E+03  0.00000000000E+00 0.  1.
         15    1    5    5    0    0  0.50029456386E+03 -0.63467607615E+02 -0.24006108739E+03  0.55852956167E+03  0.17770000000E+01 0. -1.
        -15    1    5    5    0    0  0.47953062323E+03 -0.15452483710E+03 -0.24381803301E+03  0.55971236795E+03  0.17770000000E+01 0.  1.
          3    1    6    6  503    0 -0.17579694033E+02 -0.17242645845E+02  0.29882482793E+02  0.38721018271E+02  0.00000000000E+00 0. -1.
         -3    1    6    6    0  503  0.94751312187E+02 -0.11994269856E+03  0.67366089284E+02  0.16703967219E+03  0.00000000000E+00 0.  1.
<mgrwt>
<rscale>  0 0.11503921E+04</rscale>
<asrwt>0</asrwt>
<pdfrwt beam="1">  1        2 0.30057869E+00 0.11503921E+04</pdfrwt>
<pdfrwt beam="2">  1       -2 0.11586632E+00 0.11503921E+04</pdfrwt>
<totfact> 0.40285780E+00</totfact>
</mgrwt>
</event>
<event>
12    1  0.7781383E-008  0.8116256E+03  0.7818608E-02  0.9543340E-01
         -1   -1    0    0    0  501 -0.00000000000E+00  0.00000000000E+00  0.44456309428E+03  0.44456309428E+03  0.00000000000E+00 0.  1.
          1   -1    0    0  501    0  0.00000000000E+00 -0.00000000000E+00 -0.15346011550E+04  0.15346011550E+04  0.00000000000E+00 0. -1.
         23    2    1    2    0    0 -0.64469531290E+03 -0.30065045459E+03 -0.53192692991E+03  0.89285825858E+03  0.90702088303E+02 0.  0.
    5000000    2    1    2    0    0  0.64469531290E+03  0.30065045459E+03 -0.55811113082E+03  0.10863059907E+04  0.60212119110E+03 0.  0.
         23    2    4    4    0    0  0.11657658301E+03 -0.15563535933E+03 -0.21191088287E+03  0.30175182199E+03  0.91298822638E+02 0.  0.
         23    2    4    4    0    0  0.52811872989E+03  0.45628581392E+03 -0.34620024795E+03  0.78455416872E+03  0.92544557479E+02 0.  0.
          2    1    3    3  502    0 -0.40983602475E+03 -0.14625451019E+03 -0.34484607913E+03  0.55522496992E+03  0.00000000000E+00 0. -1.
         -2    1    3    3    0  502 -0.23485928816E+03 -0.15439594441E+03 -0.18708085078E+03  0.33763328866E+03  0.00000000000E+00 0.  1.
         15    1    5    5    0    0  0.60695737877E+02 -0.34265861400E+02 -0.29679681851E+02  0.75777061818E+02  0.17770000000E+01 0.  1.
        -15    1    5    5    0    0  0.55880845133E+02 -0.12136949793E+03 -0.18223120102E+03  0.22597476017E+03  0.17770000000E+01 0. -1.
          2    1    6    6  503    0  0.46618486391E+03  0.35915728448E+03 -0.28021693315E+03  0.65180043875E+03  0.00000000000E+00 0.  1.
         -2    1    6    6    0  503  0.61933865981E+02  0.97128529445E+02 -0.65983314792E+02  0.13275372996E+03  0.00000000000E+00 0. -1.
<mgrwt>
<rscale>  0 0.81162557E+03</rscale>
<asrwt>0</asrwt>
<pdfrwt beam="1">  1        1 0.23609249E+00 0.81162557E+03</pdfrwt>
<pdfrwt beam="2">  1       -1 0.68394321E-01 0.81162557E+03</pdfrwt>
<totfact> 0.13777235E+01</totfact>
</mgrwt>
</event>
<event>
12    1  0.7781383E-008  0.1551427E+04  0.7818608E-02  0.8850957E-01
          1   -1    0    0  501    0  0.00000000000E+00  0.00000000000E+00  0.10873381605E+04  0.10873381605E+04  0.00000000000E+00 0. -1.
         -1   -1    0    0    0  501 -0.00000000000E+00 -0.00000000000E+00 -0.24085330569E+04  0.24085330569E+04  0.00000000000E+00 0.  1.
         23    2    1    2    0    0 -0.11820022623E+03 -0.15193348436E+04 -0.27137904210E+03  0.15505034897E+04  0.89804379793E+02 0.  0.
    5000000    2    1    2    0    0  0.11820022623E+03  0.15193348436E+04 -0.10498158543E+04  0.19453677276E+04  0.59999383932E+03 0.  0.
         23    2    4    4    0    0  0.23392095589E+03  0.13182114450E+04 -0.10399616580E+04  0.16976554595E+04  0.90074310907E+02 0.  0.
         23    2    4    4    0    0 -0.11572072965E+03  0.20112339857E+03 -0.98541963394E+01  0.24771226818E+03  0.86153084078E+02 0.  0.
          3    1    3    3  502    0 -0.10058979239E+03 -0.72690420989E+03 -0.12107351064E+03  0.74375186162E+03  0.00000000000E+00 0. -1.
         -3    1    3    3    0  502 -0.17610433846E+02 -0.79243063372E+03 -0.15030553146E+03  0.80675162809E+03  0.00000000000E+00 0.  1.
         15    1    5    5    0    0  0.16433439212E+03  0.99734210573E+03 -0.83031319891E+03  0.13080979452E+04  0.17770000000E+01 0. -1.
        -15    1    5    5    0    0  0.69586563768E+02  0.32086933932E+03 -0.20964845909E+03  0.38955751424E+03  0.17770000000E+01 0.  1.
          1    1    6    6  503    0 -0.58256943440E+01 -0.21364910013E+01  0.14102900926E+02  0.15407631970E+02  0.00000000000E+00 0. -1.
         -1    1    6    6    0  503 -0.10989503531E+03  0.20325988957E+03 -0.23957097265E+02  0.23230463621E+03  0.00000000000E+00 0.  1.
<mgrwt>
<rscale>  0 0.15514267E+04</rscale>
<asrwt>0</asrwt>
<pdfrwt beam="1">  1        1 0.16728279E+00 0.15514267E+04</pdfrwt>
<pdfrwt beam="2">  1       -1 0.37054355E+00 0.15514267E+04</pdfrwt>
<totfact> 0.13888018E-01</totfact>
</mgrwt>
</event>
<event>
12    1  0.7781383E-008  0.9086526E+03  0.7818608E-02  0.9414829E-01
         -1   -1    0    0    0  501 -0.00000000000E+00  0.00000000000E+00  0.45834215861E+03  0.45834215861E+03  0.00000000000E+00 0.  1.
          1   -1    0    0  501    0  0.00000000000E+00 -0.00000000000E+00 -0.21243402552E+04  0.21243402552E+04  0.00000000000E+00 0. -1.
         23    2    1    2    0    0  0.53409663116E+03 -0.65079136630E+03 -0.11478860870E+04  0.14262973106E+04  0.88842195514E+02 0.  0.
    5000000    2    1    2    0    0 -0.53409663116E+03  0.65079136630E+03 -0.51811200960E+03  0.11563851032E+04  0.59999819872E+03 0.  0.
         23    2    4    4    0    0  0.14351264492E+02  0.32780085035E+03 -0.16215512887E+02  0.34084475216E+03  0.90845175609E+02 0.  0.
         23    2    4    4    0    0 -0.54844789566E+03  0.32299051595E+03 -0.50189649671E+03  0.81554035101E+03  0.89933325735E+02 0.  0.
          3    1    3    3  502    0  0.46886587142E+03 -0.61098036568E+03 -0.10442076124E+04  0.12974982660E+04  0.00000000000E+00 0. -1.
         -3    1    3    3    0  502  0.65230759740E+02 -0.39811000627E+02 -0.10367847460E+03  0.12879904457E+03  0.00000000000E+00 0.  1.
         15    1    5    5    0    0  0.12984550882E+02  0.44947935673E+02 -0.33321050916E+02  0.57466213082E+02  0.17770000000E+01 0. -1.
        -15    1    5    5    0    0  0.13667136107E+01  0.28285291468E+03  0.17105538029E+02  0.28337853907E+03  0.17770000000E+01 0.  1.
          4    1    6    6  503    0 -0.28685688459E+03  0.21294986764E+03 -0.30948719089E+03  0.47266990563E+03  0.00000000000E+00 0. -1.
         -4    1    6    6    0  503 -0.26159101106E+03  0.11004064832E+03 -0.19240930582E+03  0.34287044538E+03  0.00000000000E+00 0.  1.
<mgrwt>
<rscale>  0 0.90865258E+03</rscale>
<asrwt>0</asrwt>
<pdfrwt beam="1">  1        1 0.32682157E+00 0.90865258E+03</pdfrwt>
<pdfrwt beam="2">  1       -1 0.70514179E-01 0.90865258E+03</pdfrwt>
<totfact> 0.51139326E+00</totfact>
</mgrwt>
</event>
<event>
12    1  0.7781383E-008  0.1724740E+04  0.7818608E-02  0.8747379E-01
         -1   -1    0    0    0  501 -0.00000000000E+00  0.00000000000E+00  0.19161253037E+04  0.19161253037E+04  0.00000000000E+00 0.  1.
          1   -1    0    0  501    0  0.00000000000E+00 -0.00000000000E+00 -0.17064428935E+04  0.17064428935E+04  0.00000000000E+00 0. -1.
         23    2    1    2    0    0  0.15720837276E+04  0.64759158643E+03 -0.34393769273E+03  0.17371096713E+04  0.91840972218E+02 0.  0.
    5000000    2    1    2    0    0 -0.15720837276E+04 -0.64759158643E+03  0.55362010295E+03  0.18854585259E+04  0.59802719438E+03 0.  0.
         23    2    4    4    0    0 -0.14118684460E+04 -0.70283974395E+03  0.59559790821E+03  0.16882099210E+04  0.89216895787E+02 0.  0.
         23    2    4    4    0    0 -0.16021528156E+03  0.55248157522E+02 -0.41977805264E+02  0.19724860493E+03  0.91780066775E+02 0.  0.
          1    1    3    3  502    0  0.13374529718E+04  0.51751515719E+03 -0.27667833853E+03  0.14605318527E+04  0.00000000000E+00 0. -1.
         -1    1    3    3    0  502  0.23463075578E+03  0.13007642924E+03 -0.67259354197E+02  0.27657781857E+03  0.00000000000E+00 0.  1.
         15    1    5    5    0    0 -0.54547761264E+03 -0.29183900673E+03  0.27599934588E+03  0.67741761742E+03  0.17770000000E+01 0. -1.
        -15    1    5    5    0    0 -0.86639083337E+03 -0.41100073722E+03  0.31959856233E+03  0.10107923036E+04  0.17770000000E+01 0.  1.
          1    1    6    6  503    0 -0.22296466196E+02  0.94588358675E+01  0.27099288152E+02  0.36345197745E+02  0.00000000000E+00 0. -1.
         -1    1    6    6    0  503 -0.13791881537E+03  0.45789321655E+02 -0.69077093416E+02  0.16090340719E+03  0.00000000000E+00 0.  1.
<mgrwt>
<rscale>  0 0.17247403E+04</rscale>
<asrwt>0</asrwt>
<pdfrwt beam="1">  1        1 0.26252968E+00 0.17247403E+04</pdfrwt>
<pdfrwt beam="2">  1       -1 0.29478851E+00 0.17247403E+04</pdfrwt>
<totfact> 0.15504859E-01</totfact>
</mgrwt>
</event>
<event>
12    1  0.7781383E-008  0.1441676E+04  0.7818608E-02  0.8924192E-01
          1   -1    0    0  501    0  0.00000000000E+00  0.00000000000E+00  0.15047389332E+04  0.15047389332E+04  0.00000000000E+00 0. -1.
         -1   -1    0    0    0  501 -0.00000000000E+00 -0.00000000000E+00 -0.14709094302E+04  0.14709094302E+04  0.00000000000E+00 0.  1.
         23    2    1    2    0    0  0.14004790961E+04  0.13531257598E+03  0.24385368539E+03  0.14316804629E+04  0.10292296194E+03 0.  0.
    5000000    2    1    2    0    0 -0.14004790961E+04 -0.13531257598E+03 -0.21002418234E+03  0.15439679005E+04  0.60006293726E+03 0.  0.
         23    2    4    4    0    0 -0.12300419662E+04  0.31690170078E+02 -0.30658122198E+03  0.12710827235E+04  0.87474217860E+02 0.  0.
         23    2    4    4    0    0 -0.17043712995E+03 -0.16700274606E+03  0.96557039644E+02  0.27288517703E+03  0.90577731689E+02 0.  0.
          4    1    3    3  502    0  0.69820032320E+03  0.18908993066E+02  0.13871475334E+03  0.71209762262E+03  0.00000000000E+00 0. -1.
         -4    1    3    3    0  502  0.70227877291E+03  0.11640358292E+03  0.10513893205E+03  0.71958284029E+03  0.00000000000E+00 0.  1.
         15    1    5    5    0    0 -0.29335482579E+03  0.35151974568E+02 -0.99570038570E+02  0.31178528740E+03  0.17770000000E+01 0.  1.
        -15    1    5    5    0    0 -0.93668714038E+03 -0.34618044901E+01 -0.20701118341E+03  0.95929743606E+03  0.17770000000E+01 0. -1.
          4    1    6    6  503    0 -0.10636678815E+03 -0.12563867393E+03  0.10637003323E+03  0.19599376004E+03  0.00000000000E+00 0. -1.
         -4    1    6    6    0  503 -0.64070341802E+02 -0.41364072136E+02 -0.98129935874E+01  0.76891416982E+02  0.00000000000E+00 0.  1.
<mgrwt>
<rscale>  0 0.14416755E+04</rscale>
<asrwt>0</asrwt>
<pdfrwt beam="1">  1        1 0.23149830E+00 0.14416755E+04</pdfrwt>
<pdfrwt beam="2">  1       -1 0.22629376E+00 0.14416755E+04</pdfrwt>
<totfact> 0.61766727E-01</totfact>
</mgrwt>
</event>
<event>
12    1  0.7781383E-008  0.1435302E+04  0.7818608E-02  0.8928655E-01
          2   -1    0    0  501    0  0.00000000000E+00  0.00000000000E+00  0.25012754518E+04  0.25012754518E+04  0.00000000000E+00 0. -1.
         -2   -1    0    0    0  501 -0.00000000000E+00 -0.00000000000E+00 -0.95648924473E+03  0.95648924473E+03  0.00000000000E+00 0.  1.
         23    2    1    2    0    0  0.14191213305E+04 -0.10590483156E+03  0.26140729002E+03  0.14497221159E+04  0.90770358251E+02 0.  0.
    5000000    2    1    2    0    0 -0.14191213305E+04  0.10590483156E+03  0.12833789171E+04  0.20080425806E+04  0.60004364575E+03 0.  0.
         23    2    4    4    0    0 -0.79991229548E+03 -0.50491790008E+02  0.10472790399E+04  0.13219874245E+04  0.91914425815E+02 0.  0.
         23    2    4    4    0    0 -0.61920903505E+03  0.15639662157E+03  0.23609987714E+03  0.68605515617E+03  0.83957090264E+02 0.  0.
          4    1    3    3  502    0  0.13941724179E+04 -0.11425512901E+03  0.24984052473E+03  0.14209824957E+04  0.00000000000E+00 0.  1.
         -4    1    3    3    0  502  0.24948912655E+02  0.83502974511E+01  0.11566765298E+02  0.28739620207E+02  0.00000000000E+00 0. -1.
         15    1    5    5    0    0 -0.30909849380E+03 -0.64225565698E+02  0.40322426055E+03  0.51211303848E+03  0.17770000000E+01 0. -1.
        -15    1    5    5    0    0 -0.49081380168E+03  0.13733775690E+02  0.64405477938E+03  0.80987438599E+03  0.17770000000E+01 0.  1.
          2    1    6    6  503    0 -0.25147766580E+03  0.58451991064E+02  0.52229960896E+02  0.26341150406E+03  0.00000000000E+00 0. -1.
         -2    1    6    6    0  503 -0.36773136924E+03  0.97944630507E+02  0.18386991625E+03  0.42264365211E+03  0.00000000000E+00 0.  1.
<mgrwt>
<rscale>  0 0.14353016E+04</rscale>
<asrwt>0</asrwt>
<pdfrwt beam="1">  1        2 0.38481161E+00 0.14353016E+04</pdfrwt>
<pdfrwt beam="2">  1       -2 0.14715219E+00 0.14353016E+04</pdfrwt>
<totfact> 0.10424633E+00</totfact>
</mgrwt>
</event>
<event>
12    1  0.7781383E-008  0.6019309E+03  0.7818608E-02  0.9901408E-01
         -1   -1    0    0    0  501 -0.00000000000E+00  0.00000000000E+00  0.17717455404E+03  0.17717455404E+03  0.00000000000E+00 0.  1.
          1   -1    0    0  501    0  0.00000000000E+00 -0.00000000000E+00 -0.24340301826E+04  0.24340301826E+04  0.00000000000E+00 0. -1.
         23    2    1    2    0    0  0.19089400478E+03  0.47155562780E+03 -0.74107909355E+03  0.90346519566E+03  0.90806969429E+02 0.  0.
    5000000    2    1    2    0    0 -0.19089400478E+03 -0.47155562780E+03 -0.15157765350E+04  0.17077395410E+04  0.59999217045E+03 0.  0.
         23    2    4    4    0    0 -0.10635451115E+03  0.58429132732E+02 -0.76385310168E+03  0.77954833173E+03  0.97461761500E+02 0.  0.
         23    2    4    4    0    0 -0.84539493633E+02 -0.52998476053E+03 -0.75192343331E+03  0.92819120924E+03  0.90107152788E+02 0.  0.
          3    1    3    3  502    0  0.16259825549E+03  0.45545038805E+03 -0.68288715861E+03  0.83678439282E+03  0.00000000000E+00 0. -1.
         -3    1    3    3    0  502  0.28295749293E+02  0.16105239741E+02 -0.58191934941E+02  0.66680802840E+02  0.00000000000E+00 0.  1.
         15    1    5    5    0    0 -0.11919247619E+03  0.57202955617E+02 -0.56480134786E+03  0.58007132733E+03  0.17770000000E+01 0. -1.
        -15    1    5    5    0    0  0.12837965036E+02  0.12261771149E+01 -0.19905175382E+03  0.19947700440E+03  0.17770000000E+01 0.  1.
          1    1    6    6  503    0 -0.66528402299E+02 -0.17817344779E+03 -0.29969977999E+03  0.35495318555E+03  0.00000000000E+00 0. -1.
         -1    1    6    6    0  503 -0.18011091333E+02 -0.35181131274E+03 -0.45222365332E+03  0.57323802369E+03  0.00000000000E+00 0.  1.
<mgrwt>
<rscale>  0 0.60193094E+03</rscale>
<asrwt>0</asrwt>
<pdfrwt beam="1">  1        1 0.37446617E+00 0.60193094E+03</pdfrwt>
<pdfrwt beam="2">  1       -1 0.27257625E-01 0.60193094E+03</pdfrwt>
<totfact> 0.19479807E+01</totfact>
</mgrwt>
</event>
<event>
12    1  0.7781383E-008  0.9723557E+03  0.7818608E-02  0.9339395E-01
          2   -1    0    0  501    0  0.00000000000E+00  0.00000000000E+00  0.43621899931E+04  0.43621899931E+04  0.00000000000E+00 0. -1.
         -2   -1    0    0    0  501 -0.00000000000E+00 -0.00000000000E+00 -0.24146817674E+03  0.24146817674E+03  0.00000000000E+00 0.  1.
         23    2    1    2    0    0 -0.56960922519E+01  0.89052944730E+03  0.25363594774E+04  0.26896945208E+04  0.90895954564E+02 0.  0.
    5000000    2    1    2    0    0  0.56960922519E+01 -0.89052944730E+03  0.15843623389E+04  0.19139636490E+04  0.59998140535E+03 0.  0.
         23    2    4    4    0    0 -0.22479499663E+03 -0.70832752892E+03  0.12688957675E+04  0.14734064372E+04  0.92570954573E+02 0.  0.
         23    2    4    4    0    0  0.23049108888E+03 -0.18220191838E+03  0.31546657138E+03  0.44055721179E+03  0.90817498790E+02 0.  0.
          2    1    3    3  502    0  0.39976498814E+02  0.38728090347E+03  0.10585726268E+04  0.11279009818E+04  0.00000000000E+00 0. -1.
         -2    1    3    3    0  502 -0.45672591066E+02  0.50324854383E+03  0.14777868507E+04  0.15617935390E+04  0.00000000000E+00 0.  1.
         15    1    5    5    0    0 -0.17489753546E+03 -0.64079141682E+03  0.11452000824E+04  0.13238916777E+04  0.17770000000E+01 0.  1.
        -15    1    5    5    0    0 -0.49897461170E+02 -0.67536112100E+02  0.12369568514E+03  0.14951475954E+03  0.17770000000E+01 0. -1.
          1    1    6    6  503    0  0.13381879330E+03 -0.14741239094E+03  0.16618238698E+03  0.25933466445E+03  0.00000000000E+00 0. -1.
         -1    1    6    6    0  503  0.96672295575E+02 -0.34789527443E+02  0.14928418441E+03  0.18122254734E+03  0.00000000000E+00 0.  1.
<mgrwt>
<rscale>  0 0.97235574E+03</rscale>
<asrwt>0</asrwt>
<pdfrwt beam="1">  1        2 0.67110609E+00 0.97235574E+03</pdfrwt>
<pdfrwt beam="2">  1       -2 0.37148954E-01 0.97235574E+03</pdfrwt>
<totfact> 0.12225826E+00</totfact>
</mgrwt>
</event>
<event>
12    1  0.7781383E-008  0.6503051E+03  0.7818608E-02  0.9806207E-01
          1   -1    0    0  501    0  0.00000000000E+00  0.00000000000E+00  0.33107284509E+03  0.33107284509E+03  0.00000000000E+00 0. -1.
         -1   -1    0    0    0  501 -0.00000000000E+00 -0.00000000000E+00 -0.16136718221E+04  0.16136718221E+04  0.00000000000E+00 0.  1.
         23    2    1    2    0    0  0.43629701133E+03 -0.28680784122E+03 -0.93923944079E+03  0.10783294957E+04  0.89498347996E+02 0.  0.
    5000000    2    1    2    0    0 -0.43629701133E+03  0.28680784122E+03 -0.34335953619E+03  0.86641517145E+03  0.60013803274E+03 0.  0.
         23    2    4    4    0    0 -0.81481133910E+02  0.39030980087E+03 -0.12406188434E+03  0.42730155611E+03  0.90633067198E+02 0.  0.
         23    2    4    4    0    0 -0.35481587742E+03 -0.10350195965E+03 -0.21929765184E+03  0.43911361534E+03  0.90124050888E+02 0.  0.
          1    1    3    3  502    0  0.19558596117E+03 -0.14081149904E+03 -0.34577858720E+03  0.42147903605E+03  0.00000000000E+00 0. -1.
         -1    1    3    3    0  502  0.24071105016E+03 -0.14599634218E+03 -0.59346085359E+03  0.65685045965E+03  0.00000000000E+00 0.  1.
         15    1    5    5    0    0 -0.25256893537E+02  0.30584489610E+03 -0.10248245593E+03  0.32355034020E+03  0.17770000000E+01 0. -1.
        -15    1    5    5    0    0 -0.56224240373E+02  0.84464904776E+02 -0.21579428410E+02  0.10375121591E+03  0.17770000000E+01 0.  1.
          4    1    6    6  503    0 -0.12833721530E+03 -0.33020882766E+02 -0.13009366126E+03  0.18570185844E+03  0.00000000000E+00 0. -1.
         -4    1    6    6    0  503 -0.22647866213E+03 -0.70481076884E+02 -0.89203990583E+02  0.25341175690E+03  0.00000000000E+00 0.  1.
<mgrwt>
<rscale>  0 0.65030508E+03</rscale>
<asrwt>0</asrwt>
<pdfrwt beam="1">  1        1 0.50934283E-01 0.65030508E+03</pdfrwt>
<pdfrwt beam="2">  1       -1 0.24825721E+00 0.65030508E+03</pdfrwt>
<totfact> 0.58117088E+00</totfact>
</mgrwt>
</event>
<event>
12    1  0.7781383E-008  0.8510080E+03  0.7818608E-02  0.9488985E-01
         -1   -1    0    0    0  501 -0.00000000000E+00  0.00000000000E+00  0.73460116432E+03  0.73460116432E+03  0.00000000000E+00 0.  1.
          1   -1    0    0  501    0  0.00000000000E+00 -0.00000000000E+00 -0.14529808325E+04  0.14529808325E+04  0.00000000000E+00 0. -1.
         23    2    1    2    0    0  0.75282765932E+03 -0.23214492653E+03 -0.88009579721E+03  0.11841786133E+04  0.84081057810E+02 0.  0.
    5000000    2    1    2    0    0 -0.75282765932E+03  0.23214492653E+03  0.16171612908E+03  0.10034033835E+04  0.60002124303E+03 0.  0.
         23    2    4    4    0    0 -0.40870470345E+03  0.35025157769E+03 -0.87851270176E+02  0.55310670803E+03  0.92160091725E+02 0.  0.
         23    2    4    4    0    0 -0.34412295588E+03 -0.11810665116E+03  0.24956739926E+03  0.45029667548E+03  0.90074521190E+02 0.  0.
          4    1    3    3  502    0  0.36218147360E+03 -0.10517490396E+03 -0.35939153058E+03  0.52096012563E+03  0.00000000000E+00 0. -1.
         -4    1    3    3    0  502  0.39064618573E+03 -0.12697002258E+03 -0.52070426663E+03  0.66321848764E+03  0.00000000000E+00 0.  1.
         15    1    5    5    0    0 -0.93032041507E+02  0.60038552177E+02 -0.53335315610E+02  0.12291217236E+03  0.17770000000E+01 0.  1.
        -15    1    5    5    0    0 -0.31567266194E+03  0.29021302551E+03 -0.34515954566E+02  0.43019453567E+03  0.17770000000E+01 0. -1.
          4    1    6    6  503    0 -0.79505155134E+02 -0.69332961066E+02  0.77692574330E+02  0.13101246234E+03  0.00000000000E+00 0.  1.
         -4    1    6    6    0  503 -0.26461780074E+03 -0.48773690090E+02  0.17187482492E+03  0.31928421314E+03  0.00000000000E+00 0. -1.
<mgrwt>
<rscale>  0 0.85100800E+03</rscale>
<asrwt>0</asrwt>
<pdfrwt beam="1">  1        1 0.22353551E+00 0.85100800E+03</pdfrwt>
<pdfrwt beam="2">  1       -1 0.11301556E+00 0.85100800E+03</pdfrwt>
<totfact> 0.51739825E+00</totfact>
</mgrwt>
</event>
<event>
12    1  0.7781383E-008  0.1354867E+04  0.7818608E-02  0.8987152E-01
          1   -1    0    0  501    0  0.00000000000E+00  0.00000000000E+00  0.29241209183E+04  0.29241209183E+04  0.00000000000E+00 0. -1.
         -1   -1    0    0    0  501 -0.00000000000E+00 -0.00000000000E+00 -0.12434157429E+04  0.12434157429E+04  0.00000000000E+00 0.  1.
         23    2    1    2    0    0  0.13276052904E+04  0.22759216723E+02 -0.60108493189E+03  0.14601999743E+04  0.88470790043E+02 0.  0.
    5000000    2    1    2    0    0 -0.13276052904E+04 -0.22759216723E+02  0.22817901073E+04  0.27073366869E+04  0.60004337606E+03 0.  0.
         23    2    4    4    0    0 -0.15471998939E+03 -0.99353013383E+02  0.10170157349E+03  0.22891128354E+03  0.90817780736E+02 0.  0.
         23    2    4    4    0    0 -0.11728853010E+04  0.76593796659E+02  0.21800885338E+04  0.24784254033E+04  0.90994095896E+02 0.  0.
          4    1    3    3  502    0  0.75382168958E+03  0.11906158771E+02 -0.29303191105E+03  0.80886129663E+03  0.00000000000E+00 0. -1.
         -4    1    3    3    0  502  0.57378360082E+03  0.10853057953E+02 -0.30805302083E+03  0.65133867771E+03  0.00000000000E+00 0.  1.
         15    1    5    5    0    0 -0.16121554127E+02  0.15959646079E+02  0.22426689830E+02  0.31948849059E+02  0.17770000000E+01 0.  1.
        -15    1    5    5    0    0 -0.13859843526E+03 -0.11531265946E+03  0.79274883655E+02  0.19696243448E+03  0.17770000000E+01 0. -1.
          3    1    6    6  503    0 -0.11264159030E+04  0.91356484774E+02  0.20864690368E+04  0.23728699575E+04  0.00000000000E+00 0. -1.
         -3    1    6    6    0  503 -0.46469398027E+02 -0.14762688114E+02  0.93619497005E+02  0.10555544578E+03  0.00000000000E+00 0.  1.
<mgrwt>
<rscale>  0 0.13548668E+04</rscale>
<asrwt>0</asrwt>
<pdfrwt beam="1">  1        1 0.44986475E+00 0.13548668E+04</pdfrwt>
<pdfrwt beam="2">  1       -1 0.19129473E+00 0.13548668E+04</pdfrwt>
<totfact> 0.11356891E-01</totfact>
</mgrwt>
</event>
<event>
12    1  0.7781383E-008  0.1251000E+04  0.7818608E-02  0.9069351E-01
         -2   -1    0    0    0  501 -0.00000000000E+00  0.00000000000E+00  0.12452603376E+04  0.12452603376E+04  0.00000000000E+00 0.  1.
          2   -1    0    0  501    0  0.00000000000E+00 -0.00000000000E+00 -0.15035753500E+04  0.15035753500E+04  0.00000000000E+00 0. -1.
         23    2    1    2    0    0 -0.10182903437E+04  0.66891614219E+03 -0.58145365201E+03  0.13529973269E+04  0.90273959896E+02 0.  0.
    5000000    2    1    2    0    0  0.10182903437E+04 -0.66891614219E+03  0.32313863951E+03  0.13958383607E+04  0.59965166505E+03 0.  0.
         23    2    4    4    0    0  0.22712049992E+03  0.42124950215E+01  0.25142167027E+03  0.35144447187E+03  0.93267861160E+02 0.  0.
         23    2    4    4    0    0  0.79116984380E+03 -0.67312863721E+03  0.71716969236E+02  0.10443938888E+04  0.81014735283E+02 0.  0.
          2    1    3    3  502    0 -0.15837712619E+03  0.11966866187E+03 -0.12962694672E+03  0.23708025656E+03  0.00000000000E+00 0. -1.
         -2    1    3    3    0  502 -0.85991321754E+03  0.54924748032E+03 -0.45182670528E+03  0.11159170704E+04  0.00000000000E+00 0.  1.
         15    1    5    5    0    0  0.14375390605E+03  0.43864291943E+02  0.12878056830E+03  0.19793143791E+03  0.17770000000E+01 0.  1.
        -15    1    5    5    0    0  0.83366593865E+02 -0.39651796922E+02  0.12264110197E+03  0.15351303395E+03  0.17770000000E+01 0. -1.
          2    1    6    6  503    0  0.39349438922E+03 -0.29550750994E+03  0.61210860667E+02  0.49589242003E+03  0.00000000000E+00 0. -1.
         -2    1    6    6    0  503  0.39767545459E+03 -0.37762112727E+03  0.10506108569E+02  0.54850146878E+03  0.00000000000E+00 0.  1.
<mgrwt>
<rscale>  0 0.12510003E+04</rscale>
<asrwt>0</asrwt>
<pdfrwt beam="1">  1        2 0.23131928E+00 0.12510003E+04</pdfrwt>
<pdfrwt beam="2">  1       -2 0.19157851E+00 0.12510003E+04</pdfrwt>
<totfact> 0.18442871E+00</totfact>
</mgrwt>
</event>
<event>
12    1  0.7781383E-008  0.1033811E+04  0.7818608E-02  0.9272220E-01
          1   -1    0    0  501    0  0.00000000000E+00  0.00000000000E+00  0.16652436006E+04  0.16652436006E+04  0.00000000000E+00 0. -1.
         -1   -1    0    0    0  501 -0.00000000000E+00 -0.00000000000E+00 -0.68638425837E+03  0.68638425837E+03  0.00000000000E+00 0.  1.
         23    2    1    2    0    0  0.41842130031E+03  0.87021557525E+03  0.25143462971E+03  0.10019815063E+04  0.91629875395E+02 0.  0.
    5000000    2    1    2    0    0 -0.41842130031E+03 -0.87021557525E+03  0.72742471256E+03  0.13496463527E+04  0.60003919277E+03 0.  0.
         23    2    4    4    0    0 -0.34195250565E+02 -0.63979074410E+03  0.57938702225E+03  0.86887096611E+03  0.93519638516E+02 0.  0.
         23    2    4    4    0    0 -0.38422604974E+03 -0.23042483115E+03  0.14803769030E+03  0.48077538656E+03  0.92220141284E+02 0.  0.
          1    1    3    3  502    0  0.23014433218E+03  0.37694442665E+03  0.10230539990E+03  0.45334303707E+03  0.00000000000E+00 0. -1.
         -1    1    3    3    0  502  0.18827696813E+03  0.49327114860E+03  0.14912922981E+03  0.54863846927E+03  0.00000000000E+00 0.  1.
         15    1    5    5    0    0 -0.35279464535E+02 -0.42759591740E+03  0.44245220982E+03  0.61631974242E+03  0.17770000000E+01 0. -1.
        -15    1    5    5    0    0  0.10842139700E+01 -0.21219482670E+03  0.13693481243E+03  0.25255122368E+03  0.17770000000E+01 0.  1.
          1    1    6    6  503    0 -0.72750893826E+02 -0.63389359372E+01  0.33455266008E+02  0.80325148521E+02  0.00000000000E+00 0. -1.
         -1    1    6    6    0  503 -0.31147515592E+03 -0.22408589521E+03  0.11458242430E+03  0.40045023804E+03  0.00000000000E+00 0.  1.
<mgrwt>
<rscale>  0 0.10338108E+04</rscale>
<asrwt>0</asrwt>
<pdfrwt beam="1">  1        1 0.25619132E+00 0.10338108E+04</pdfrwt>
<pdfrwt beam="2">  1       -1 0.10559758E+00 0.10338108E+04</pdfrwt>
<totfact> 0.42414610E+00</totfact>
</mgrwt>
</event>
<event>
12    1  0.7781383E-008  0.8126426E+03  0.7818608E-02  0.9541896E-01
         -1   -1    0    0    0  501 -0.00000000000E+00  0.00000000000E+00  0.41690496322E+03  0.41690496322E+03  0.00000000000E+00 0.  1.
          1   -1    0    0  501    0  0.00000000000E+00 -0.00000000000E+00 -0.22443775355E+04  0.22443775355E+04  0.00000000000E+00 0. -1.
         23    2    1    2    0    0 -0.71906099725E+03 -0.29799309625E+03 -0.28815660552E+03  0.83498543460E+03  0.91202212235E+02 0.  0.
    5000000    2    1    2    0    0  0.71906099725E+03  0.29799309625E+03 -0.15393159668E+04  0.18262970641E+04  0.60001559790E+03 0.  0.
         23    2    4    4    0    0  0.61415540795E+03  0.13047446564E+03 -0.64088653009E+03  0.90179335959E+03  0.91023445545E+02 0.  0.
         23    2    4    4    0    0  0.10490558930E+03  0.16751863061E+03 -0.89842943666E+03  0.92450370453E+03  0.91999851993E+02 0.  0.
          4    1    3    3  502    0 -0.48486335378E+03 -0.23867445510E+03 -0.17371215634E+03  0.56765648117E+03  0.00000000000E+00 0. -1.
         -4    1    3    3    0  502 -0.23419764346E+03 -0.59318641154E+02 -0.11444444919E+03  0.26732895343E+03  0.00000000000E+00 0.  1.
         15    1    5    5    0    0  0.54587538375E+03  0.10671400889E+03 -0.60224655738E+03  0.81979990723E+03  0.17770000000E+01 0.  1.
        -15    1    5    5    0    0  0.68280024200E+02  0.23760456758E+02 -0.38639972711E+02  0.81993452362E+02  0.17770000000E+01 0. -1.
          3    1    6    6  503    0 -0.12195896650E+02  0.39043406979E+02 -0.24273624270E+03  0.24615850797E+03  0.00000000000E+00 0. -1.
         -3    1    6    6    0  503  0.11710148595E+03  0.12847522363E+03 -0.65569319396E+03  0.67834519657E+03  0.00000000000E+00 0.  1.
<mgrwt>
<rscale>  0 0.81264257E+03</rscale>
<asrwt>0</asrwt>
<pdfrwt beam="1">  1        1 0.34528884E+00 0.81264257E+03</pdfrwt>
<pdfrwt beam="2">  1       -1 0.64139227E-01 0.81264257E+03</pdfrwt>
<totfact> 0.52223784E+00</totfact>
</mgrwt>
</event>
<event>
12    1  0.7781383E-008  0.5587880E+03  0.7818608E-02  0.9994801E-01
          1   -1    0    0  501    0  0.00000000000E+00  0.00000000000E+00  0.10098059291E+04  0.10098059291E+04  0.00000000000E+00 0. -1.
         -1   -1    0    0    0  501 -0.00000000000E+00 -0.00000000000E+00 -0.38919324006E+03  0.38919324006E+03  0.00000000000E+00 0.  1.
         23    2    1    2    0    0 -0.40364084706E+03  0.11945435707E+03  0.49435614092E+03  0.65528632846E+03  0.88413242008E+02 0.  0.
    5000000    2    1    2    0    0  0.40364084706E+03 -0.11945435707E+03  0.12625654809E+03  0.74371284068E+03  0.59997733009E+03 0.  0.
         23    2    4    4    0    0  0.28944059724E+03  0.19282752643E+03 -0.39474475390E+02  0.36220937213E+03  0.93161584212E+02 0.  0.
         23    2    4    4    0    0  0.11420024982E+03 -0.31228188350E+03  0.16573102348E+03  0.38150346855E+03  0.86697477201E+02 0.  0.
          2    1    3    3  502    0 -0.15480524426E+03  0.67725160545E+02  0.25674056481E+03  0.30735497172E+03  0.00000000000E+00 0. -1.
         -2    1    3    3    0  502 -0.24883560279E+03  0.51729196523E+02  0.23761557611E+03  0.34793135674E+03  0.00000000000E+00 0.  1.
         15    1    5    5    0    0  0.22767813064E+03  0.12569536331E+03 -0.63791811983E+02  0.26778575118E+03  0.17770000000E+01 0.  1.
        -15    1    5    5    0    0  0.61762466599E+02  0.67132163122E+02  0.24317336593E+02  0.94423620953E+02  0.17770000000E+01 0. -1.
          3    1    6    6  503    0  0.51185723198E+02 -0.43836227197E+02  0.40800775951E+02  0.78780050725E+02  0.00000000000E+00 0. -1.
         -3    1    6    6    0  503  0.63014526622E+02 -0.26844565630E+03  0.12493024753E+03  0.30272341783E+03  0.00000000000E+00 0.  1.
<mgrwt>
<rscale>  0 0.55878803E+03</rscale>
<asrwt>0</asrwt>
<pdfrwt beam="1">  1        1 0.15535476E+00 0.55878803E+03</pdfrwt>
<pdfrwt beam="2">  1       -1 0.59875883E-01 0.55878803E+03</pdfrwt>
<totfact> 0.44081568E+01</totfact>
</mgrwt>
</event>
<event>
12    1  0.7781383E-008  0.8750315E+03  0.7818608E-02  0.9457343E-01
          1   -1    0    0  501    0  0.00000000000E+00  0.00000000000E+00  0.18878502101E+04  0.18878502101E+04  0.00000000000E+00 0. -1.
         -1   -1    0    0    0  501 -0.00000000000E+00 -0.00000000000E+00 -0.49273059952E+03  0.49273059952E+03  0.00000000000E+00 0.  1.
         23    2    1    2    0    0 -0.17457800086E+03  0.84786304666E+03  0.71620587538E+03  0.11274338668E+04  0.93845851123E+02 0.  0.
    5000000    2    1    2    0    0  0.17457800086E+03 -0.84786304666E+03  0.67891373523E+03  0.12531469429E+04  0.60008680725E+03 0.  0.
         23    2    4    4    0    0  0.34391742488E+02 -0.31193076563E+03 -0.52193340523E+02  0.33094716113E+03  0.91204628008E+02 0.  0.
         23    2    4    4    0    0  0.14018625837E+03 -0.53593228103E+03  0.73110707575E+03  0.92219978172E+03  0.95180272691E+02 0.  0.
          3    1    3    3  502    0 -0.10001704281E+03  0.48154528305E+03  0.34616108681E+03  0.60142893720E+03  0.00000000000E+00 0.  1.
         -3    1    3    3    0  502 -0.74560958045E+02  0.36631776361E+03  0.37004478857E+03  0.52600492959E+03  0.00000000000E+00 0. -1.
         15    1    5    5    0    0 -0.23647531086E+02 -0.97362972803E+02  0.83703948509E+01  0.10055831859E+03  0.17770000000E+01 0. -1.
        -15    1    5    5    0    0  0.58039273574E+02 -0.21456779283E+03 -0.60563735374E+02  0.23038884254E+03  0.17770000000E+01 0.  1.
          1    1    6    6  503    0  0.64204685516E+02 -0.40878276215E+03  0.54811383017E+03  0.68677096553E+03  0.00000000000E+00 0. -1.
         -1    1    6    6    0  503  0.75981572856E+02 -0.12714951888E+03  0.18299324559E+03  0.23542881620E+03  0.00000000000E+00 0.  1.
<mgrwt>
<rscale>  0 0.87503149E+03</rscale>
<asrwt>0</asrwt>
<pdfrwt beam="1">  1        1 0.29043849E+00 0.87503149E+03</pdfrwt>
<pdfrwt beam="2">  1       -1 0.75804709E-01 0.87503149E+03</pdfrwt>
<totfact> 0.63737168E+00</totfact>
</mgrwt>
</event>
<event>
12    1  0.7781383E-008  0.1188037E+04  0.7818608E-02  0.9123393E-01
         -2   -1    0    0    0  501 -0.00000000000E+00  0.00000000000E+00  0.71113040549E+03  0.71113040549E+03  0.00000000000E+00 0. -1.
          2   -1    0    0  501    0  0.00000000000E+00 -0.00000000000E+00 -0.21160072215E+04  0.21160072215E+04  0.00000000000E+00 0.  1.
         23    2    1    2    0    0  0.90798821533E+03 -0.66086805780E+03 -0.95463187883E+03  0.14766380549E+04  0.89155662299E+02 0.  0.
    5000000    2    1    2    0    0 -0.90798821533E+03  0.66086805780E+03 -0.45024493713E+03  0.13504995720E+04  0.59994949925E+03 0.  0.
         23    2    4    4    0    0 -0.20889286848E+03 -0.82419034284E+02 -0.14689644372E+03  0.28192551122E+03  0.86454039727E+02 0.  0.
         23    2    4    4    0    0 -0.69909534685E+03  0.74328709209E+03 -0.30334849341E+03  0.10685740608E+04  0.92845084641E+02 0.  0.
          1    1    3    3  502    0  0.76591017018E+03 -0.55958666492E+03 -0.76186691731E+03  0.12166333975E+04  0.00000000000E+00 0. -1.
         -1    1    3    3    0  502  0.14207804516E+03 -0.10128139288E+03 -0.19276496152E+03  0.26000465736E+03  0.00000000000E+00 0.  1.
         15    1    5    5    0    0 -0.96905522059E+02 -0.15582767421E+02 -0.10772150935E+03  0.14574149770E+03  0.17770000000E+01 0.  1.
        -15    1    5    5    0    0 -0.11198734642E+03 -0.66836266863E+02 -0.39174934368E+02  0.13618401352E+03  0.17770000000E+01 0. -1.
          1    1    6    6  503    0 -0.27779888411E+03  0.36133350996E+03 -0.14461645427E+03  0.47817156364E+03  0.00000000000E+00 0. -1.
         -1    1    6    6    0  503 -0.42129646274E+03  0.38195358213E+03 -0.15873203915E+03  0.59040249717E+03  0.00000000000E+00 0.  1.
<mgrwt>
<rscale>  0 0.11880371E+04</rscale>
<asrwt>0</asrwt>
<pdfrwt beam="1">  1        2 0.32553957E+00 0.11880371E+04</pdfrwt>
<pdfrwt beam="2">  1       -2 0.10940468E+00 0.11880371E+04</pdfrwt>
<totfact> 0.37539439E+00</totfact>
</mgrwt>
</event>
<event>
12    1  0.7781383E-008  0.6375937E+03  0.7818608E-02  0.9830341E-01
          2   -1    0    0  501    0  0.00000000000E+00  0.00000000000E+00  0.11544767382E+04  0.11544767382E+04  0.00000000000E+00 0. -1.
         -2   -1    0    0    0  501 -0.00000000000E+00 -0.00000000000E+00 -0.72374049830E+03  0.72374049830E+03  0.00000000000E+00 0.  1.
         23    2    1    2    0    0  0.53051526090E+03  0.30117354108E+03  0.74439504774E+03  0.96677978128E+03  0.91581736642E+02 0.  0.
    5000000    2    1    2    0    0 -0.53051526090E+03 -0.30117354108E+03 -0.31365880785E+03  0.91143745522E+03  0.60015368293E+03 0.  0.
         23    2    4    4    0    0 -0.50277430219E+03 -0.21860791510E+03 -0.45694577262E+03  0.71944953918E+03  0.90756712320E+02 0.  0.
         23    2    4    4    0    0 -0.27740958714E+02 -0.82565625982E+02  0.14328696476E+03  0.19198791604E+03  0.93496322110E+02 0.  0.
          4    1    3    3  502    0  0.38271701147E+03  0.17239757748E+03  0.48011106784E+03  0.63773025101E+03  0.00000000000E+00 0. -1.
         -4    1    3    3    0  502  0.14779824943E+03  0.12877596360E+03  0.26428397990E+03  0.32904953027E+03  0.00000000000E+00 0.  1.
         15    1    5    5    0    0 -0.14829938644E+03 -0.10248514688E+03 -0.11815172023E+03  0.21554326729E+03  0.17770000000E+01 0. -1.
        -15    1    5    5    0    0 -0.35447491575E+03 -0.11612276821E+03 -0.33879405239E+03  0.50390627190E+03  0.17770000000E+01 0.  1.
          4    1    6    6  503    0  0.17650889201E+02 -0.93633153256E+01  0.86598175268E+02  0.88873334152E+02  0.00000000000E+00 0.  1.
         -4    1    6    6    0  503 -0.45391847915E+02 -0.73202310656E+02  0.56688789497E+02  0.10311458188E+03  0.00000000000E+00 0. -1.
<mgrwt>
<rscale>  0 0.63759371E+03</rscale>
<asrwt>0</asrwt>
<pdfrwt beam="1">  1        2 0.17761181E+00 0.63759371E+03</pdfrwt>
<pdfrwt beam="2">  1       -2 0.11134469E+00 0.63759371E+03</pdfrwt>
<totfact> 0.13305393E+01</totfact>
</mgrwt>
</event>
<event>
12    1  0.7781383E-008  0.5641153E+03  0.7818608E-02  0.9982786E-01
         -2   -1    0    0    0  501 -0.00000000000E+00  0.00000000000E+00  0.50838429529E+03  0.50838429529E+03  0.00000000000E+00 0.  1.
          2   -1    0    0  501    0  0.00000000000E+00 -0.00000000000E+00 -0.88285829599E+03  0.88285829599E+03  0.00000000000E+00 0. -1.
         23    2    1    2    0    0 -0.31903033799E+03 -0.41862220415E+03 -0.77747733022E+02  0.53968798118E+03  0.90517957738E+02 0.  0.
    5000000    2    1    2    0    0  0.31903033799E+03  0.41862220415E+03 -0.29672626768E+03  0.85155461009E+03  0.60006155490E+03 0.  0.
         23    2    4    4    0    0  0.28870657288E+03  0.40779481627E+03 -0.44405794426E+03  0.67511993714E+03  0.94611702559E+02 0.  0.
         23    2    4    4    0    0  0.30323765112E+02  0.10827387875E+02  0.14733167658E+03  0.17643467295E+03  0.91574056576E+02 0.  0.
          3    1    3    3  502    0 -0.73662904471E+02 -0.74691212891E+02 -0.50223073051E+02  0.11630717022E+03  0.00000000000E+00 0. -1.
         -3    1    3    3    0  502 -0.24536743352E+03 -0.34393099126E+03 -0.27524659971E+02  0.42338081096E+03  0.00000000000E+00 0.  1.
         15    1    5    5    0    0  0.26453240692E+03  0.31795242891E+03 -0.38387182686E+03  0.56429768611E+03  0.17770000000E+01 0.  1.
        -15    1    5    5    0    0  0.24174165960E+02  0.89842387366E+02 -0.60186117393E+02  0.11082225103E+03  0.17770000000E+01 0. -1.
          4    1    6    6  503    0 -0.23110779732E+02 -0.21630725683E+02  0.30665170246E+02  0.44072089803E+02  0.00000000000E+00 0. -1.
         -4    1    6    6    0  503  0.53434544844E+02  0.32458113557E+02  0.11666650633E+03  0.13236258315E+03  0.00000000000E+00 0.  1.
<mgrwt>
<rscale>  0 0.56411528E+03</rscale>
<asrwt>0</asrwt>
<pdfrwt beam="1">  1        2 0.13582435E+00 0.56411528E+03</pdfrwt>
<pdfrwt beam="2">  1       -2 0.78212969E-01 0.56411528E+03</pdfrwt>
<totfact> 0.45247667E+01</totfact>
</mgrwt>
</event>
<event>
12    1  0.7781383E-008  0.6706385E+03  0.7818608E-02  0.9768805E-01
          1   -1    0    0  501    0  0.00000000000E+00  0.00000000000E+00  0.15779053759E+04  0.15779053759E+04  0.00000000000E+00 0.  1.
         -1   -1    0    0    0  501 -0.00000000000E+00 -0.00000000000E+00 -0.39400199529E+03  0.39400199529E+03  0.00000000000E+00 0. -1.
         23    2    1    2    0    0 -0.34405247648E+03 -0.53089901325E+03  0.22919336584E+03  0.67892011292E+03  0.90427053111E+02 0.  0.
    5000000    2    1    2    0    0  0.34405247648E+03  0.53089901325E+03  0.95471001482E+03  0.12929872583E+04  0.60009913259E+03 0.  0.
         23    2    4    4    0    0  0.29419369540E+03  0.22192840260E+03  0.87974171452E+03  0.95844606808E+03  0.94187232959E+02 0.  0.
         23    2    4    4    0    0  0.49858781074E+02  0.30897061065E+03  0.74968300304E+02  0.33454119024E+03  0.91371908288E+02 0.  0.
          1    1    3    3  502    0 -0.50909289992E+02 -0.14285113937E+03  0.71531976659E+02  0.16767536346E+03  0.00000000000E+00 0. -1.
         -1    1    3    3    0  502 -0.29314318649E+03 -0.38804787388E+03  0.15766138918E+03  0.51124474946E+03  0.00000000000E+00 0.  1.
         15    1    5    5    0    0  0.13032462726E+03  0.43501815209E+02  0.29109243181E+03  0.32189264978E+03  0.17770000000E+01 0.  1.
        -15    1    5    5    0    0  0.16386906815E+03  0.17842658740E+03  0.58864928271E+03  0.63655341830E+03  0.17770000000E+01 0. -1.
          4    1    6    6  503    0  0.60428206493E+02  0.11993884105E+03  0.11217738509E+02  0.13476917819E+03  0.00000000000E+00 0. -1.
         -4    1    6    6    0  503 -0.10569425419E+02  0.18903176960E+03  0.63750561795E+02  0.19977201206E+03  0.00000000000E+00 0.  1.
<mgrwt>
<rscale>  0 0.67063846E+03</rscale>
<asrwt>0</asrwt>
<pdfrwt beam="1">  1        1 0.24275467E+00 0.67063846E+03</pdfrwt>
<pdfrwt beam="2">  1       -1 0.60615692E-01 0.67063846E+03</pdfrwt>
<totfact> 0.16729075E+01</totfact>
</mgrwt>
</event>
<event>
12    1  0.7781383E-008  0.7279252E+03  0.7818608E-02  0.9670633E-01
          2   -1    0    0  501    0  0.00000000000E+00  0.00000000000E+00  0.12797162485E+04  0.12797162485E+04  0.00000000000E+00 0. -1.
         -2   -1    0    0    0  501 -0.00000000000E+00 -0.00000000000E+00 -0.56051382844E+03  0.56051382844E+03  0.00000000000E+00 0.  1.
         23    2    1    2    0    0 -0.35331744841E+01 -0.70210032020E+03  0.55923543720E+03  0.90224380487E+03  0.91336007478E+02 0.  0.
    5000000    2    1    2    0    0  0.35331744841E+01  0.70210032020E+03  0.15996698282E+03  0.93798627204E+03  0.60105862276E+03 0.  0.
         23    2    4    4    0    0 -0.32586827530E+02  0.60002646948E+03  0.35012820012E+03  0.70070405835E+03  0.85456161030E+02 0.  0.
         23    2    4    4    0    0  0.36120002014E+02  0.10207385072E+03 -0.19016121730E+03  0.23728221369E+03  0.91748759248E+02 0.  0.
          3    1    3    3  502    0 -0.44226248966E+02 -0.25603226872E+03  0.21761171837E+03  0.33891495053E+03  0.00000000000E+00 0. -1.
         -3    1    3    3    0  502  0.40693074482E+02 -0.44606805148E+03  0.34162371883E+03  0.56332885434E+03  0.00000000000E+00 0.  1.
         15    1    5    5    0    0 -0.42406814607E+02  0.13336655002E+03  0.89009134961E+02  0.16586367422E+03  0.17770000000E+01 0. -1.
        -15    1    5    5    0    0  0.98199870770E+01  0.46665991946E+03  0.26111906516E+03  0.53484038413E+03  0.17770000000E+01 0.  1.
          3    1    6    6  503    0 -0.28858624184E+02  0.14394481891E+02 -0.35083868661E+02  0.47653951976E+02  0.00000000000E+00 0. -1.
         -3    1    6    6    0  503  0.64978626198E+02  0.87679368829E+02 -0.15507734864E+03  0.18962826171E+03  0.00000000000E+00 0.  1.
<mgrwt>
<rscale>  0 0.72792517E+03</rscale>
<asrwt>0</asrwt>
<pdfrwt beam="1">  1        2 0.19687942E+00 0.72792517E+03</pdfrwt>
<pdfrwt beam="2">  1       -2 0.86232897E-01 0.72792517E+03</pdfrwt>
<totfact> 0.20262124E+01</totfact>
</mgrwt>
</event>
<event>
12    1  0.7781383E-008  0.4728051E+03  0.7818608E-02  0.1021131E+00
          1   -1    0    0  501    0  0.00000000000E+00  0.00000000000E+00  0.14001969334E+04  0.14001969334E+04  0.00000000000E+00 0. -1.
         -1   -1    0    0    0  501 -0.00000000000E+00 -0.00000000000E+00 -0.19000064701E+03  0.19000064701E+03  0.00000000000E+00 0.  1.
         23    2    1    2    0    0 -0.23989289706E+03 -0.13853742117E+03  0.12459870295E+03  0.31939952881E+03  0.98742103996E+02 0.  0.
    5000000    2    1    2    0    0  0.23989289706E+03  0.13853742117E+03  0.10855975834E+04  0.12707980516E+04  0.59972023116E+03 0.  0.
         23    2    4    4    0    0  0.42517014697E+03  0.59828874337E+02  0.73051340714E+03  0.85255525732E+03  0.94082307999E+02 0.  0.
         23    2    4    4    0    0 -0.18527724992E+03  0.78708546838E+02  0.35508417626E+03  0.41824279425E+03  0.91211666107E+02 0.  0.
          1    1    3    3  502    0 -0.23616510758E+02  0.15466772595E+02  0.16756245927E+02  0.32828835076E+02  0.00000000000E+00 0. -1.
         -1    1    3    3    0  502 -0.21627638630E+03 -0.15400419377E+03  0.10784245703E+03  0.28657069373E+03  0.00000000000E+00 0.  1.
         15    1    5    5    0    0  0.22168276128E+03  0.77237365207E+02  0.36935885152E+03  0.43765051829E+03  0.17770000000E+01 0. -1.
        -15    1    5    5    0    0  0.20348738569E+03 -0.17408490870E+02  0.36115455562E+03  0.41490473902E+03  0.17770000000E+01 0.  1.
          3    1    6    6  503    0 -0.63913413298E+02 -0.70064441073E+01  0.60383549909E+02  0.88205372615E+02  0.00000000000E+00 0. -1.
         -3    1    6    6    0  503 -0.12136383662E+03  0.85714990945E+02  0.29470062635E+03  0.33003742164E+03  0.00000000000E+00 0.  1.
<mgrwt>
<rscale>  0 0.47280509E+03</rscale>
<asrwt>0</asrwt>
<pdfrwt beam="1">  1        1 0.21541491E+00 0.47280509E+03</pdfrwt>
<pdfrwt beam="2">  1       -1 0.29230870E-01 0.47280509E+03</pdfrwt>
<totfact> 0.86679316E+01</totfact>
</mgrwt>
</event>
<event>
12    1  0.7781383E-008  0.3700714E+03  0.7818608E-02  0.1054666E+00
          2   -1    0    0  501    0  0.00000000000E+00  0.00000000000E+00  0.14283372156E+04  0.14283372156E+04  0.00000000000E+00 0. -1.
         -2   -1    0    0    0  501 -0.00000000000E+00 -0.00000000000E+00 -0.11717116521E+03  0.11717116521E+03  0.00000000000E+00 0.  1.
         23    2    1    2    0    0  0.72003954221E+02 -0.15393412050E+03  0.34731498110E+03  0.39732014737E+03  0.91407442430E+02 0.  0.
    5000000    2    1    2    0    0 -0.72003954221E+02  0.15393412050E+03  0.96385106931E+03  0.11481882335E+04  0.60037242839E+03 0.  0.
         23    2    4    4    0    0 -0.50354963032E+02 -0.19084045184E+03  0.15862110680E+03  0.26743456055E+03  0.86051660624E+02 0.  0.
         23    2    4    4    0    0 -0.21648991189E+02  0.34477457234E+03  0.80522996251E+03  0.88075367291E+03  0.89406684662E+02 0.  0.
          2    1    3    3  502    0  0.81645078424E+02 -0.80727881272E+02  0.25051283735E+03  0.27557139061E+03  0.00000000000E+00 0. -1.
         -2    1    3    3    0  502 -0.96411242031E+01 -0.73206239231E+02  0.96802143753E+02  0.12174875676E+03  0.00000000000E+00 0.  1.
         15    1    5    5    0    0  0.97872857956E+00 -0.70877000486E+02  0.13340321052E+02  0.72150045061E+02  0.17770000000E+01 0.  1.
        -15    1    5    5    0    0 -0.51333691612E+02 -0.11996345135E+03  0.14528078574E+03  0.19528451549E+03  0.17770000000E+01 0. -1.
          3    1    6    6  503    0 -0.41002278101E+02  0.25184897620E+03  0.50381971804E+03  0.56475074316E+03  0.00000000000E+00 0. -1.
         -3    1    6    6    0  503  0.19353286912E+02  0.92925596146E+02  0.30141024447E+03  0.31600292974E+03  0.00000000000E+00 0.  1.
<mgrwt>
<rscale>  0 0.37007144E+03</rscale>
<asrwt>0</asrwt>
<pdfrwt beam="1">  1        2 0.21974417E+00 0.37007144E+03</pdfrwt>
<pdfrwt beam="2">  1       -2 0.18026334E-01 0.37007144E+03</pdfrwt>
<totfact> 0.37203760E+02</totfact>
</mgrwt>
</event>
<event>
12    1  0.7781383E-008  0.4757605E+03  0.7818608E-02  0.1020307E+00
          1   -1    0    0  501    0  0.00000000000E+00  0.00000000000E+00  0.84232793231E+03  0.84232793231E+03  0.00000000000E+00 0. -1.
         -1   -1    0    0    0  501 -0.00000000000E+00 -0.00000000000E+00 -0.37550157798E+03  0.37550157798E+03  0.00000000000E+00 0.  1.
         23    2    1    2    0    0 -0.28392373838E+03  0.27017591888E+03  0.23220577641E+03  0.46352798848E+03  0.85621008816E+02 0.  0.
    5000000    2    1    2    0    0  0.28392373838E+03 -0.27017591888E+03  0.23462057792E+03  0.75430152180E+03  0.60026348702E+03 0.  0.
         23    2    4    4    0    0  0.79673387968E+02  0.88903068301E+02 -0.12778171273E+03  0.19719931968E+03  0.91147140771E+02 0.  0.
         23    2    4    4    0    0  0.20425035041E+03 -0.35907898718E+03  0.36240229065E+03  0.55710220212E+03  0.91496003537E+02 0.  0.
          2    1    3    3  502    0 -0.17910193646E+03  0.21839759010E+03  0.14373842882E+03  0.31691599348E+03  0.00000000000E+00 0. -1.
         -2    1    3    3    0  502 -0.10482180192E+03  0.51778328783E+02  0.88467347585E+02  0.14661199500E+03  0.00000000000E+00 0.  1.
         15    1    5    5    0    0  0.39758253213E+02  0.84302337103E+02 -0.41579671707E+02  0.10207658678E+03  0.17770000000E+01 0.  1.
        -15    1    5    5    0    0  0.39915134755E+02  0.46007311983E+01 -0.86202041019E+02  0.95122732902E+02  0.17770000000E+01 0. -1.
          4    1    6    6  503    0  0.16118122852E+03 -0.21735489217E+03  0.19477191703E+03  0.33340461490E+03  0.00000000000E+00 0. -1.
         -4    1    6    6    0  503  0.43069121899E+02 -0.14172409501E+03  0.16763037362E+03  0.22369758722E+03  0.00000000000E+00 0.  1.
<mgrwt>
<rscale>  0 0.47576045E+03</rscale>
<asrwt>0</asrwt>
<pdfrwt beam="1">  1        1 0.12958891E+00 0.47576045E+03</pdfrwt>
<pdfrwt beam="2">  1       -1 0.57769474E-01 0.47576045E+03</pdfrwt>
<totfact> 0.64972930E+01</totfact>
</mgrwt>
</event>
<event>
12    1  0.7781383E-008  0.6245049E+03  0.7818608E-02  0.9855831E-01
         -4   -1    0    0    0  501 -0.00000000000E+00  0.00000000000E+00  0.32667929475E+03  0.32667929475E+03  0.00000000000E+00 0.  1.
          4   -1    0    0  501    0  0.00000000000E+00 -0.00000000000E+00 -0.14062665086E+04  0.14062665086E+04  0.00000000000E+00 0. -1.
         23    2    1    2    0    0 -0.53528109612E+03 -0.67741953779E+02 -0.47181169473E+03  0.72278297330E+03  0.93242302859E+02 0.  0.
    5000000    2    1    2    0    0  0.53528109612E+03  0.67741953779E+02 -0.60777551913E+03  0.10101628301E+04  0.59993586109E+03 0.  0.
         23    2    4    4    0    0  0.24921720619E+03 -0.18453359926E+03 -0.47069284004E+02  0.32599853450E+03  0.88868790267E+02 0.  0.
         23    2    4    4    0    0  0.28606388994E+03  0.25227555304E+03 -0.56070623512E+03  0.68416429557E+03  0.90630002962E+02 0.  0.
          1    1    3    3  502    0 -0.42455744734E+03 -0.69343043696E+02 -0.41740729304E+03  0.59940498170E+03  0.00000000000E+00 0. -1.
         -1    1    3    3    0  502 -0.11072364879E+03  0.16010899168E+01 -0.54404401687E+02  0.12337799160E+03  0.00000000000E+00 0.  1.
         15    1    5    5    0    0  0.20318237782E+03 -0.10877908357E+03 -0.12434863179E+02  0.23081107259E+03  0.17770000000E+01 0. -1.
        -15    1    5    5    0    0  0.46034828367E+02 -0.75754515683E+02 -0.34634420825E+02  0.95187461905E+02  0.17770000000E+01 0.  1.
          1    1    6    6  503    0  0.21249590791E+03  0.13912545242E+03 -0.32402924212E+03  0.41171027694E+03  0.00000000000E+00 0. -1.
         -1    1    6    6    0  503  0.73567982029E+02  0.11315010062E+03 -0.23667699300E+03  0.27245401863E+03  0.00000000000E+00 0.  1.
<mgrwt>
<rscale>  0 0.62450486E+03</rscale>
<asrwt>0</asrwt>
<pdfrwt beam="1">  1        4 0.21634869E+00 0.62450486E+03</pdfrwt>
<pdfrwt beam="2">  1       -4 0.50258353E-01 0.62450486E+03</pdfrwt>
<totfact> 0.78124113E-01</totfact>
</mgrwt>
</event>
<event>
12    1  0.7781383E-008  0.6298738E+03  0.7818608E-02  0.9845295E-01
          2   -1    0    0  501    0  0.00000000000E+00  0.00000000000E+00  0.19147265979E+04  0.19147265979E+04  0.00000000000E+00 0. -1.
         -2   -1    0    0    0  501 -0.00000000000E+00 -0.00000000000E+00 -0.29720270775E+03  0.29720270775E+03  0.00000000000E+00 0.  1.
         23    2    1    2    0    0  0.14639768398E+03 -0.52414317491E+03  0.11526511126E+04  0.12779688070E+04  0.91876735703E+02 0.  0.
    5000000    2    1    2    0    0 -0.14639768398E+03  0.52414317491E+03  0.46487277757E+03  0.93396049869E+03  0.60001430325E+03 0.  0.
         23    2    4    4    0    0 -0.29687390902E+03  0.44188799415E+03  0.49847967168E+03  0.73589952076E+03  0.98320925287E+02 0.  0.
         23    2    4    4    0    0  0.15047622505E+03  0.82255180758E+02 -0.33606894107E+02  0.19806097793E+03  0.93218660042E+02 0.  0.
          4    1    3    3  502    0  0.64979063948E+02 -0.38637620032E+03  0.80868793371E+03  0.89860170323E+03  0.00000000000E+00 0.  1.
         -4    1    3    3    0  502  0.81418620027E+02 -0.13776697459E+03  0.34396317887E+03  0.37936710373E+03  0.00000000000E+00 0. -1.
         15    1    5    5    0    0 -0.10448832350E+03  0.19569700561E+03  0.26643906571E+03  0.34671034196E+03  0.17770000000E+01 0. -1.
        -15    1    5    5    0    0 -0.19238558552E+03  0.24619098854E+03  0.23204060597E+03  0.38918917881E+03  0.17770000000E+01 0.  1.
          1    1    6    6  503    0  0.11342589693E+03  0.74667278442E+02  0.14835113622E+02  0.13660423552E+03  0.00000000000E+00 0. -1.
         -1    1    6    6    0  503  0.37050328116E+02  0.75879023159E+01 -0.48442007729E+02  0.61456742412E+02  0.00000000000E+00 0.  1.
<mgrwt>
<rscale>  0 0.62987376E+03</rscale>
<asrwt>0</asrwt>
<pdfrwt beam="1">  1        2 0.29457332E+00 0.62987376E+03</pdfrwt>
<pdfrwt beam="2">  1       -2 0.45723495E-01 0.62987376E+03</pdfrwt>
<totfact> 0.35395635E+01</totfact>
</mgrwt>
</event>
<event>
12    1  0.7781383E-008  0.6136286E+03  0.7818608E-02  0.9877528E-01
         -1   -1    0    0    0  501 -0.00000000000E+00  0.00000000000E+00  0.38999734866E+03  0.38999734866E+03  0.00000000000E+00 0.  1.
          1   -1    0    0  501    0  0.00000000000E+00 -0.00000000000E+00 -0.12419366330E+04  0.12419366330E+04  0.00000000000E+00 0. -1.
         23    2    1    2    0    0 -0.47511175602E+03 -0.20749087949E+03 -0.93152565125E+02  0.53436739017E+03  0.89930314703E+02 0.  0.
    5000000    2    1    2    0    0  0.47511175602E+03  0.20749087949E+03 -0.75878671926E+03  0.10975665915E+04  0.60009290262E+03 0.  0.
         23    2    4    4    0    0  0.45181136821E+03 -0.39196752685E+02 -0.67855984743E+03  0.82123571987E+03  0.91185213582E+02 0.  0.
         23    2    4    4    0    0  0.23300387814E+02  0.24668763217E+03 -0.80226871825E+02  0.27633087168E+03  0.92329322206E+02 0.  0.
          3    1    3    3  502    0 -0.72510580452E+02 -0.38721803250E+02  0.17442126680E+02  0.84032077849E+02  0.00000000000E+00 0. -1.
         -3    1    3    3    0  502 -0.40260117557E+03 -0.16876907624E+03 -0.11059469181E+03  0.45033531232E+03  0.00000000000E+00 0.  1.
         15    1    5    5    0    0  0.62162605631E+02 -0.22637267460E+02 -0.56450415027E+02  0.86985300498E+02  0.17770000000E+01 0.  1.
        -15    1    5    5    0    0  0.38964876258E+03 -0.16559485225E+02 -0.62210943241E+03  0.73425041937E+03  0.17770000000E+01 0. -1.
          1    1    6    6  503    0 -0.12247179527E+02  0.25359785424E+02  0.15995137690E+02  0.32387598751E+02  0.00000000000E+00 0. -1.
         -1    1    6    6    0  503  0.35547567341E+02  0.22132784675E+03 -0.96222009515E+02  0.24394327292E+03  0.00000000000E+00 0.  1.
<mgrwt>
<rscale>  0 0.61362856E+03</rscale>
<asrwt>0</asrwt>
<pdfrwt beam="1">  1        1 0.19106717E+00 0.61362856E+03</pdfrwt>
<pdfrwt beam="2">  1       -1 0.59999593E-01 0.61362856E+03</pdfrwt>
<totfact> 0.29396091E+01</totfact>
</mgrwt>
</event>
<event>
12    1  0.7781383E-008  0.6147815E+03  0.7818608E-02  0.9875205E-01
          2   -1    0    0  501    0  0.00000000000E+00  0.00000000000E+00  0.83882906840E+03  0.83882906840E+03  0.00000000000E+00 0. -1.
         -2   -1    0    0    0  501 -0.00000000000E+00 -0.00000000000E+00 -0.59909294784E+03  0.59909294784E+03  0.00000000000E+00 0.  1.
         23    2    1    2    0    0 -0.10171600048E+03  0.51003493591E+03 -0.15644723567E+03  0.55046419896E+03  0.89740270670E+02 0.  0.
    5000000    2    1    2    0    0  0.10171600048E+03 -0.51003493591E+03  0.39618335623E+03  0.88745781728E+03  0.60011527650E+03 0.  0.
         23    2    4    4    0    0 -0.82534815265E+02  0.34508750530E+02  0.26058226961E+03  0.28981794035E+03  0.89935920095E+02 0.  0.
         23    2    4    4    0    0  0.18425081575E+03 -0.54454368644E+03  0.13560108662E+03  0.59763987692E+03  0.91156888100E+02 0.  0.
          3    1    3    3  502    0 -0.67094366495E+02  0.13541470450E+03 -0.54846895388E+02  0.16076995411E+03  0.00000000000E+00 0. -1.
         -3    1    3    3    0  502 -0.34621633985E+02  0.37462023141E+03 -0.10160034028E+03  0.38969424485E+03  0.00000000000E+00 0.  1.
         15    1    5    5    0    0 -0.74740040391E+01 -0.26731519538E+02  0.38270736617E+02  0.47310061122E+02  0.17770000000E+01 0. -1.
        -15    1    5    5    0    0 -0.75060811226E+02  0.61240270068E+02  0.22231153299E+03  0.24250787923E+03  0.17770000000E+01 0.  1.
          1    1    6    6  503    0  0.10743430086E+03 -0.23192653914E+03  0.97123548925E+02  0.27343195189E+03  0.00000000000E+00 0. -1.
         -1    1    6    6    0  503  0.76816514887E+02 -0.31261714731E+03  0.38477537698E+02  0.32420792504E+03  0.00000000000E+00 0.  1.
<mgrwt>
<rscale>  0 0.61478154E+03</rscale>
<asrwt>0</asrwt>
<pdfrwt beam="1">  1        2 0.12905063E+00 0.61478154E+03</pdfrwt>
<pdfrwt beam="2">  1       -2 0.92168146E-01 0.61478154E+03</pdfrwt>
<totfact> 0.33223674E+01</totfact>
</mgrwt>
</event>
<event>
12    1  0.7781383E-008  0.1374659E+04  0.7818608E-02  0.8972369E-01
          1   -1    0    0  501    0  0.00000000000E+00  0.00000000000E+00  0.10800467792E+04  0.10800467792E+04  0.00000000000E+00 0. -1.
         -1   -1    0    0    0  501 -0.00000000000E+00 -0.00000000000E+00 -0.18841275970E+04  0.18841275970E+04  0.00000000000E+00 0.  1.
         23    2    1    2    0    0  0.71465577538E+03  0.11527442227E+04 -0.51482021916E+03  0.14535724155E+04  0.90998838988E+02 0.  0.
    5000000    2    1    2    0    0 -0.71465577538E+03 -0.11527442227E+04 -0.28926059854E+03  0.15106019607E+04  0.59891106994E+03 0.  0.
         23    2    4    4    0    0 -0.71687941539E+03 -0.11184527951E+04 -0.37159103041E+03  0.13825141754E+04  0.91721318256E+02 0.  0.
         23    2    4    4    0    0  0.22236400103E+01 -0.34291427556E+02  0.82330431875E+02  0.12808778531E+03  0.91909380123E+02 0.  0.
          4    1    3    3  502    0  0.56801901461E+03  0.90523505951E+03 -0.36564263216E+03  0.11295090298E+04  0.00000000000E+00 0. -1.
         -4    1    3    3    0  502  0.14663676076E+03  0.24750916319E+03 -0.14917758701E+03  0.32406338567E+03  0.00000000000E+00 0.  1.
         15    1    5    5    0    0 -0.24558541722E+03 -0.44028018364E+03 -0.17423125675E+03  0.53340278010E+03  0.17770000000E+01 0. -1.
        -15    1    5    5    0    0 -0.47129399817E+03 -0.67817261150E+03 -0.19735977366E+03  0.84911139533E+03  0.17770000000E+01 0.  1.
          2    1    6    6  503    0 -0.40672931462E+01  0.13827579608E+02 -0.14082173343E+02  0.20150742850E+02  0.00000000000E+00 0. -1.
         -2    1    6    6    0  503  0.62909331565E+01 -0.48119007164E+02  0.96412605217E+02  0.10793704246E+03  0.00000000000E+00 0.  1.
<mgrwt>
<rscale>  0 0.13746591E+04</rscale>
<asrwt>0</asrwt>
<pdfrwt beam="1">  1        1 0.16616104E+00 0.13746591E+04</pdfrwt>
<pdfrwt beam="2">  1       -1 0.28986578E+00 0.13746591E+04</pdfrwt>
<totfact> 0.48582035E-01</totfact>
</mgrwt>
</event>
<event>
12    1  0.7781383E-008  0.4403650E+03  0.7818608E-02  0.1030635E+00
         -2   -1    0    0    0  501 -0.00000000000E+00  0.00000000000E+00  0.37389415255E+03  0.37389415255E+03  0.00000000000E+00 0.  1.
          2   -1    0    0  501    0  0.00000000000E+00 -0.00000000000E+00 -0.23881408364E+04  0.23881408364E+04  0.00000000000E+00 0. -1.
         23    2    1    2    0    0 -0.23320941067E+03 -0.89263861368E+02  0.27491527602E+03  0.38240910840E+03  0.91124371186E+02 0.  0.
    5000000    2    1    2    0    0  0.23320941067E+03  0.89263861368E+02 -0.22891619599E+04  0.23796258806E+04  0.60000182225E+03 0.  0.
         23    2    4    4    0    0  0.24556603529E+03  0.30972096408E+03 -0.12642475134E+04  0.13271766139E+04  0.82741984392E+02 0.  0.
         23    2    4    4    0    0 -0.12356624619E+02 -0.22045710271E+03 -0.10249144465E+04  0.10524492667E+04  0.91901121067E+02 0.  0.
          2    1    3    3  502    0 -0.16635805966E+03 -0.95384111783E+02  0.16193805189E+03  0.25099216211E+03  0.00000000000E+00 0. -1.
         -2    1    3    3    0  502 -0.66851351012E+02  0.61202504150E+01  0.11297722414E+03  0.13141694628E+03  0.00000000000E+00 0.  1.
         15    1    5    5    0    0  0.38663087695E+02  0.87310280767E+02 -0.39487483014E+03  0.40626002595E+03  0.17770000000E+01 0. -1.
        -15    1    5    5    0    0  0.20690294759E+03  0.22241068331E+03 -0.86937268327E+03  0.92091658792E+03  0.17770000000E+01 0.  1.
          3    1    6    6  503    0 -0.20760319338E+02 -0.18276375997E+03 -0.95523613516E+03  0.97278448627E+03  0.00000000000E+00 0. -1.
         -3    1    6    6    0  503  0.84036947188E+01 -0.37693342735E+02 -0.69678311353E+02  0.79664780452E+02  0.00000000000E+00 0.  1.
<mgrwt>
<rscale>  0 0.44036505E+03</rscale>
<asrwt>0</asrwt>
<pdfrwt beam="1">  1        2 0.36740629E+00 0.44036505E+03</pdfrwt>
<pdfrwt beam="2">  1       -2 0.57522176E-01 0.44036505E+03</pdfrwt>
<totfact> 0.12743747E+01</totfact>
</mgrwt>
</event>
<event>
12    1  0.7781383E-008  0.3380858E+03  0.7818608E-02  0.1067614E+00
          1   -1    0    0  501    0  0.00000000000E+00  0.00000000000E+00  0.22104834151E+03  0.22104834151E+03  0.00000000000E+00 0. -1.
         -1   -1    0    0    0  501 -0.00000000000E+00 -0.00000000000E+00 -0.11698195360E+04  0.11698195360E+04  0.00000000000E+00 0.  1.
         23    2    1    2    0    0  0.15566106866E+03 -0.72703052184E+02  0.61818373240E+02  0.20310302170E+03  0.88956304226E+02 0.  0.
    5000000    2    1    2    0    0 -0.15566106866E+03  0.72703052184E+02 -0.10105895677E+04  0.11877648558E+04  0.59998164655E+03 0.  0.
         23    2    4    4    0    0 -0.14667815037E+03 -0.16864277298E+03 -0.13945343742E+03  0.27889697226E+03  0.91549960447E+02 0.  0.
         23    2    4    4    0    0 -0.89829182946E+01  0.24134582516E+03 -0.87113613030E+03  0.90886788354E+03  0.93990276397E+02 0.  0.
          4    1    3    3  502    0  0.12186044891E+03 -0.88611307443E+02  0.67881863764E+02  0.16525701269E+03  0.00000000000E+00 0.  1.
         -4    1    3    3    0  502  0.33800619747E+02  0.15908255259E+02 -0.60634905234E+01  0.37846009010E+02  0.00000000000E+00 0. -1.
         15    1    5    5    0    0 -0.74479813313E+02 -0.45330456547E+02 -0.95631874671E+02  0.12942451879E+03  0.17770000000E+01 0. -1.
        -15    1    5    5    0    0 -0.72198337053E+02 -0.12331231643E+03 -0.43821562746E+02  0.14947245347E+03  0.17770000000E+01 0.  1.
          2    1    6    6  503    0  0.23145767845E+02  0.11309123160E+02 -0.11557716398E+03  0.11841327489E+03  0.00000000000E+00 0. -1.
         -2    1    6    6    0  503 -0.32128686140E+02  0.23003670200E+03 -0.75555896632E+03  0.79045460865E+03  0.00000000000E+00 0.  1.
<mgrwt>
<rscale>  0 0.33808584E+03</rscale>
<asrwt>0</asrwt>
<pdfrwt beam="1">  1        1 0.34007437E-01 0.33808584E+03</pdfrwt>
<pdfrwt beam="2">  1       -1 0.17997224E+00 0.33808584E+03</pdfrwt>
<totfact> 0.29378828E+01</totfact>
</mgrwt>
</event>
<event>
12    1  0.7781383E-008  0.4935566E+03  0.7818608E-02  0.1015475E+00
          1   -1    0    0  501    0  0.00000000000E+00  0.00000000000E+00  0.69165967132E+03  0.69165967132E+03  0.00000000000E+00 0. -1.
         -1   -1    0    0    0  501 -0.00000000000E+00 -0.00000000000E+00 -0.39114003568E+03  0.39114003568E+03  0.00000000000E+00 0.  1.
         23    2    1    2    0    0  0.30179768005E+03 -0.82111088136E+02 -0.33035451035E+02  0.32805303114E+03  0.93291906080E+02 0.  0.
    5000000    2    1    2    0    0 -0.30179768005E+03  0.82111088136E+02  0.33355508668E+03  0.75474667586E+03  0.60046605099E+03 0.  0.
         23    2    4    4    0    0 -0.46246885753E+03 -0.49585481494E+01  0.24378675520E+03  0.53087054518E+03  0.92138604015E+02 0.  0.
         23    2    4    4    0    0  0.16067117748E+03  0.87069636285E+02  0.89768331477E+02  0.22387613067E+03  0.93090384636E+02 0.  0.
          4    1    3    3  502    0  0.16031675998E+03 -0.91201177301E+02 -0.13427009288E+02  0.18493080557E+03  0.00000000000E+00 0. -1.
         -4    1    3    3    0  502  0.14148092007E+03  0.90900891654E+01 -0.19608441747E+02  0.14312222557E+03  0.00000000000E+00 0.  1.
         15    1    5    5    0    0 -0.22380431657E+03  0.34547342683E+02  0.87055951273E+02  0.24261860477E+03  0.17770000000E+01 0. -1.
        -15    1    5    5    0    0 -0.23866454096E+03 -0.39505890833E+02  0.15673080393E+03  0.28825194041E+03  0.17770000000E+01 0.  1.
          2    1    6    6  503    0  0.85178321972E+02  0.11940611801E+02  0.22760504286E+01  0.86041299093E+02  0.00000000000E+00 0. -1.
         -2    1    6    6    0  503  0.75492855510E+02  0.75129024484E+02  0.87492281048E+02  0.13783483158E+03  0.00000000000E+00 0.  1.
<mgrwt>
<rscale>  0 0.49355665E+03</rscale>
<asrwt>0</asrwt>
<pdfrwt beam="1">  1        1 0.10640918E+00 0.49355665E+03</pdfrwt>
<pdfrwt beam="2">  1       -1 0.60175390E-01 0.49355665E+03</pdfrwt>
<totfact> 0.81189401E+01</totfact>
</mgrwt>
</event>
<event>
12    1  0.7781383E-008  0.1660440E+04  0.7818608E-02  0.8784254E-01
          2   -1    0    0  501    0  0.00000000000E+00  0.00000000000E+00  0.19034856748E+04  0.19034856748E+04  0.00000000000E+00 0. -1.
         -2   -1    0    0    0  501 -0.00000000000E+00 -0.00000000000E+00 -0.16006050805E+04  0.16006050805E+04  0.00000000000E+00 0.  1.
         23    2    1    2    0    0  0.13751335918E+04 -0.90587560215E+03  0.53987403712E+03  0.17355428986E+04  0.95090351612E+02 0.  0.
    5000000    2    1    2    0    0 -0.13751335918E+04  0.90587560215E+03 -0.23699344281E+03  0.17685478567E+04  0.59999385627E+03 0.  0.
         23    2    4    4    0    0 -0.67666576897E+03  0.28165124226E+03  0.14586148878E+03  0.75258000479E+03  0.88865654499E+02 0.  0.
         23    2    4    4    0    0 -0.69846782285E+03  0.62422435989E+03 -0.38285493159E+03  0.10159678519E+04  0.89996813325E+02 0.  0.
          1    1    3    3  502    0  0.12665387078E+04 -0.80943473238E+03  0.47399661797E+03  0.15760639829E+04  0.00000000000E+00 0. -1.
         -1    1    3    3    0  502  0.10859488403E+03 -0.96440869765E+02  0.65877419151E+02  0.15947891570E+03  0.00000000000E+00 0.  1.
         15    1    5    5    0    0 -0.29286219961E+03  0.15662131717E+03  0.96887003315E+02  0.34596062507E+03  0.17770000000E+01 0.  1.
        -15    1    5    5    0    0 -0.38380356935E+03  0.12502992509E+03  0.48974485464E+02  0.40661937973E+03  0.17770000000E+01 0. -1.
          3    1    6    6  503    0 -0.34260929764E+03  0.30933491039E+03 -0.14016895541E+03  0.48240704149E+03  0.00000000000E+00 0. -1.
         -3    1    6    6    0  503 -0.35585852521E+03  0.31488944950E+03 -0.24268597618E+03  0.53356081041E+03  0.00000000000E+00 0.  1.
<mgrwt>
<rscale>  0 0.16604399E+04</rscale>
<asrwt>0</asrwt>
<pdfrwt beam="1">  1        2 0.29284395E+00 0.16604399E+04</pdfrwt>
<pdfrwt beam="2">  1       -2 0.24624694E+00 0.16604399E+04</pdfrwt>
<totfact> 0.47285544E-01</totfact>
</mgrwt>
</event>
<event>
12    1  0.7781383E-008  0.8806062E+03  0.7818608E-02  0.9450155E-01
          1   -1    0    0  501    0  0.00000000000E+00  0.00000000000E+00  0.14474514545E+04  0.14474514545E+04  0.00000000000E+00 0. -1.
         -1   -1    0    0    0  501 -0.00000000000E+00 -0.00000000000E+00 -0.60448269909E+03  0.60448269909E+03  0.00000000000E+00 0.  1.
         23    2    1    2    0    0  0.81219022267E+03 -0.79353480827E+02  0.17870325014E+03  0.84052966070E+03  0.92764897425E+02 0.  0.
    5000000    2    1    2    0    0 -0.81219022267E+03  0.79353480827E+02  0.66426550531E+03  0.12114044929E+04  0.60025182318E+03 0.  0.
         23    2    4    4    0    0 -0.80214577652E+03 -0.17111781714E+02  0.70425350124E+03  0.10714094820E+04  0.90634563927E+02 0.  0.
         23    2    4    4    0    0 -0.10044446144E+02  0.96465262541E+02 -0.39987995928E+02  0.13999501096E+03  0.92699112731E+02 0.  0.
          1    1    3    3  502    0  0.16810894387E+03 -0.49810239655E+02  0.19556411766E+02  0.17642032259E+03  0.00000000000E+00 0. -1.
         -1    1    3    3    0  502  0.64408127880E+03 -0.29543241172E+02  0.15914683838E+03  0.66410933811E+03  0.00000000000E+00 0.  1.
         15    1    5    5    0    0 -0.14147510867E+03 -0.37220701319E+02  0.13572485446E+03  0.19956197240E+03  0.17770000000E+01 0. -1.
        -15    1    5    5    0    0 -0.66067066785E+03  0.20108919605E+02  0.56852864677E+03  0.87184750957E+03  0.17770000000E+01 0.  1.
          1    1    6    6  503    0 -0.38439325217E+02  0.58503398651E+01 -0.16051885240E+02  0.42065083138E+02  0.00000000000E+00 0. -1.
         -1    1    6    6    0  503  0.28394879073E+02  0.90614922676E+02 -0.23936110687E+02  0.97929927826E+02  0.00000000000E+00 0.  1.
<mgrwt>
<rscale>  0 0.88060617E+03</rscale>
<asrwt>0</asrwt>
<pdfrwt beam="1">  1        1 0.22268484E+00 0.88060617E+03</pdfrwt>
<pdfrwt beam="2">  1       -1 0.92997339E-01 0.88060617E+03</pdfrwt>
<totfact> 0.81510718E+00</totfact>
</mgrwt>
</event>
<event>
12    1  0.7781383E-008  0.6577493E+03  0.7818608E-02  0.9792346E-01
          2   -1    0    0  501    0  0.00000000000E+00  0.00000000000E+00  0.25933272717E+04  0.25933272717E+04  0.00000000000E+00 0. -1.
         -2   -1    0    0    0  501 -0.00000000000E+00 -0.00000000000E+00 -0.49973585115E+03  0.49973585115E+03  0.00000000000E+00 0.  1.
         23    2    1    2    0    0 -0.11438607674E+03  0.53605174753E+03 -0.25254273531E+03  0.61019761376E+03  0.90153447492E+02 0.  0.
    5000000    2    1    2    0    0  0.11438607674E+03 -0.53605174753E+03  0.23461341558E+04  0.24828655091E+04  0.59986665878E+03 0.  0.
         23    2    4    4    0    0  0.11637227347E+03 -0.63321835569E+03  0.16395602196E+04  0.17638241475E+04  0.91705601415E+02 0.  0.
         23    2    4    4    0    0 -0.19861967211E+01  0.97166608159E+02  0.70657393621E+03  0.71904136161E+03  0.91260383844E+02 0.  0.
          2    1    3    3  502    0 -0.69923420936E+02  0.29233259515E+03 -0.18674838827E+03  0.35386804250E+03  0.00000000000E+00 0.  1.
         -2    1    3    3    0  502 -0.44462655809E+02  0.24371915238E+03 -0.65794347045E+02  0.25632957126E+03  0.00000000000E+00 0. -1.
         15    1    5    5    0    0  0.82050949901E+01 -0.26296312560E+03  0.72409983980E+03  0.77041590374E+03  0.17770000000E+01 0.  1.
        -15    1    5    5    0    0  0.10816717848E+03 -0.37025523009E+03  0.91546037984E+03  0.99340824372E+03  0.17770000000E+01 0. -1.
          1    1    6    6  503    0 -0.31591598946E+02  0.74933525604E+02  0.61362235500E+03  0.61898744489E+03  0.00000000000E+00 0.  1.
         -1    1    6    6    0  503  0.29605402225E+02  0.22233082555E+02  0.92951581210E+02  0.10005391672E+03  0.00000000000E+00 0. -1.
<mgrwt>
<rscale>  0 0.65774926E+03</rscale>
<asrwt>0</asrwt>
<pdfrwt beam="1">  1        2 0.39897342E+00 0.65774926E+03</pdfrwt>
<pdfrwt beam="2">  1       -2 0.76882440E-01 0.65774926E+03</pdfrwt>
<totfact> 0.49742395E+00</totfact>
</mgrwt>
</event>
<event>
12    1  0.7781383E-008  0.1226152E+04  0.7818608E-02  0.9090268E-01
          2   -1    0    0  501    0  0.00000000000E+00  0.00000000000E+00  0.27342754906E+04  0.27342754906E+04  0.00000000000E+00 0. -1.
         -2   -1    0    0    0  501 -0.00000000000E+00 -0.00000000000E+00 -0.98188862321E+03  0.98188862321E+03  0.00000000000E+00 0.  1.
         23    2    1    2    0    0 -0.44593198388E+03  0.10673385195E+04  0.20715854877E+04  0.23744757551E+04  0.92746048520E+02 0.  0.
    5000000    2    1    2    0    0  0.44593198388E+03 -0.10673385195E+04 -0.31919862024E+03  0.13416883587E+04  0.60014418540E+03 0.  0.
         23    2    4    4    0    0 -0.15480155988E+02 -0.69864703616E+03 -0.20137147710E+03  0.73252253672E+03  0.87701075588E+02 0.  0.
         23    2    4    4    0    0  0.46141213987E+03 -0.36869148336E+03 -0.11782714314E+03  0.60916582199E+03  0.91461414286E+02 0.  0.
          1    1    3    3  502    0 -0.25258606842E+03  0.71058347547E+03  0.13120306277E+04  0.15133251354E+04  0.00000000000E+00 0. -1.
         -1    1    3    3    0  502 -0.19334591546E+03  0.35675504405E+03  0.75955485998E+03  0.86115061969E+03  0.00000000000E+00 0.  1.
         15    1    5    5    0    0 -0.36545903847E+02 -0.26631729736E+03 -0.10810605116E+03  0.28974226821E+03  0.17770000000E+01 0.  1.
        -15    1    5    5    0    0  0.21065747860E+02 -0.43232973879E+03 -0.93265425943E+02  0.44278026851E+03  0.17770000000E+01 0. -1.
          3    1    6    6  503    0  0.35002078102E+03 -0.27376623913E+03 -0.47823814543E+02  0.44693357232E+03  0.00000000000E+00 0. -1.
         -3    1    6    6    0  503  0.11139135885E+03 -0.94925244224E+02 -0.70003328592E+02  0.16223224967E+03  0.00000000000E+00 0.  1.
<mgrwt>
<rscale>  0 0.12261524E+04</rscale>
<asrwt>0</asrwt>
<pdfrwt beam="1">  1        2 0.42065777E+00 0.12261524E+04</pdfrwt>
<pdfrwt beam="2">  1       -2 0.15105979E+00 0.12261524E+04</pdfrwt>
<totfact> 0.72794900E-01</totfact>
</mgrwt>
</event>
<event>
12    1  0.7781383E-008  0.5645347E+03  0.7818608E-02  0.9981846E-01
         -2   -1    0    0    0  501 -0.00000000000E+00  0.00000000000E+00  0.40131724049E+03  0.40131724049E+03  0.00000000000E+00 0.  1.
          2   -1    0    0  501    0  0.00000000000E+00 -0.00000000000E+00 -0.81848259932E+03  0.81848259932E+03  0.00000000000E+00 0. -1.
         23    2    1    2    0    0  0.15565845276E+03  0.37849187794E+03 -0.17215777073E+03  0.45311206051E+03  0.90479753406E+02 0.  0.
    5000000    2    1    2    0    0 -0.15565845276E+03 -0.37849187794E+03 -0.24500758810E+03  0.76668777930E+03  0.60024643033E+03 0.  0.
         23    2    4    4    0    0 -0.70889703666E+02  0.14316347818E+03 -0.11362226463E+03  0.21484904993E+03  0.87914524758E+02 0.  0.
         23    2    4    4    0    0 -0.84768749091E+02 -0.52165535612E+03 -0.13138532347E+03  0.55183872938E+03  0.89184239783E+02 0.  0.
          4    1    3    3  502    0  0.12512575178E+03  0.18735982851E+03 -0.10080785914E+03  0.24682460081E+03  0.00000000000E+00 0. -1.
         -4    1    3    3    0  502  0.30532700975E+02  0.19113204942E+03 -0.71349911587E+02  0.20628745970E+03  0.00000000000E+00 0.  1.
         15    1    5    5    0    0  0.68868718352E+00  0.88722747655E+02 -0.77847118998E+02  0.11804885390E+03  0.17770000000E+01 0. -1.
        -15    1    5    5    0    0 -0.71578390850E+02  0.54440730528E+02 -0.35775145632E+02  0.96800196028E+02  0.17770000000E+01 0.  1.
          2    1    6    6  503    0 -0.99646505836E+01 -0.23682516302E+03 -0.93970887768E+02  0.25498231282E+03  0.00000000000E+00 0. -1.
         -2    1    6    6    0  503 -0.74804098507E+02 -0.28483019310E+03 -0.37414435702E+02  0.29685641656E+03  0.00000000000E+00 0.  1.
<mgrwt>
<rscale>  0 0.56453473E+03</rscale>
<asrwt>0</asrwt>
<pdfrwt beam="1">  1        2 0.12592040E+00 0.56453473E+03</pdfrwt>
<pdfrwt beam="2">  1       -2 0.61741114E-01 0.56453473E+03</pdfrwt>
<totfact> 0.83718188E+01</totfact>
</mgrwt>
</event>
<event>
12    1  0.7781383E-008  0.2049273E+04  0.7818608E-02  0.8583924E-01
         -2   -1    0    0    0  501 -0.00000000000E+00  0.00000000000E+00  0.24910574611E+04  0.24910574611E+04  0.00000000000E+00 0.  1.
          2   -1    0    0  501    0  0.00000000000E+00 -0.00000000000E+00 -0.22133584038E+04  0.22133584038E+04  0.00000000000E+00 0. -1.
         23    2    1    2    0    0 -0.20088835619E+03  0.20122173070E+04  0.12528661191E+04  0.23805317002E+04  0.88786491844E+02 0.  0.
    5000000    2    1    2    0    0  0.20088835619E+03 -0.20122173070E+04 -0.97516706186E+03  0.23238841647E+04  0.60009348472E+03 0.  0.
         23    2    4    4    0    0  0.23421443338E+02 -0.17840313440E+04 -0.71854205820E+03  0.19251649976E+04  0.81493422857E+02 0.  0.
         23    2    4    4    0    0  0.17746691285E+03 -0.22818596291E+03 -0.25662500366E+03  0.39871916714E+03  0.97761152355E+02 0.  0.
          2    1    3    3  502    0 -0.15464887976E+03  0.17879156087E+04  0.11285334991E+04  0.21199401781E+04  0.00000000000E+00 0. -1.
         -2    1    3    3    0  502 -0.46239476427E+02  0.22430169824E+03  0.12433261995E+03  0.26059152211E+03  0.00000000000E+00 0.  1.
         15    1    5    5    0    0  0.20649129267E+01 -0.13626276952E+04 -0.51518502747E+03  0.14567694635E+04  0.17770000000E+01 0.  1.
        -15    1    5    5    0    0  0.21356530412E+02 -0.42140364884E+03 -0.20335703073E+03  0.46839553405E+03  0.17770000000E+01 0. -1.
          4    1    6    6  503    0  0.16265451658E+03 -0.19442296103E+03 -0.17178383040E+03  0.30621310215E+03  0.00000000000E+00 0. -1.
         -4    1    6    6    0  503  0.14812396274E+02 -0.33763001878E+02 -0.84841173260E+02  0.92506064987E+02  0.00000000000E+00 0.  1.
<mgrwt>
<rscale>  0 0.20492734E+04</rscale>
<asrwt>0</asrwt>
<pdfrwt beam="1">  1        2 0.34051668E+00 0.20492734E+04</pdfrwt>
<pdfrwt beam="2">  1       -2 0.38323961E+00 0.20492734E+04</pdfrwt>
<totfact> 0.42631240E-02</totfact>
</mgrwt>
</event>
<event>
12    1  0.7781383E-008  0.4421302E+03  0.7818608E-02  0.1030095E+00
          2   -1    0    0  501    0  0.00000000000E+00  0.00000000000E+00  0.12498705582E+04  0.12498705582E+04  0.00000000000E+00 0. -1.
         -2   -1    0    0    0  501 -0.00000000000E+00 -0.00000000000E+00 -0.22781666858E+03  0.22781666858E+03  0.00000000000E+00 0.  1.
         23    2    1    2    0    0  0.33030865498E+03  0.13614975835E+03  0.37310043579E+03  0.52436889784E+03  0.90101285187E+02 0.  0.
    5000000    2    1    2    0    0 -0.33030865498E+03 -0.13614975835E+03  0.64895345383E+03  0.95331832893E+03  0.60002890495E+03 0.  0.
         23    2    4    4    0    0 -0.32487460034E+03 -0.24257811054E+03  0.16149517730E+03  0.44609989832E+03  0.92394704051E+02 0.  0.
         23    2    4    4    0    0 -0.54340546404E+01  0.10642835219E+03  0.48745827654E+03  0.50721843061E+03  0.91095784097E+02 0.  0.
          2    1    3    3  502    0  0.74498840914E+02  0.56825460171E+02  0.55441451788E+02  0.10887132220E+03  0.00000000000E+00 0. -1.
         -2    1    3    3    0  502  0.25580981406E+03  0.79324298176E+02  0.31765898400E+03  0.41549757564E+03  0.00000000000E+00 0.  1.
         15    1    5    5    0    0 -0.55616250199E+02 -0.79501187800E+02  0.12562979805E+02  0.97849845879E+02  0.17770000000E+01 0.  1.
        -15    1    5    5    0    0 -0.26925835014E+03 -0.16307692274E+03  0.14893219749E+03  0.34825005245E+03  0.17770000000E+01 0. -1.
          2    1    6    6  503    0  0.12703804137E+02  0.36117629684E+02  0.34695485862E+03  0.34906094559E+03  0.00000000000E+00 0. -1.
         -2    1    6    6    0  503 -0.18137858778E+02  0.70310722510E+02  0.14050341791E+03  0.15815748501E+03  0.00000000000E+00 0.  1.
<mgrwt>
<rscale>  0 0.44213017E+03</rscale>
<asrwt>0</asrwt>
<pdfrwt beam="1">  1        2 0.19228777E+00 0.44213017E+03</pdfrwt>
<pdfrwt beam="2">  1       -2 0.35048719E-01 0.44213017E+03</pdfrwt>
<totfact> 0.14117415E+02</totfact>
</mgrwt>
</event>
<event>
12    1  0.7781383E-008  0.5968702E+03  0.7818608E-02  0.9911921E-01
         -2   -1    0    0    0  501 -0.00000000000E+00  0.00000000000E+00  0.11093008755E+04  0.11093008755E+04  0.00000000000E+00 0.  1.
          2   -1    0    0  501    0  0.00000000000E+00 -0.00000000000E+00 -0.72460517181E+03  0.72460517181E+03  0.00000000000E+00 0. -1.
         23    2    1    2    0    0 -0.43573978069E+03 -0.21586758620E+03  0.81191548140E+03  0.95096245836E+03  0.93031591589E+02 0.  0.
    5000000    2    1    2    0    0  0.43573978069E+03  0.21586758620E+03 -0.42721977773E+03  0.88294358894E+03  0.60050368152E+03 0.  0.
         23    2    4    4    0    0 -0.10214670300E+03  0.41551287341E+01 -0.22640827031E+03  0.26409468502E+03  0.89633050615E+02 0.  0.
         23    2    4    4    0    0  0.53788648369E+03  0.21171245746E+03 -0.20081150742E+03  0.61884890392E+03  0.92220769839E+02 0.  0.
          1    1    3    3  502    0 -0.35478178424E+03 -0.18391633152E+03  0.59007644217E+03  0.71266088642E+03  0.00000000000E+00 0.  1.
         -1    1    3    3    0  502 -0.80957996452E+02 -0.31951254674E+02  0.22183903923E+03  0.23830157194E+03  0.00000000000E+00 0. -1.
         15    1    5    5    0    0 -0.53360374706E+02  0.35187648460E+02 -0.17638846238E+03  0.18762075467E+03  0.17770000000E+01 0. -1.
        -15    1    5    5    0    0 -0.48786328292E+02 -0.31032519726E+02 -0.50019807928E+02  0.76473930348E+02  0.17770000000E+01 0.  1.
          3    1    6    6  503    0  0.56722351131E+02  0.55633788015E+02 -0.24111437701E+02  0.83029542422E+02  0.00000000000E+00 0. -1.
         -3    1    6    6    0  503  0.48116413256E+03  0.15607866945E+03 -0.17670006972E+03  0.53581936150E+03  0.00000000000E+00 0.  1.
<mgrwt>
<rscale>  0 0.59687020E+03</rscale>
<asrwt>0</asrwt>
<pdfrwt beam="1">  1        2 0.11147772E+00 0.59687020E+03</pdfrwt>
<pdfrwt beam="2">  1       -2 0.17066167E+00 0.59687020E+03</pdfrwt>
<totfact> 0.85776083E+00</totfact>
</mgrwt>
</event>
<event>
12    1  0.7781383E-008  0.8324828E+03  0.7818608E-02  0.9514154E-01
          2   -1    0    0  501    0  0.00000000000E+00  0.00000000000E+00  0.37628776724E+04  0.37628776724E+04  0.00000000000E+00 0. -1.
         -2   -1    0    0    0  501 -0.00000000000E+00 -0.00000000000E+00 -0.21010915565E+03  0.21010915565E+03  0.00000000000E+00 0.  1.
         23    2    1    2    0    0  0.62429068325E+03  0.47322151130E+03  0.14686730691E+04  0.16670987876E+04  0.92413893330E+02 0.  0.
    5000000    2    1    2    0    0 -0.62429068325E+03 -0.47322151130E+03  0.20840954477E+04  0.23058880405E+04  0.59999030358E+03 0.  0.
         23    2    4    4    0    0 -0.60928539320E+03 -0.53060052749E+03  0.20276134741E+04  0.21844706949E+04  0.89051705954E+02 0.  0.
         23    2    4    4    0    0 -0.15005290044E+02  0.57379016185E+02  0.56481973630E+02  0.12141734567E+03  0.89635083852E+02 0.  0.
          1    1    3    3  502    0  0.15713247254E+03  0.75943480513E+02  0.36206071651E+03  0.40192784004E+03  0.00000000000E+00 0. -1.
         -1    1    3    3    0  502  0.46715821071E+03  0.39727803079E+03  0.11066123526E+04  0.12651709475E+04  0.00000000000E+00 0.  1.
         15    1    5    5    0    0 -0.35856296381E+02 -0.32099137163E+02  0.18906440637E+03  0.19510134823E+03  0.17770000000E+01 0. -1.
        -15    1    5    5    0    0 -0.57342909682E+03 -0.49850139032E+03  0.18385490677E+04  0.19893693466E+04  0.17770000000E+01 0.  1.
          4    1    6    6  503    0  0.95811568832E+01  0.33890798462E+02  0.74885270815E+02  0.82753782830E+02  0.00000000000E+00 0. -1.
         -4    1    6    6    0  503 -0.24586446927E+02  0.23488217723E+02 -0.18403297185E+02  0.38663562841E+02  0.00000000000E+00 0.  1.
<mgrwt>
<rscale>  0 0.83248283E+03</rscale>
<asrwt>0</asrwt>
<pdfrwt beam="1">  1        2 0.57890421E+00 0.83248283E+03</pdfrwt>
<pdfrwt beam="2">  1       -2 0.32324488E-01 0.83248283E+03</pdfrwt>
<totfact> 0.50236292E+00</totfact>
</mgrwt>
</event>
<event>
12    1  0.7781383E-008  0.3057654E+03  0.7818608E-02  0.1082394E+00
          2   -1    0    0  501    0  0.00000000000E+00  0.00000000000E+00  0.11128017008E+04  0.11128017008E+04  0.00000000000E+00 0.  1.
         -2   -1    0    0    0  501 -0.00000000000E+00 -0.00000000000E+00 -0.25543755061E+03  0.25543755061E+03  0.00000000000E+00 0. -1.
         23    2    1    2    0    0 -0.42388714762E+02  0.80255336291E+02  0.73862658434E+03  0.74998547308E+03  0.93119582242E+02 0.  0.
    5000000    2    1    2    0    0  0.42388714762E+02 -0.80255336291E+02  0.11873756585E+03  0.61825377833E+03  0.59991782998E+03 0.  0.
         23    2    4    4    0    0 -0.42454730777E+02  0.19127611895E+03 -0.10782891562E+03  0.24282978003E+03  0.94605862285E+02 0.  0.
         23    2    4    4    0    0  0.84843445538E+02 -0.27153145524E+03  0.22656648148E+03  0.37542399830E+03  0.93182973430E+02 0.  0.
          1    1    3    3  502    0 -0.58163101149E+02  0.92999248173E+02  0.63178982154E+03  0.64124112867E+03  0.00000000000E+00 0. -1.
         -1    1    3    3    0  502  0.15774386387E+02 -0.12743911882E+02  0.10683676280E+03  0.10874434441E+03  0.00000000000E+00 0.  1.
         15    1    5    5    0    0 -0.11517884703E+02  0.45305568156E+02 -0.77547177167E+02  0.90564775656E+02  0.17770000000E+01 0.  1.
        -15    1    5    5    0    0 -0.30936846073E+02  0.14597055079E+03 -0.30281738457E+02  0.15226500437E+03  0.17770000000E+01 0. -1.
          4    1    6    6  503    0  0.11935176964E+02 -0.74903589177E+02  0.11533721609E+03  0.13804227446E+03  0.00000000000E+00 0. -1.
         -4    1    6    6    0  503  0.72908268574E+02 -0.19662786606E+03  0.11122926539E+03  0.23738172385E+03  0.00000000000E+00 0.  1.
<mgrwt>
<rscale>  0 0.30576536E+03</rscale>
<asrwt>0</asrwt>
<pdfrwt beam="1">  1        2 0.17120026E+00 0.30576536E+03</pdfrwt>
<pdfrwt beam="2">  1       -2 0.39298085E-01 0.30576536E+03</pdfrwt>
<totfact> 0.13913584E+02</totfact>
</mgrwt>
</event>
<event>
12    1  0.7781383E-008  0.5102741E+03  0.7818608E-02  0.1011131E+00
         -2   -1    0    0    0  501 -0.00000000000E+00  0.00000000000E+00  0.94493816004E+03  0.94493816004E+03  0.00000000000E+00 0.  1.
          2   -1    0    0  501    0  0.00000000000E+00 -0.00000000000E+00 -0.55512873932E+03  0.55512873932E+03  0.00000000000E+00 0. -1.
         23    2    1    2    0    0  0.30754951344E+03  0.14715331404E+03  0.66726629379E+03  0.75629826775E+03  0.10247908043E+03 0.  0.
    5000000    2    1    2    0    0 -0.30754951344E+03 -0.14715331404E+03 -0.27745687307E+03  0.74376863161E+03  0.59997388268E+03 0.  0.
         23    2    4    4    0    0 -0.16436426628E+03  0.21341146425E+03 -0.62341521128E+02  0.29103479937E+03  0.90855512143E+02 0.  0.
         23    2    4    4    0    0 -0.14318524716E+03 -0.36056477829E+03 -0.21511535194E+03  0.45273383223E+03  0.90467308245E+02 0.  0.
          2    1    3    3  502    0  0.17754590977E+03  0.10478817352E+03  0.29656433218E+03  0.36118349146E+03  0.00000000000E+00 0. -1.
         -2    1    3    3    0  502  0.13000360368E+03  0.42365140520E+02  0.37070196161E+03  0.39511477629E+03  0.00000000000E+00 0.  1.
         15    1    5    5    0    0 -0.82091274226E+02  0.16803721643E+03 -0.20425359348E+02  0.18813781237E+03  0.17770000000E+01 0. -1.
        -15    1    5    5    0    0 -0.82272992059E+02  0.45374247816E+02 -0.41916161779E+02  0.10289698700E+03  0.17770000000E+01 0.  1.
          2    1    6    6  503    0 -0.25470903783E+02 -0.10896093039E+02 -0.50108883662E+01  0.28153166523E+02  0.00000000000E+00 0. -1.
         -2    1    6    6    0  503 -0.11771434337E+03 -0.34966868525E+03 -0.21010446358E+03  0.42458066571E+03  0.00000000000E+00 0.  1.
<mgrwt>
<rscale>  0 0.51027406E+03</rscale>
<asrwt>0</asrwt>
<pdfrwt beam="1">  1        2 0.85404421E-01 0.51027406E+03</pdfrwt>
<pdfrwt beam="2">  1       -2 0.14537510E+00 0.51027406E+03</pdfrwt>
<totfact> 0.18443447E+01</totfact>
</mgrwt>
</event>
<event>
12    1  0.7781383E-008  0.4054420E+03  0.7818608E-02  0.1041911E+00
         -2   -1    0    0    0  501 -0.00000000000E+00  0.00000000000E+00  0.68052936219E+02  0.68052936219E+02  0.00000000000E+00 0.  1.
          2   -1    0    0  501    0  0.00000000000E+00 -0.00000000000E+00 -0.28746748898E+04  0.28746748898E+04  0.00000000000E+00 0. -1.
         23    2    1    2    0    0 -0.10103242579E+03 -0.16499492113E+03 -0.11629934264E+04  0.11824088533E+04  0.90033945199E+02 0.  0.
    5000000    2    1    2    0    0  0.10103242579E+03  0.16499492113E+03 -0.16436285272E+04  0.17603189728E+04  0.59981436756E+03 0.  0.
         23    2    4    4    0    0 -0.13630194713E+03 -0.13684487635E+03 -0.81392695732E+03  0.84143931885E+03  0.90765050910E+02 0.  0.
         23    2    4    4    0    0  0.23733437291E+03  0.30183979749E+03 -0.82970156984E+03  0.91887965392E+03  0.92196830158E+02 0.  0.
          1    1    3    3  502    0 -0.30446239090E+02 -0.27400778681E+01 -0.29392197131E+03  0.29550737168E+03  0.00000000000E+00 0. -1.
         -1    1    3    3    0  502 -0.70586186697E+02 -0.16225484327E+03 -0.86907145512E+03  0.88690148158E+03  0.00000000000E+00 0.  1.
         15    1    5    5    0    0  0.77585722028E+01 -0.34530538681E+02 -0.10485872803E+03  0.11068452519E+03  0.17770000000E+01 0. -1.
        -15    1    5    5    0    0 -0.14406051933E+03 -0.10231433767E+03 -0.70906822930E+03  0.73075479366E+03  0.17770000000E+01 0.  1.
          3    1    6    6  503    0  0.68069532002E+02  0.14626875390E+03 -0.40491681313E+03  0.43587341639E+03  0.00000000000E+00 0. -1.
         -3    1    6    6    0  503  0.16926484091E+03  0.15557104358E+03 -0.42478475670E+03  0.48300623754E+03  0.00000000000E+00 0.  1.
<mgrwt>
<rscale>  0 0.40544201E+03</rscale>
<asrwt>0</asrwt>
<pdfrwt beam="1">  1        2 0.44225765E+00 0.40544201E+03</pdfrwt>
<pdfrwt beam="2">  1       -2 0.10469683E-01 0.40544201E+03</pdfrwt>
<totfact> 0.14712172E+02</totfact>
</mgrwt>
</event>
<event>
12    1  0.1011209E-007  0.7265203E+03  0.7818608E-02  0.9672924E-01
          2   -1    0    0  501    0  0.00000000000E+00  0.00000000000E+00  0.32496394146E+04  0.32496394146E+04  0.00000000000E+00 0. -1.
         -2   -1    0    0    0  501 -0.00000000000E+00 -0.00000000000E+00 -0.26701664675E+03  0.26701664675E+03  0.00000000000E+00 0.  1.
         23    2    1    2    0    0  0.79913593230E+02  0.68727122861E+03  0.46761235323E+03  0.84009887276E+03  0.91525291888E+02 0.  0.
    5000000    2    1    2    0    0 -0.79913593230E+02 -0.68727122861E+03  0.25150104146E+04  0.26765571886E+04  0.59996089374E+03 0.  0.
         23    2    4    4    0    0  0.19118721165E+01 -0.59645000473E+03  0.24203467680E+04  0.24943923342E+04  0.90323730676E+02 0.  0.
         23    2    4    4    0    0 -0.81825465347E+02 -0.90821223882E+02  0.94663646615E+02  0.18216485434E+03  0.96327185567E+02 0.  0.
          3    1    3    3  502    0  0.78461402377E+02  0.33192233918E+03  0.25661726893E+03  0.42682672553E+03  0.00000000000E+00 0. -1.
         -3    1    3    3    0  502  0.14521908527E+01  0.35534888943E+03  0.21099508429E+03  0.41327214723E+03  0.00000000000E+00 0.  1.
         15    1    5    5    0    0 -0.19839130093E+02 -0.55122448442E+03  0.21654168998E+04  0.22345638346E+04  0.17770000000E+01 0. -1.
        -15    1    5    5    0    0  0.21751002210E+02 -0.45225520310E+02  0.25492986820E+03  0.25982849961E+03  0.17770000000E+01 0.  1.
          4    1    6    6  503    0 -0.84659631767E+02 -0.10810204351E+03  0.89525312327E+02  0.16391487611E+03  0.00000000000E+00 0. -1.
         -4    1    6    6    0  503  0.28341664203E+01  0.17280819626E+02  0.51383342876E+01  0.18249978233E+02  0.00000000000E+00 0.  1.
<mgrwt>
<rscale>  0 0.72652031E+03</rscale>
<asrwt>0</asrwt>
<pdfrwt beam="1">  1        2 0.49994450E+00 0.72652031E+03</pdfrwt>
<pdfrwt beam="2">  1       -2 0.41079486E-01 0.72652031E+03</pdfrwt>
<totfact> 0.72775448E+00</totfact>
</mgrwt>
</event>
<event>
12    1  0.7781383E-008  0.9769973E+03  0.7818608E-02  0.9334140E-01
          2   -1    0    0  501    0  0.00000000000E+00  0.00000000000E+00  0.10188917015E+04  0.10188917015E+04  0.00000000000E+00 0. -1.
         -2   -1    0    0    0  501 -0.00000000000E+00 -0.00000000000E+00 -0.10001655272E+04  0.10001655272E+04  0.00000000000E+00 0.  1.
         23    2    1    2    0    0  0.88067947243E+03  0.11451880521E+03  0.24058114841E+03  0.92453838195E+03  0.90449106210E+02 0.  0.
    5000000    2    1    2    0    0 -0.88067947243E+03 -0.11451880521E+03 -0.22185497418E+03  0.10945188467E+04  0.60003415436E+03 0.  0.
         23    2    4    4    0    0 -0.44822562894E+03 -0.34516058428E+03 -0.11376477389E+03  0.58423021008E+03  0.91326180327E+02 0.  0.
         23    2    4    4    0    0 -0.43245384349E+03  0.23064177906E+03 -0.10809020029E+03  0.51028863667E+03  0.92190261471E+02 0.  0.
          1    1    3    3  502    0  0.78401151995E+03  0.11957409810E+03  0.19088188475E+03  0.81572539637E+03  0.00000000000E+00 0. -1.
         -1    1    3    3    0  502  0.96667952481E+02 -0.50552928846E+01  0.49699263655E+02  0.10881298558E+03  0.00000000000E+00 0.  1.
         15    1    5    5    0    0 -0.29609177626E+03 -0.21159461869E+03 -0.11533614787E+03  0.38176983558E+03  0.17770000000E+01 0. -1.
        -15    1    5    5    0    0 -0.15213385268E+03 -0.13356596559E+03  0.15713739851E+01  0.20246037449E+03  0.17770000000E+01 0.  1.
          3    1    6    6  503    0 -0.23895930674E+03  0.78291183544E+02 -0.70572343378E+02  0.26117334349E+03  0.00000000000E+00 0. -1.
         -3    1    6    6    0  503 -0.19349453676E+03  0.15235059552E+03 -0.37517856914E+02  0.24911529318E+03  0.00000000000E+00 0.  1.
<mgrwt>
<rscale>  0 0.97699734E+03</rscale>
<asrwt>0</asrwt>
<pdfrwt beam="1">  1        2 0.15675257E+00 0.97699734E+03</pdfrwt>
<pdfrwt beam="2">  1       -2 0.15387162E+00 0.97699734E+03</pdfrwt>
<totfact> 0.68124618E+00</totfact>
</mgrwt>
</event>
<event>
12    1  0.7781383E-008  0.8118805E+03  0.7818608E-02  0.9542978E-01
          2   -1    0    0  501    0  0.00000000000E+00  0.00000000000E+00  0.97066723023E+03  0.97066723023E+03  0.00000000000E+00 0.  1.
         -2   -1    0    0    0  501 -0.00000000000E+00 -0.00000000000E+00 -0.90022031536E+03  0.90022031536E+03  0.00000000000E+00 0. -1.
         23    2    1    2    0    0 -0.10004882093E+03 -0.76304731585E+03  0.35752222802E+03  0.85371298868E+03  0.93556136694E+02 0.  0.
    5000000    2    1    2    0    0  0.10004882093E+03  0.76304731585E+03 -0.28707531315E+03  0.10171745569E+04  0.59998405897E+03 0.  0.
         23    2    4    4    0    0 -0.11778954428E+03  0.46547569518E+03  0.73243387324E+02  0.49430379584E+03  0.91813121366E+02 0.  0.
         23    2    4    4    0    0  0.21783836521E+03  0.29757162067E+03 -0.36031870048E+03  0.52287076107E+03  0.86958864314E+02 0.  0.
          1    1    3    3  502    0 -0.19626093116E+02 -0.44040561608E+03  0.23315756144E+03  0.49870305660E+03  0.00000000000E+00 0. -1.
         -1    1    3    3    0  502 -0.80422727818E+02 -0.32264169977E+03  0.12436466658E+03  0.35500993207E+03  0.00000000000E+00 0.  1.
         15    1    5    5    0    0 -0.85010186167E+02  0.35691046978E+03  0.94582127166E+02  0.37889411674E+03  0.17770000000E+01 0. -1.
        -15    1    5    5    0    0 -0.32779358109E+02  0.10856522540E+03 -0.21338739842E+02  0.11540967910E+03  0.17770000000E+01 0.  1.
          3    1    6    6  503    0  0.99701366237E+02  0.11046706901E+03 -0.20152537134E+03  0.25051109967E+03  0.00000000000E+00 0. -1.
         -3    1    6    6    0  503  0.11813699897E+03  0.18710455166E+03 -0.15879332914E+03  0.27235966140E+03  0.00000000000E+00 0.  1.
<mgrwt>
<rscale>  0 0.81188052E+03</rscale>
<asrwt>0</asrwt>
<pdfrwt beam="1">  1        2 0.14933342E+00 0.81188052E+03</pdfrwt>
<pdfrwt beam="2">  1       -2 0.13849543E+00 0.81188052E+03</pdfrwt>
<totfact> 0.98195434E+00</totfact>
</mgrwt>
</event>
<event>
12    1  0.7781383E-008  0.6695451E+03  0.7818608E-02  0.9770780E-01
          1   -1    0    0  501    0  0.00000000000E+00  0.00000000000E+00  0.28807046282E+04  0.28807046282E+04  0.00000000000E+00 0. -1.
         -1   -1    0    0    0  501 -0.00000000000E+00 -0.00000000000E+00 -0.20212749066E+03  0.20212749066E+03  0.00000000000E+00 0.  1.
         23    2    1    2    0    0 -0.12427925211E+03  0.60653265445E+03  0.14753918471E+04  0.16026431867E+04  0.91416017039E+02 0.  0.
    5000000    2    1    2    0    0  0.12427925211E+03 -0.60653265445E+03  0.12031852904E+04  0.14801889321E+04  0.59998103148E+03 0.  0.
         23    2    4    4    0    0 -0.10033588321E+03 -0.36439159813E+03  0.23798291893E+03  0.45585562515E+03  0.91213787462E+02 0.  0.
         23    2    4    4    0    0  0.22461513532E+03 -0.24214105632E+03  0.96520237151E+03  0.10243333069E+04  0.92514083167E+02 0.  0.
          3    1    3    3  502    0 -0.11847221519E+02  0.18140529617E+03  0.35018728540E+03  0.39456225490E+03  0.00000000000E+00 0. -1.
         -3    1    3    3    0  502 -0.11243203059E+03  0.42512735828E+03  0.11252045617E+04  0.12080809318E+04  0.00000000000E+00 0.  1.
         15    1    5    5    0    0 -0.35579319720E+02 -0.30857801022E+02  0.44716628409E+02  0.64967887921E+02  0.17770000000E+01 0. -1.
        -15    1    5    5    0    0 -0.64756563491E+02 -0.33353379711E+03  0.19326629053E+03  0.39088773723E+03  0.17770000000E+01 0.  1.
          2    1    6    6  503    0  0.16717527677E+03 -0.19007672994E+03  0.83772025300E+03  0.87512968109E+03  0.00000000000E+00 0. -1.
         -2    1    6    6    0  503  0.57439858545E+02 -0.52064326373E+02  0.12748211851E+03  0.14920362586E+03  0.00000000000E+00 0.  1.
<mgrwt>
<rscale>  0 0.66954505E+03</rscale>
<asrwt>0</asrwt>
<pdfrwt beam="1">  1        1 0.44318530E+00 0.66954505E+03</pdfrwt>
<pdfrwt beam="2">  1       -1 0.31096539E-01 0.66954505E+03</pdfrwt>
<totfact> 0.75330007E+00</totfact>
</mgrwt>
</event>
<event>
12    1  0.7781383E-008  0.2400900E+04  0.7818608E-02  0.8439167E-01
          2   -1    0    0  501    0  0.00000000000E+00  0.00000000000E+00  0.29366527403E+04  0.29366527403E+04  0.00000000000E+00 0. -1.
         -2   -1    0    0    0  501 -0.00000000000E+00 -0.00000000000E+00 -0.21473636225E+04  0.21473636225E+04  0.00000000000E+00 0.  1.
         23    2    1    2    0    0  0.48009608086E+03 -0.23225146391E+04 -0.32569133360E+03  0.23956032723E+04  0.90959868065E+02 0.  0.
    5000000    2    1    2    0    0 -0.48009608086E+03  0.23225146391E+04  0.11149804514E+04  0.26884130906E+04  0.59984751644E+03 0.  0.
         23    2    4    4    0    0 -0.51769956220E+03  0.12047405060E+04  0.48231308339E+03  0.14002227783E+04  0.92657406754E+02 0.  0.
         23    2    4    4    0    0  0.37603481340E+02  0.11177741331E+04  0.63266736804E+03  0.12881903123E+04  0.91286623541E+02 0.  0.
          3    1    3    3  502    0  0.34117490547E+03 -0.16464990780E+04 -0.18911308294E+03  0.16920766200E+04  0.00000000000E+00 0. -1.
         -3    1    3    3    0  502  0.13892117539E+03 -0.67601556112E+03 -0.13657825066E+03  0.70352665223E+03  0.00000000000E+00 0.  1.
         15    1    5    5    0    0 -0.34906129150E+03  0.85218055295E+03  0.38007687274E+03  0.99625150789E+03  0.17770000000E+01 0. -1.
        -15    1    5    5    0    0 -0.16863827070E+03  0.35255995307E+03  0.10223621065E+03  0.40397127045E+03  0.17770000000E+01 0.  1.
          1    1    6    6  503    0  0.25534632313E+02  0.59481446371E+03  0.38854239256E+03  0.71092999269E+03  0.00000000000E+00 0. -1.
         -1    1    6    6    0  503  0.12068849028E+02  0.52295966937E+03  0.24412497547E+03  0.57726031957E+03  0.00000000000E+00 0.  1.
<mgrwt>
<rscale>  0 0.24009000E+04</rscale>
<asrwt>0</asrwt>
<pdfrwt beam="1">  1        2 0.45179273E+00 0.24009000E+04</pdfrwt>
<pdfrwt beam="2">  1       -2 0.33036363E+00 0.24009000E+04</pdfrwt>
<totfact> 0.33423217E-02</totfact>
</mgrwt>
</event>
<event>
12    1  0.7781383E-008  0.1146926E+04  0.7818608E-02  0.9160624E-01
          2   -1    0    0  501    0  0.00000000000E+00  0.00000000000E+00  0.23043591655E+04  0.23043591655E+04  0.00000000000E+00 0.  1.
         -2   -1    0    0    0  501 -0.00000000000E+00 -0.00000000000E+00 -0.10753512500E+04  0.10753512500E+04  0.00000000000E+00 0. -1.
         23    2    1    2    0    0 -0.86494089631E+03 -0.65637720843E+03 -0.54230165515E+03  0.12171688092E+04  0.91951242461E+02 0.  0.
    5000000    2    1    2    0    0  0.86494089631E+03  0.65637720843E+03  0.17713095706E+04  0.21625416063E+04  0.60007900348E+03 0.  0.
         23    2    4    4    0    0  0.91027285031E+03  0.61392866769E+03  0.17197634488E+04  0.20423258111E+04  0.89461321382E+02 0.  0.
         23    2    4    4    0    0 -0.45331954003E+02  0.42448540732E+02  0.51546121838E+02  0.12021579523E+03  0.89095286528E+02 0.  0.
          4    1    3    3  502    0 -0.51466437224E+03 -0.41253390201E+03 -0.37510591624E+03  0.75879383548E+03  0.00000000000E+00 0. -1.
         -4    1    3    3    0  502 -0.35027652407E+03 -0.24384330642E+03 -0.16719573891E+03  0.45837497370E+03  0.00000000000E+00 0.  1.
         15    1    5    5    0    0  0.63193988868E+03  0.39397281861E+03  0.12232238158E+04  0.14320762082E+04  0.17770000000E+01 0. -1.
        -15    1    5    5    0    0  0.27833296163E+03  0.21995584908E+03  0.49653963294E+03  0.61024960294E+03  0.17770000000E+01 0.  1.
          4    1    6    6  503    0 -0.12106393976E+02 -0.27790662791E+02  0.89601401429E+01  0.31609647655E+02  0.00000000000E+00 0. -1.
         -4    1    6    6    0  503 -0.33225560027E+02  0.70239203523E+02  0.42585981695E+02  0.88606147572E+02  0.00000000000E+00 0.  1.
<mgrwt>
<rscale>  0 0.11469257E+04</rscale>
<asrwt>0</asrwt>
<pdfrwt beam="1">  1        2 0.35451679E+00 0.11469257E+04</pdfrwt>
<pdfrwt beam="2">  1       -2 0.16543865E+00 0.11469257E+04</pdfrwt>
<totfact> 0.10167747E+00</totfact>
</mgrwt>
</event>
<event>
12    1  0.7781383E-008  0.9725369E+03  0.7818608E-02  0.9339190E-01
          1   -1    0    0  501    0  0.00000000000E+00  0.00000000000E+00  0.11673749893E+04  0.11673749893E+04  0.00000000000E+00 0. -1.
         -1   -1    0    0    0  501 -0.00000000000E+00 -0.00000000000E+00 -0.10404561765E+04  0.10404561765E+04  0.00000000000E+00 0.  1.
         23    2    1    2    0    0  0.75656229200E+02 -0.88822255619E+03 -0.43422498393E+03  0.99562670393E+03  0.89766489079E+02 0.  0.
    5000000    2    1    2    0    0 -0.75656229200E+02  0.88822255619E+03  0.56114379671E+03  0.12122044618E+04  0.59991176211E+03 0.  0.
         23    2    4    4    0    0 -0.30957438627E+03  0.63553161475E+03  0.43178085481E+03  0.83320956892E+03  0.89815061030E+02 0.  0.
         23    2    4    4    0    0  0.23391815707E+03  0.25269094144E+03  0.12936294190E+03  0.37899489289E+03  0.91279471989E+02 0.  0.
          2    1    3    3  502    0  0.40978701561E+02 -0.29642238228E+03 -0.19006243942E+03  0.35449853819E+03  0.00000000000E+00 0.  1.
         -2    1    3    3    0  502  0.34677527640E+02 -0.59180017391E+03 -0.24416254450E+03  0.64112816573E+03  0.00000000000E+00 0. -1.
         15    1    5    5    0    0 -0.13805559836E+03  0.23161533846E+03  0.12142139389E+03  0.29572170342E+03  0.17770000000E+01 0.  1.
        -15    1    5    5    0    0 -0.17151878791E+03  0.40391627629E+03  0.31035946092E+03  0.53748786550E+03  0.17770000000E+01 0. -1.
          4    1    6    6  503    0  0.89040328000E+02  0.10472321431E+03  0.52375738632E+01  0.13755931014E+03  0.00000000000E+00 0. -1.
         -4    1    6    6    0  503  0.14487782907E+03  0.14796772713E+03  0.12412536804E+03  0.24143558275E+03  0.00000000000E+00 0.  1.
<mgrwt>
<rscale>  0 0.97253686E+03</rscale>
<asrwt>0</asrwt>
<pdfrwt beam="1">  1        1 0.17959615E+00 0.97253686E+03</pdfrwt>
<pdfrwt beam="2">  1       -1 0.16007018E+00 0.97253686E+03</pdfrwt>
<totfact> 0.33189662E+00</totfact>
</mgrwt>
</event>
<event>
12    1  0.1331738E-007  0.9164558E+03  0.7818608E-02  0.9405242E-01
          1   -1    0    0  501    0  0.00000000000E+00  0.00000000000E+00  0.26884317818E+04  0.26884317818E+04  0.00000000000E+00 0. -1.
         -1   -1    0    0    0  501 -0.00000000000E+00 -0.00000000000E+00 -0.37094958148E+03  0.37094958148E+03  0.00000000000E+00 0.  1.
         23    2    1    2    0    0 -0.83640603875E+03  0.34795967388E+03  0.99509303384E+03  0.13478448332E+04  0.76318753343E+02 0.  0.
    5000000    2    1    2    0    0  0.83640603875E+03 -0.34795967388E+03  0.13223891665E+04  0.17115365301E+04  0.59999432482E+03 0.  0.
         23    2    4    4    0    0  0.19002686403E+03 -0.10048170477E+03  0.81715288703E+03  0.84989494387E+03  0.91519357487E+02 0.  0.
         23    2    4    4    0    0  0.64637917472E+03 -0.24747796911E+03  0.50523627943E+03  0.86164158618E+03  0.90061880200E+02 0.  0.
          4    1    3    3  502    0 -0.26664498760E+03  0.82862369322E+02  0.34211084575E+03  0.44159433018E+03  0.00000000000E+00 0.  1.
         -4    1    3    3    0  502 -0.56976105115E+03  0.26509730456E+03  0.65298218808E+03  0.90625050303E+03  0.00000000000E+00 0. -1.
         15    1    5    5    0    0  0.48737338571E+02 -0.74997613855E+02  0.28484378074E+03  0.29856173132E+03  0.17770000000E+01 0. -1.
        -15    1    5    5    0    0  0.14128952546E+03 -0.25484090911E+02  0.53230910629E+03  0.55133321255E+03  0.17770000000E+01 0.  1.
          2    1    6    6  503    0  0.25135480728E+03 -0.10232658899E+03  0.14512262268E+03  0.30775078484E+03  0.00000000000E+00 0. -1.
         -2    1    6    6    0  503  0.39502436744E+03 -0.14515138013E+03  0.36011365676E+03  0.55389080134E+03  0.00000000000E+00 0.  1.
<mgrwt>
<rscale>  0 0.91645576E+03</rscale>
<asrwt>0</asrwt>
<pdfrwt beam="1">  1        1 0.41360488E+00 0.91645576E+03</pdfrwt>
<pdfrwt beam="2">  1       -1 0.57069168E-01 0.91645576E+03</pdfrwt>
<totfact> 0.32169227E+00</totfact>
</mgrwt>
</event>
<event>
12    1  0.7781383E-008  0.5185987E+03  0.7818608E-02  0.1009035E+00
         -2   -1    0    0    0  501 -0.00000000000E+00  0.00000000000E+00  0.10061230578E+04  0.10061230578E+04  0.00000000000E+00 0.  1.
          2   -1    0    0  501    0  0.00000000000E+00 -0.00000000000E+00 -0.28079653466E+03  0.28079653466E+03  0.00000000000E+00 0. -1.
         23    2    1    2    0    0  0.29321147206E+03  0.18143051442E+03  0.14833502124E+03  0.38590626838E+03  0.89612334762E+02 0.  0.
    5000000    2    1    2    0    0 -0.29321147206E+03 -0.18143051442E+03  0.57699150190E+03  0.90101332409E+03  0.60001318153E+03 0.  0.
         23    2    4    4    0    0  0.16804810873E+03 -0.10139909020E+03  0.16518005177E+03  0.27105991618E+03  0.87561899889E+02 0.  0.
         23    2    4    4    0    0 -0.46125958079E+03 -0.80031424214E+02  0.41181145013E+03  0.62995340791E+03  0.89928838234E+02 0.  0.
          1    1    3    3  502    0  0.16598340609E+03  0.74131002227E+02  0.11801447308E+03  0.21673327489E+03  0.00000000000E+00 0. -1.
         -1    1    3    3    0  502  0.12722806596E+03  0.10729951219E+03  0.30320548162E+02  0.16917299349E+03  0.00000000000E+00 0.  1.
         15    1    5    5    0    0  0.19291565080E+02  0.14259458873E+02  0.70566858370E+01  0.25068928868E+02  0.17770000000E+01 0.  1.
        -15    1    5    5    0    0  0.14875654365E+03 -0.11565854908E+03  0.15812336593E+03  0.24599098731E+03  0.17770000000E+01 0. -1.
          2    1    6    6  503    0 -0.36203648598E+03 -0.99303636298E+02  0.31644274382E+03  0.49098639440E+03  0.00000000000E+00 0. -1.
         -2    1    6    6    0  503 -0.99223094806E+02  0.19272212085E+02  0.95368706310E+02  0.13896701351E+03  0.00000000000E+00 0.  1.
<mgrwt>
<rscale>  0 0.51859870E+03</rscale>
<asrwt>0</asrwt>
<pdfrwt beam="1">  1        2 0.43199467E-01 0.51859870E+03</pdfrwt>
<pdfrwt beam="2">  1       -2 0.15478816E+00 0.51859870E+03</pdfrwt>
<totfact> 0.33573627E+01</totfact>
</mgrwt>
</event>
<event>
12    1  0.7781383E-008  0.8043891E+03  0.7818608E-02  0.9553686E-01
          2   -1    0    0  501    0  0.00000000000E+00  0.00000000000E+00  0.16251891093E+04  0.16251891093E+04  0.00000000000E+00 0. -1.
         -2   -1    0    0    0  501 -0.00000000000E+00 -0.00000000000E+00 -0.40854170929E+03  0.40854170929E+03  0.00000000000E+00 0.  1.
         23    2    1    2    0    0 -0.54417229025E+03 -0.43916675836E+03  0.59042573317E+03  0.91964217224E+03  0.90267687746E+02 0.  0.
    5000000    2    1    2    0    0  0.54417229025E+03  0.43916675836E+03  0.62622166685E+03  0.11140886464E+04  0.60004084261E+03 0.  0.
         23    2    4    4    0    0  0.59118297414E+03  0.15618432364E+03  0.44741663337E+03  0.76286588184E+03  0.88836130038E+02 0.  0.
         23    2    4    4    0    0 -0.47010683882E+02  0.28298243472E+03  0.17880503348E+03  0.35122276452E+03  0.95378863310E+02 0.  0.
          3    1    3    3  502    0 -0.31472258172E+03 -0.29464807626E+03  0.32213603459E+03  0.53818158373E+03  0.00000000000E+00 0. -1.
         -3    1    3    3    0  502 -0.22944970853E+03 -0.14451868210E+03  0.26828969858E+03  0.38146058851E+03  0.00000000000E+00 0.  1.
         15    1    5    5    0    0  0.34419642353E+03  0.11821374925E+03  0.22184319681E+03  0.42621969709E+03  0.17770000000E+01 0.  1.
        -15    1    5    5    0    0  0.24698655060E+03  0.37970574390E+02  0.22557343656E+03  0.33664618475E+03  0.17770000000E+01 0. -1.
          2    1    6    6  503    0 -0.31667266821E+02  0.50107369409E+02  0.35792930161E+01  0.59383293909E+02  0.00000000000E+00 0.  1.
         -2    1    6    6    0  503 -0.15343417061E+02  0.23287506531E+03  0.17522574046E+03  0.29183947062E+03  0.00000000000E+00 0. -1.
<mgrwt>
<rscale>  0 0.80438913E+03</rscale>
<asrwt>0</asrwt>
<pdfrwt beam="1">  1        2 0.25002909E+00 0.80438913E+03</pdfrwt>
<pdfrwt beam="2">  1       -2 0.62852571E-01 0.80438913E+03</pdfrwt>
<totfact> 0.25818409E+01</totfact>
</mgrwt>
</event>
<event>
12    1  0.7781383E-008  0.5546236E+03  0.7818608E-02  0.1000429E+00
         -1   -1    0    0    0  501 -0.00000000000E+00  0.00000000000E+00  0.17789947464E+03  0.17789947464E+03  0.00000000000E+00 0.  1.
          1   -1    0    0  501    0  0.00000000000E+00 -0.00000000000E+00 -0.35442672712E+04  0.35442672712E+04  0.00000000000E+00 0. -1.
         23    2    1    2    0    0 -0.23753248163E+03  0.34969998996E+03 -0.20862453461E+03  0.48025444176E+03  0.91697162366E+02 0.  0.
    5000000    2    1    2    0    0  0.23753248163E+03 -0.34969998996E+03 -0.31577432619E+04  0.32419123040E+04  0.59995092813E+03 0.  0.
         23    2    4    4    0    0  0.40799852924E+03 -0.19165101436E+03 -0.24095502682E+04  0.24531206201E+04  0.93141670307E+02 0.  0.
         23    2    4    4    0    0 -0.17046604761E+03 -0.15804897560E+03 -0.74819299373E+03  0.78879168394E+03  0.91440760628E+02 0.  0.
          3    1    3    3  502    0 -0.22717945300E+02  0.63021338426E+02 -0.26818499717E+01  0.67044660153E+02  0.00000000000E+00 0. -1.
         -3    1    3    3    0  502 -0.21481453633E+03  0.28667865153E+03 -0.20594268463E+03  0.41320978161E+03  0.00000000000E+00 0.  1.
         15    1    5    5    0    0  0.61123939577E+02 -0.23103936058E+02 -0.55914984406E+03  0.56295793244E+03  0.17770000000E+01 0. -1.
        -15    1    5    5    0    0  0.34687458966E+03 -0.16854707830E+03 -0.18504004241E+04  0.18901626877E+04  0.17770000000E+01 0.  1.
          1    1    6    6  503    0 -0.10141703583E+03 -0.83356409553E+02 -0.55659102291E+03  0.57186298443E+03  0.00000000000E+00 0. -1.
         -1    1    6    6    0  503 -0.69049011774E+02 -0.74692566043E+02 -0.19160197082E+03  0.21692869951E+03  0.00000000000E+00 0.  1.
<mgrwt>
<rscale>  0 0.55462360E+03</rscale>
<asrwt>0</asrwt>
<pdfrwt beam="1">  1        1 0.54527182E+00 0.55462360E+03</pdfrwt>
<pdfrwt beam="2">  1       -1 0.27369153E-01 0.55462360E+03</pdfrwt>
<totfact> 0.31323829E+00</totfact>
</mgrwt>
</event>
<event>
12    1  0.7781383E-008  0.6361660E+03  0.7818608E-02  0.9833090E-01
          2   -1    0    0  501    0  0.00000000000E+00  0.00000000000E+00  0.65448626044E+03  0.65448626044E+03  0.00000000000E+00 0. -1.
         -2   -1    0    0    0  501 -0.00000000000E+00 -0.00000000000E+00 -0.74383671395E+03  0.74383671395E+03  0.00000000000E+00 0.  1.
         23    2    1    2    0    0  0.22888642293E+03 -0.43691817280E+03 -0.31183332521E+03  0.59036323822E+03  0.89455273758E+02 0.  0.
    5000000    2    1    2    0    0 -0.22888642293E+03  0.43691817280E+03  0.22248287169E+03  0.80795973617E+03  0.60001151885E+03 0.  0.
         23    2    4    4    0    0  0.11673354045E+03 -0.64058332493E+02  0.35957747263E+02  0.16500602961E+03  0.90575056120E+02 0.  0.
         23    2    4    4    0    0 -0.34561996338E+03  0.50097650530E+03  0.18652512443E+03  0.64295370657E+03  0.90372721558E+02 0.  0.
          1    1    3    3  502    0  0.12738373545E+03 -0.32309514374E+03 -0.19543958182E+03  0.39851438883E+03  0.00000000000E+00 0. -1.
         -1    1    3    3    0  502  0.10150268748E+03 -0.11382302907E+03 -0.11639374339E+03  0.19184884939E+03  0.00000000000E+00 0.  1.
         15    1    5    5    0    0  0.37509831635E+02  0.21556171895E+02  0.13441996374E+01  0.43319979429E+02  0.17770000000E+01 0.  1.
        -15    1    5    5    0    0  0.79223708815E+02 -0.85614504388E+02  0.34613547626E+02  0.12168605018E+03  0.17770000000E+01 0. -1.
          4    1    6    6  503    0 -0.80431198532E+02  0.70461067101E+02  0.10031129358E+02  0.10739908394E+03  0.00000000000E+00 0. -1.
         -4    1    6    6    0  503 -0.26518876484E+03  0.43051543819E+03  0.17649399507E+03  0.53555462263E+03  0.00000000000E+00 0.  1.
<mgrwt>
<rscale>  0 0.63616595E+03</rscale>
<asrwt>0</asrwt>
<pdfrwt beam="1">  1        2 0.10069019E+00 0.63616595E+03</pdfrwt>
<pdfrwt beam="2">  1       -2 0.11443642E+00 0.63616595E+03</pdfrwt>
<totfact> 0.27242411E+01</totfact>
</mgrwt>
</event>
<event>
12    1  0.7781383E-008  0.2579640E+03  0.7818608E-02  0.1108373E+00
          3   -1    0    0  501    0  0.00000000000E+00  0.00000000000E+00  0.17009614009E+04  0.17009614009E+04  0.00000000000E+00 0. -1.
         -3   -1    0    0    0  501 -0.00000000000E+00 -0.00000000000E+00 -0.13373842904E+03  0.13373842904E+03  0.00000000000E+00 0.  1.
         23    2    1    2    0    0 -0.36330916651E+02  0.22762216075E+03  0.18206282903E+03  0.30785236814E+03  0.92165195624E+02 0.  0.
    5000000    2    1    2    0    0  0.36330916651E+02 -0.22762216075E+03  0.13851601429E+04  0.15268474618E+04  0.59955213850E+03 0.  0.
         23    2    4    4    0    0 -0.28890076747E+02 -0.90181877779E+02  0.13364465176E+04  0.13429541401E+04  0.92027822954E+02 0.  0.
         23    2    4    4    0    0  0.65220993398E+02 -0.13744028297E+03  0.48713625243E+02  0.18389332179E+03  0.91105033625E+02 0.  0.
          3    1    3    3  502    0 -0.13806931151E+01  0.16855366953E+03  0.16761950089E+03  0.23771525593E+03  0.00000000000E+00 0. -1.
         -3    1    3    3    0  502 -0.34950223535E+02  0.59068491227E+02  0.14443328138E+02  0.70137112207E+02  0.00000000000E+00 0.  1.
         15    1    5    5    0    0 -0.52507916107E+02 -0.87655348122E+02  0.88522232538E+03  0.89110171383E+03  0.17770000000E+01 0.  1.
        -15    1    5    5    0    0  0.23617839359E+02 -0.25265296571E+01  0.45122419224E+03  0.45185242622E+03  0.17770000000E+01 0. -1.
          1    1    6    6  503    0  0.47032439207E+02 -0.11175115945E+03  0.75271324339E+02  0.14271000051E+03  0.00000000000E+00 0. -1.
         -1    1    6    6    0  503  0.18188554191E+02 -0.25689123522E+02 -0.26557699097E+02  0.41183321287E+02  0.00000000000E+00 0.  1.
<mgrwt>
<rscale>  0 0.25796395E+03</rscale>
<asrwt>0</asrwt>
<pdfrwt beam="1">  1        3 0.26168635E+00 0.25796395E+03</pdfrwt>
<pdfrwt beam="2">  1       -3 0.20575144E-01 0.25796395E+03</pdfrwt>
<totfact> 0.37565211E+00</totfact>
</mgrwt>
</event>
<event>
12    1  0.7781383E-008  0.1159360E+04  0.7818608E-02  0.9149191E-01
          1   -1    0    0  501    0  0.00000000000E+00  0.00000000000E+00  0.14824171682E+04  0.14824171682E+04  0.00000000000E+00 0. -1.
         -1   -1    0    0    0  501 -0.00000000000E+00 -0.00000000000E+00 -0.98510884011E+03  0.98510884011E+03  0.00000000000E+00 0.  1.
         23    2    1    2    0    0  0.11571606669E+03  0.10801188052E+04 -0.91995886583E+02  0.10937283350E+04  0.87929438921E+02 0.  0.
    5000000    2    1    2    0    0 -0.11571606669E+03 -0.10801188052E+04  0.58930421468E+03  0.13737976733E+04  0.59999479032E+03 0.  0.
         23    2    4    4    0    0  0.19977703043E+03 -0.71112285450E+03  0.30534497761E+03  0.80445853737E+03  0.91166917904E+02 0.  0.
         23    2    4    4    0    0 -0.31549309713E+03 -0.36899595068E+03  0.28395923707E+03  0.56933913596E+03  0.88432445754E+02 0.  0.
          1    1    3    3  502    0  0.97696643197E+02  0.66165179079E+03 -0.90115869102E+02  0.67486931788E+03  0.00000000000E+00 0. -1.
         -1    1    3    3    0  502  0.18019423495E+02  0.41846701439E+03 -0.18800174809E+01  0.41885901712E+03  0.00000000000E+00 0.  1.
         15    1    5    5    0    0  0.15200942610E+03 -0.37402646289E+03  0.17021454642E+03  0.43815386579E+03  0.17770000000E+01 0. -1.
        -15    1    5    5    0    0  0.47767604331E+02 -0.33709639161E+03  0.13513043119E+03  0.36630467158E+03  0.17770000000E+01 0.  1.
          1    1    6    6  503    0 -0.18693314108E+03 -0.19090633634E+03  0.20179901444E+03  0.33483140641E+03  0.00000000000E+00 0. -1.
         -1    1    6    6    0  503 -0.12855995604E+03 -0.17808961434E+03  0.82160222624E+02  0.23450772954E+03  0.00000000000E+00 0.  1.
<mgrwt>
<rscale>  0 0.11593603E+04</rscale>
<asrwt>0</asrwt>
<pdfrwt beam="1">  1        1 0.22806418E+00 0.11593603E+04</pdfrwt>
<pdfrwt beam="2">  1       -1 0.15155521E+00 0.11593603E+04</pdfrwt>
<totfact> 0.22498297E+00</totfact>
</mgrwt>
</event>
<event>
12    1  0.7781383E-008  0.3147504E+03  0.7818608E-02  0.1078091E+00
          2   -1    0    0  501    0  0.00000000000E+00  0.00000000000E+00  0.27061776519E+04  0.27061776519E+04  0.00000000000E+00 0.  1.
         -2   -1    0    0    0  501 -0.00000000000E+00 -0.00000000000E+00 -0.47180649363E+02  0.47180649363E+02  0.00000000000E+00 0. -1.
         23    2    1    2    0    0  0.26394426579E+02  0.41026285780E+02  0.55443238406E+03  0.56438489791E+03  0.93569346520E+02 0.  0.
    5000000    2    1    2    0    0 -0.26394426579E+02 -0.41026285780E+02  0.21045646185E+04  0.21889734034E+04  0.60002708722E+03 0.  0.
         23    2    4    4    0    0 -0.21163793526E+03  0.13413489704E+03  0.55072724114E+03  0.61188461723E+03  0.91211317401E+02 0.  0.
         23    2    4    4    0    0  0.18524350868E+03 -0.17516118282E+03  0.15538373774E+04  0.15770887862E+04  0.88328062690E+02 0.  0.
          3    1    3    3  502    0  0.58255485483E+01  0.66121684850E+02  0.26701915704E+03  0.27514586031E+03  0.00000000000E+00 0. -1.
         -3    1    3    3    0  502  0.20568878030E+02 -0.25095399071E+02  0.28741322702E+03  0.28923903759E+03  0.00000000000E+00 0.  1.
         15    1    5    5    0    0 -0.17643199298E+03  0.72048467382E+02  0.44728769937E+03  0.48619818339E+03  0.17770000000E+01 0. -1.
        -15    1    5    5    0    0 -0.35205942277E+02  0.62086429657E+02  0.10343954177E+03  0.12568643384E+03  0.17770000000E+01 0.  1.
          1    1    6    6  503    0  0.27387034631E+02 -0.79571029905E+02  0.42252228568E+03  0.43082093770E+03  0.00000000000E+00 0. -1.
         -1    1    6    6    0  503  0.15785647405E+03 -0.95590152913E+02  0.11313150917E+04  0.11462678485E+04  0.00000000000E+00 0.  1.
<mgrwt>
<rscale>  0 0.31475044E+03</rscale>
<asrwt>0</asrwt>
<pdfrwt beam="1">  1        2 0.41633490E+00 0.31475044E+03</pdfrwt>
<pdfrwt beam="2">  1       -2 0.72585635E-02 0.31475044E+03</pdfrwt>
<totfact> 0.33604294E+02</totfact>
</mgrwt>
</event>
<event>
12    1  0.7781383E-008  0.5462855E+03  0.7818608E-02  0.1002357E+00
         -2   -1    0    0    0  501 -0.00000000000E+00  0.00000000000E+00  0.12350283153E+04  0.12350283153E+04  0.00000000000E+00 0. -1.
          2   -1    0    0  501    0  0.00000000000E+00 -0.00000000000E+00 -0.32176316081E+03  0.32176316081E+03  0.00000000000E+00 0.  1.
         23    2    1    2    0    0  0.24753552948E+03 -0.40323885247E+03  0.47164089111E+03  0.67421377298E+03  0.90794664005E+02 0.  0.
    5000000    2    1    2    0    0 -0.24753552948E+03  0.40323885247E+03  0.44162426341E+03  0.88257770316E+03  0.60003000058E+03 0.  0.
         23    2    4    4    0    0  0.67254144904E+02  0.24743695372E+03 -0.44377130345E+02  0.27496614189E+03  0.88819386478E+02 0.  0.
         23    2    4    4    0    0 -0.31478967438E+03  0.15580189875E+03  0.48600139375E+03  0.60761156128E+03  0.98120761897E+02 0.  0.
          3    1    3    3  502    0  0.32068877886E+02 -0.31078334246E+02  0.15373324501E+02  0.47229385922E+02  0.00000000000E+00 0. -1.
         -3    1    3    3    0  502  0.21546665159E+03 -0.37216051822E+03  0.45626756661E+03  0.62698438705E+03  0.00000000000E+00 0.  1.
         15    1    5    5    0    0  0.57956704286E+02  0.21432063089E+03 -0.42257980665E+01  0.22206604309E+03  0.17770000000E+01 0.  1.
        -15    1    5    5    0    0  0.92974406174E+01  0.33116322832E+02 -0.40151332279E+02  0.52900098797E+02  0.17770000000E+01 0. -1.
          3    1    6    6  503    0 -0.10929245531E+02  0.31087991081E+02  0.24065405199E+02  0.40805089446E+02  0.00000000000E+00 0. -1.
         -3    1    6    6    0  503 -0.30386042885E+03  0.12471390767E+03  0.46193598855E+03  0.56680647183E+03  0.00000000000E+00 0.  1.
<mgrwt>
<rscale>  0 0.54628555E+03</rscale>
<asrwt>0</asrwt>
<pdfrwt beam="1">  1        2 0.49502025E-01 0.54628555E+03</pdfrwt>
<pdfrwt beam="2">  1       -2 0.19000435E+00 0.54628555E+03</pdfrwt>
<totfact> 0.16331297E+01</totfact>
</mgrwt>
</event>
<event>
12    1  0.7781383E-008  0.2122716E+04  0.7818608E-02  0.8551302E-01
         -1   -1    0    0    0  501 -0.00000000000E+00  0.00000000000E+00  0.22412961935E+04  0.22412961935E+04  0.00000000000E+00 0.  1.
          1   -1    0    0  501    0  0.00000000000E+00 -0.00000000000E+00 -0.22447228171E+04  0.22447228171E+04  0.00000000000E+00 0. -1.
         23    2    1    2    0    0  0.16795740858E+04 -0.12936068830E+04  0.59332795818E+03  0.22034009475E+04  0.92465085570E+02 0.  0.
    5000000    2    1    2    0    0 -0.16795740858E+04  0.12936068830E+04 -0.59675458178E+03  0.22826180631E+04  0.59986774679E+03 0.  0.
         23    2    4    4    0    0 -0.31423944779E+03  0.27314448932E+03  0.10140934343E+03  0.43828890198E+03  0.91972626742E+02 0.  0.
         23    2    4    4    0    0 -0.13653346380E+04  0.10204623936E+04 -0.69816392521E+03  0.18443291611E+04  0.92924794257E+02 0.  0.
          3    1    3    3  502    0  0.83930653902E+03 -0.66217148995E+03  0.34540233061E+03  0.11234808937E+04  0.00000000000E+00 0.  1.
         -3    1    3    3    0  502  0.84026754678E+03 -0.63143539301E+03  0.24792562757E+03  0.10799200538E+04  0.00000000000E+00 0. -1.
         15    1    5    5    0    0 -0.54557170835E+02  0.24827952304E+02 -0.12706698000E+02  0.61298694996E+02  0.17770000000E+01 0.  1.
        -15    1    5    5    0    0 -0.25968227695E+03  0.24831653702E+03  0.11411604143E+03  0.37699020698E+03  0.17770000000E+01 0. -1.
          3    1    6    6  503    0 -0.75360766261E+03  0.60703678224E+03 -0.42818116744E+03  0.10581858420E+04  0.00000000000E+00 0. -1.
         -3    1    6    6    0  503 -0.61172697540E+03  0.41342561140E+03 -0.26998275777E+03  0.78614331905E+03  0.00000000000E+00 0.  1.
<mgrwt>
<rscale>  0 0.21227157E+04</rscale>
<asrwt>0</asrwt>
<pdfrwt beam="1">  1        1 0.34534197E+00 0.21227157E+04</pdfrwt>
<pdfrwt beam="2">  1       -1 0.34481480E+00 0.21227157E+04</pdfrwt>
<totfact> 0.29929019E-02</totfact>
</mgrwt>
</event>
<event>
12    1  0.7781383E-008  0.4965412E+03  0.7818608E-02  0.1014686E+00
          1   -1    0    0  501    0  0.00000000000E+00  0.00000000000E+00  0.21961737219E+04  0.21961737219E+04  0.00000000000E+00 0. -1.
         -1   -1    0    0    0  501 -0.00000000000E+00 -0.00000000000E+00 -0.21813141196E+03  0.21813141196E+03  0.00000000000E+00 0.  1.
         23    2    1    2    0    0 -0.30803747528E+03 -0.22014076332E+03  0.15211975156E+04  0.15705529805E+04  0.96154778197E+02 0.  0.
    5000000    2    1    2    0    0  0.30803747528E+03  0.22014076332E+03  0.45684479438E+03  0.84375215335E+03  0.59988456246E+03 0.  0.
         23    2    4    4    0    0 -0.86102558592E+02  0.16793754380E+03 -0.25686160461E+02  0.21086508119E+03  0.90485548081E+02 0.  0.
         23    2    4    4    0    0  0.39414003387E+03  0.52203219513E+02  0.48253095484E+03  0.63288707216E+03  0.98175258084E+02 0.  0.
          3    1    3    3  502    0 -0.27282283085E+03 -0.14847692673E+03  0.12287655525E+04  0.12674156689E+04  0.00000000000E+00 0. -1.
         -3    1    3    3    0  502 -0.35214644429E+02 -0.71663836590E+02  0.29243196312E+03  0.30313731165E+03  0.00000000000E+00 0.  1.
         15    1    5    5    0    0 -0.58798749995E+02  0.14809683293E+03 -0.52440724630E+02  0.16775920915E+03  0.17770000000E+01 0. -1.
        -15    1    5    5    0    0 -0.27303808597E+02  0.19840710876E+02  0.26754564169E+02  0.43105872046E+02  0.17770000000E+01 0.  1.
          3    1    6    6  503    0  0.49593193163E+02  0.41656418733E+02  0.79933157807E+02  0.10287882069E+03  0.00000000000E+00 0. -1.
         -3    1    6    6    0  503  0.34454684071E+03  0.10546800781E+02  0.40259779703E+03  0.53000825147E+03  0.00000000000E+00 0.  1.
<mgrwt>
<rscale>  0 0.49654118E+03</rscale>
<asrwt>0</asrwt>
<pdfrwt beam="1">  1        1 0.33787287E+00 0.49654118E+03</pdfrwt>
<pdfrwt beam="2">  1       -1 0.33558680E-01 0.49654118E+03</pdfrwt>
<totfact> 0.20017566E+01</totfact>
</mgrwt>
</event>
<event>
12    1  0.7781383E-008  0.5043246E+03  0.7818608E-02  0.1012656E+00
         -2   -1    0    0    0  501 -0.00000000000E+00  0.00000000000E+00  0.22910037828E+03  0.22910037828E+03  0.00000000000E+00 0.  1.
          2   -1    0    0  501    0  0.00000000000E+00 -0.00000000000E+00 -0.16490931620E+04  0.16490931620E+04  0.00000000000E+00 0. -1.
         23    2    1    2    0    0 -0.74912836504E+02  0.43118400235E+03 -0.31630171570E+03  0.54787728353E+03  0.92688540305E+02 0.  0.
    5000000    2    1    2    0    0  0.74912836504E+02 -0.43118400235E+03 -0.11036910680E+04  0.13303162568E+04  0.60006315700E+03 0.  0.
         23    2    4    4    0    0  0.19799639113E+03 -0.28478844145E+03 -0.21857601244E+03  0.42009854583E+03  0.91653083457E+02 0.  0.
         23    2    4    4    0    0 -0.12308355462E+03 -0.14639556090E+03 -0.88511505558E+03  0.91021771093E+03  0.92121647839E+02 0.  0.
          2    1    3    3  502    0 -0.15569762227E+00  0.14114385754E+03 -0.58864708138E+02  0.15292699770E+03  0.00000000000E+00 0. -1.
         -2    1    3    3    0  502 -0.74757138882E+02  0.29004014481E+03 -0.25743700756E+03  0.39495028583E+03  0.00000000000E+00 0.  1.
         15    1    5    5    0    0  0.50054499497E+02 -0.15169261772E+03 -0.96660260900E+02  0.18671493501E+03  0.17770000000E+01 0. -1.
        -15    1    5    5    0    0  0.14794189163E+03 -0.13309582373E+03 -0.12191575154E+03  0.23338361082E+03  0.17770000000E+01 0.  1.
          1    1    6    6  503    0 -0.55152897748E+02 -0.12719472927E+03 -0.65531630362E+03  0.66982072159E+03  0.00000000000E+00 0. -1.
         -1    1    6    6    0  503 -0.67930656874E+02 -0.19200831627E+02 -0.22979875196E+03  0.24039698934E+03  0.00000000000E+00 0.  1.
<mgrwt>
<rscale>  0 0.50432458E+03</rscale>
<asrwt>0</asrwt>
<pdfrwt beam="1">  1        2 0.25370664E+00 0.50432458E+03</pdfrwt>
<pdfrwt beam="2">  1       -2 0.35246212E-01 0.50432458E+03</pdfrwt>
<totfact> 0.83254716E+01</totfact>
</mgrwt>
</event>
<event>
12    1  0.1472639E-007  0.1265139E+04  0.7818608E-02  0.9057676E-01
          2   -1    0    0  501    0  0.00000000000E+00  0.00000000000E+00  0.24265196327E+04  0.24265196327E+04  0.00000000000E+00 0. -1.
         -2   -1    0    0    0  501 -0.00000000000E+00 -0.00000000000E+00 -0.68037840737E+03  0.68037840737E+03  0.00000000000E+00 0.  1.
         23    2    1    2    0    0  0.46384750851E+03  0.11195850749E+04  0.75035156761E+03  0.14275940164E+04  0.79824491939E+02 0.  0.
    5000000    2    1    2    0    0 -0.46384750851E+03 -0.11195850749E+04  0.99578965770E+03  0.16793040237E+04  0.59986641047E+03 0.  0.
         23    2    4    4    0    0 -0.27376393734E+03 -0.13287463292E+03  0.10806440010E+03  0.33541437722E+03  0.90678158441E+02 0.  0.
         23    2    4    4    0    0 -0.19008357118E+03 -0.98671044198E+03  0.88772525761E+03  0.13438896464E+04  0.90851463853E+02 0.  0.
          3    1    3    3  502    0  0.22363181575E+03  0.61274163311E+03  0.43670703977E+03  0.78496913096E+03  0.00000000000E+00 0. -1.
         -3    1    3    3    0  502  0.24021569276E+03  0.50684344179E+03  0.31364452783E+03  0.64262488543E+03  0.00000000000E+00 0.  1.
         15    1    5    5    0    0 -0.10577118806E+03 -0.25479124269E+02  0.40699756818E+00  0.10881200932E+03  0.17770000000E+01 0. -1.
        -15    1    5    5    0    0 -0.16799274928E+03 -0.10739550865E+03  0.10765740253E+03  0.22660236790E+03  0.17770000000E+01 0.  1.
          1    1    6    6  503    0 -0.40360522322E+02 -0.44691577232E+03  0.40098376116E+03  0.60178954463E+03  0.00000000000E+00 0. -1.
         -1    1    6    6    0  503 -0.14972304886E+03 -0.53979466966E+03  0.48674149645E+03  0.74210010182E+03  0.00000000000E+00 0.  1.
<mgrwt>
<rscale>  0 0.12651389E+04</rscale>
<asrwt>0</asrwt>
<pdfrwt beam="1">  1        2 0.37331071E+00 0.12651389E+04</pdfrwt>
<pdfrwt beam="2">  1       -2 0.10467360E+00 0.12651389E+04</pdfrwt>
<totfact> 0.27710300E+00</totfact>
</mgrwt>
</event>
<event>
12    1  0.7781383E-008  0.7010750E+03  0.7818608E-02  0.9715395E-01
         -2   -1    0    0    0  501 -0.00000000000E+00  0.00000000000E+00  0.20349756572E+04  0.20349756572E+04  0.00000000000E+00 0.  1.
          2   -1    0    0  501    0  0.00000000000E+00 -0.00000000000E+00 -0.26618610359E+03  0.26618610359E+03  0.00000000000E+00 0. -1.
         23    2    1    2    0    0 -0.95461715567E+02  0.59107351430E+03  0.56358806457E+03  0.82762187752E+03  0.94051194443E+02 0.  0.
    5000000    2    1    2    0    0  0.95461715567E+02 -0.59107351430E+03  0.12052014890E+04  0.14735398832E+04  0.60027353758E+03 0.  0.
         23    2    4    4    0    0  0.93811683849E+02  0.69138066294E+02  0.84515724956E+02  0.16922813642E+03  0.88963757536E+02 0.  0.
         23    2    4    4    0    0  0.16500317180E+01 -0.66021158059E+03  0.11206857640E+04  0.13043117468E+04  0.97007718064E+02 0.  0.
          2    1    3    3  502    0 -0.89866727833E+02  0.30194887546E+03  0.26143658796E+03  0.40938764232E+03  0.00000000000E+00 0.  1.
         -2    1    3    3    0  502 -0.55949877339E+01  0.28912463884E+03  0.30215147661E+03  0.41823423520E+03  0.00000000000E+00 0. -1.
         15    1    5    5    0    0  0.12443486025E+02  0.46332804461E+02  0.67788905001E+02  0.83066614737E+02  0.17770000000E+01 0.  1.
        -15    1    5    5    0    0  0.81368197824E+02  0.22805261833E+02  0.16726819955E+02  0.86161521686E+02  0.17770000000E+01 0. -1.
          4    1    6    6  503    0  0.42274293763E+02 -0.34920503828E+03  0.64133948319E+03  0.73146948492E+03  0.00000000000E+00 0. -1.
         -4    1    6    6    0  503 -0.40624262045E+02 -0.31100654232E+03  0.47934628084E+03  0.57284226187E+03  0.00000000000E+00 0.  1.
<mgrwt>
<rscale>  0 0.70107504E+03</rscale>
<asrwt>0</asrwt>
<pdfrwt beam="1">  1        2 0.40951709E-01 0.70107504E+03</pdfrwt>
<pdfrwt beam="2">  1       -2 0.31307317E+00 0.70107504E+03</pdfrwt>
<totfact> 0.34796670E+00</totfact>
</mgrwt>
</event>
<event>
12    1  0.7781383E-008  0.8486653E+03  0.7818608E-02  0.9492130E-01
         -2   -1    0    0    0  501 -0.00000000000E+00  0.00000000000E+00  0.70761379689E+03  0.70761379689E+03  0.00000000000E+00 0.  1.
          2   -1    0    0  501    0  0.00000000000E+00 -0.00000000000E+00 -0.14917398844E+04  0.14917398844E+04  0.00000000000E+00 0. -1.
         23    2    1    2    0    0 -0.60827886098E+03  0.53612578450E+03 -0.86275820170E+03  0.11875618724E+04  0.92290068617E+02 0.  0.
    5000000    2    1    2    0    0  0.60827886098E+03 -0.53612578450E+03  0.78632114191E+02  0.10117918088E+04  0.60008801480E+03 0.  0.
         23    2    4    4    0    0  0.40577017412E+03 -0.54211047378E+03  0.25205098893E+03  0.72849377007E+03  0.92953063548E+02 0.  0.
         23    2    4    4    0    0  0.20250868687E+03  0.59846892794E+01 -0.17341887474E+03  0.28329803876E+03  0.95593346473E+02 0.  0.
          2    1    3    3  502    0 -0.45560475594E+03  0.35130100564E+03 -0.58157137555E+03  0.81805461618E+03  0.00000000000E+00 0. -1.
         -2    1    3    3    0  502 -0.15267410504E+03  0.18482477886E+03 -0.28118682615E+03  0.36950725626E+03  0.00000000000E+00 0.  1.
         15    1    5    5    0    0  0.39755480784E+03 -0.52298068894E+03  0.22518044896E+03  0.69445519551E+03  0.17770000000E+01 0. -1.
        -15    1    5    5    0    0  0.82153662753E+01 -0.19129784839E+02  0.26870539967E+02  0.34038574561E+02  0.17770000000E+01 0.  1.
          4    1    6    6  503    0  0.18622396396E+03 -0.21902801263E+01 -0.18435112008E+03  0.26204865494E+03  0.00000000000E+00 0. -1.
         -4    1    6    6    0  503  0.16284722902E+02  0.81749694057E+01  0.10932245339E+02  0.21249383825E+02  0.00000000000E+00 0.  1.
<mgrwt>
<rscale>  0 0.84866534E+03</rscale>
<asrwt>0</asrwt>
<pdfrwt beam="1">  1        2 0.22949844E+00 0.84866534E+03</pdfrwt>
<pdfrwt beam="2">  1       -2 0.10886366E+00 0.84866534E+03</pdfrwt>
<totfact> 0.87456500E+00</totfact>
</mgrwt>
</event>
<event>
12    1  0.7781383E-008  0.1185210E+04  0.7818608E-02  0.9125902E-01
          2   -1    0    0  501    0  0.00000000000E+00  0.00000000000E+00  0.20181172604E+04  0.20181172604E+04  0.00000000000E+00 0. -1.
         -2   -1    0    0    0  501 -0.00000000000E+00 -0.00000000000E+00 -0.77740129567E+03  0.77740129567E+03  0.00000000000E+00 0.  1.
         23    2    1    2    0    0 -0.93914137035E+03 -0.71272028166E+03  0.56760000119E+03  0.13115552246E+04  0.89725316140E+02 0.  0.
    5000000    2    1    2    0    0  0.93914137035E+03  0.71272028166E+03  0.67311596357E+03  0.14839633315E+04  0.59925399920E+03 0.  0.
         23    2    4    4    0    0  0.44966354626E+03  0.43859130822E+03  0.65997328277E+03  0.91561242059E+03  0.90673757486E+02 0.  0.
         23    2    4    4    0    0  0.48947782410E+03  0.27412897344E+03  0.13142680806E+02  0.56835091095E+03  0.90082148962E+02 0.  0.
          3    1    3    3  502    0 -0.27572634739E+03 -0.19224773768E+03  0.20476567066E+03  0.39359013093E+03  0.00000000000E+00 0. -1.
         -3    1    3    3    0  502 -0.66341502296E+03 -0.52047254397E+03  0.36283433054E+03  0.91796509364E+03  0.00000000000E+00 0.  1.
         15    1    5    5    0    0  0.16389010220E+03  0.18137743536E+03  0.19809685068E+03  0.31464783430E+03  0.17770000000E+01 0. -1.
        -15    1    5    5    0    0  0.28577344406E+03  0.25721387286E+03  0.46187643209E+03  0.60096458629E+03  0.17770000000E+01 0.  1.
          2    1    6    6  503    0  0.34377541684E+03  0.17369386583E+03  0.47501669632E+02  0.38808182754E+03  0.00000000000E+00 0. -1.
         -2    1    6    6    0  503  0.14570240726E+03  0.10043510761E+03 -0.34358988826E+02  0.18026908342E+03  0.00000000000E+00 0.  1.
<mgrwt>
<rscale>  0 0.11852097E+04</rscale>
<asrwt>0</asrwt>
<pdfrwt beam="1">  1        2 0.31047958E+00 0.11852097E+04</pdfrwt>
<pdfrwt beam="2">  1       -2 0.11960020E+00 0.11852097E+04</pdfrwt>
<totfact> 0.34183073E+00</totfact>
</mgrwt>
</event>
<event>
12    1  0.7781383E-008  0.6248126E+03  0.7818608E-02  0.9855224E-01
          2   -1    0    0  501    0  0.00000000000E+00  0.00000000000E+00  0.24500386829E+04  0.24500386829E+04  0.00000000000E+00 0. -1.
         -2   -1    0    0    0  501 -0.00000000000E+00 -0.00000000000E+00 -0.53513879922E+03  0.53513879922E+03  0.00000000000E+00 0.  1.
         23    2    1    2    0    0  0.10164146422E+03  0.47115013174E+03  0.21302932264E+04  0.21860443802E+04  0.91254413083E+02 0.  0.
    5000000    2    1    2    0    0 -0.10164146422E+03 -0.47115013174E+03 -0.21539334274E+03  0.79913310188E+03  0.59992165199E+03 0.  0.
         23    2    4    4    0    0  0.19390640160E+03 -0.12540575647E+02 -0.46297537230E+02  0.22016466842E+03  0.92585423506E+02 0.  0.
         23    2    4    4    0    0 -0.29554786583E+03 -0.45860955610E+03 -0.16909580551E+03  0.57896843346E+03  0.94550460415E+02 0.  0.
          1    1    3    3  502    0  0.35628105814E+02  0.17385526383E+03  0.59783162842E+03  0.62361660547E+03  0.00000000000E+00 0. -1.
         -1    1    3    3    0  502  0.66013358410E+02  0.29729486791E+03  0.15324615980E+04  0.15624277747E+04  0.00000000000E+00 0.  1.
         15    1    5    5    0    0  0.16485155586E+03 -0.44462187181E+02 -0.46474861081E+02  0.17696325042E+03  0.17770000000E+01 0. -1.
        -15    1    5    5    0    0  0.29054845741E+02  0.31921611534E+02  0.17732385090E+00  0.43201417994E+02  0.17770000000E+01 0.  1.
          4    1    6    6  503    0 -0.10840429306E+03 -0.25518206242E+03 -0.88795033496E+02  0.29112528868E+03  0.00000000000E+00 0. -1.
         -4    1    6    6    0  503 -0.18714357277E+03 -0.20342749367E+03 -0.80300772015E+02  0.28784314478E+03  0.00000000000E+00 0.  1.
<mgrwt>
<rscale>  0 0.62481264E+03</rscale>
<asrwt>0</asrwt>
<pdfrwt beam="1">  1        2 0.37692902E+00 0.62481264E+03</pdfrwt>
<pdfrwt beam="2">  1       -2 0.82329048E-01 0.62481264E+03</pdfrwt>
<totfact> 0.51786902E+00</totfact>
</mgrwt>
</event>
<event>
12    1  0.7781383E-008  0.2318792E+04  0.7818608E-02  0.8470548E-01
          2   -1    0    0  501    0  0.00000000000E+00  0.00000000000E+00  0.51668579258E+04  0.51668579258E+04  0.00000000000E+00 0. -1.
         -2   -1    0    0    0  501 -0.00000000000E+00 -0.00000000000E+00 -0.17844000627E+04  0.17844000627E+04  0.00000000000E+00 0.  1.
         23    2    1    2    0    0  0.51074064843E+03 -0.22266900297E+04  0.39114873788E+04  0.45307324925E+04  0.93802481776E+02 0.  0.
    5000000    2    1    2    0    0 -0.51074064843E+03  0.22266900297E+04 -0.52902951570E+03  0.24205254961E+04  0.60005578942E+03 0.  0.
         23    2    4    4    0    0 -0.53641490212E+03  0.11270177405E+04 -0.37357047857E+03  0.13060554174E+04  0.91191645691E+02 0.  0.
         23    2    4    4    0    0  0.25674253691E+02  0.10996722892E+04 -0.15545903714E+03  0.11144700787E+04  0.89093956836E+02 0.  0.
          3    1    3    3  502    0  0.25095212266E+03 -0.12020991224E+04  0.20225542645E+04  0.23661667357E+04  0.00000000000E+00 0. -1.
         -3    1    3    3    0  502  0.25978852577E+03 -0.10245909073E+04  0.18889331143E+04  0.21645657568E+04  0.00000000000E+00 0.  1.
         15    1    5    5    0    0 -0.10422438133E+03  0.31148971219E+03 -0.10311548899E+03  0.34427390877E+03  0.17770000000E+01 0.  1.
        -15    1    5    5    0    0 -0.43219052078E+03  0.81552802835E+03 -0.27045498958E+03  0.96178150865E+03  0.17770000000E+01 0. -1.
          1    1    6    6  503    0 -0.10895493496E+02  0.60295551630E+03 -0.48097522434E+02  0.60496895629E+03  0.00000000000E+00 0. -1.
         -1    1    6    6    0  503  0.36569747187E+02  0.49671677287E+03 -0.10736151470E+03  0.50950112237E+03  0.00000000000E+00 0.  1.
<mgrwt>
<rscale>  0 0.23187918E+04</rscale>
<asrwt>0</asrwt>
<pdfrwt beam="1">  1        2 0.79490121E+00 0.23187918E+04</pdfrwt>
<pdfrwt beam="2">  1       -2 0.27452309E+00 0.23187918E+04</pdfrwt>
<totfact> 0.80590857E-04</totfact>
</mgrwt>
</event>
<event>
12    1  0.7781383E-008  0.8428117E+03  0.7818608E-02  0.9500036E-01
         -2   -1    0    0    0  501 -0.00000000000E+00  0.00000000000E+00  0.87039747948E+03  0.87039747948E+03  0.00000000000E+00 0.  1.
          2   -1    0    0  501    0  0.00000000000E+00 -0.00000000000E+00 -0.10146180371E+04  0.10146180371E+04  0.00000000000E+00 0. -1.
         23    2    1    2    0    0  0.69047042679E+03 -0.43814568982E+03 -0.26268648165E+03  0.86392063399E+03  0.92917266558E+02 0.  0.
    5000000    2    1    2    0    0 -0.69047042679E+03  0.43814568982E+03  0.11846592404E+03  0.10210948826E+04  0.59989959850E+03 0.  0.
         23    2    4    4    0    0 -0.23576022799E+03  0.17769811946E+02  0.27784072652E+03  0.37521215997E+03  0.87692897970E+02 0.  0.
         23    2    4    4    0    0 -0.45471019879E+03  0.42037587787E+03 -0.15937480248E+03  0.64588272260E+03  0.91032522230E+02 0.  0.
          3    1    3    3  502    0  0.25099313935E+03 -0.20411777182E+03 -0.12984545196E+03  0.34859928595E+03  0.00000000000E+00 0. -1.
         -3    1    3    3    0  502  0.43947728744E+03 -0.23402791800E+03 -0.13284102969E+03  0.51532134804E+03  0.00000000000E+00 0.  1.
         15    1    5    5    0    0 -0.16232139573E+03 -0.17393204353E+02  0.22551950139E+03  0.27841149815E+03  0.17770000000E+01 0. -1.
        -15    1    5    5    0    0 -0.73438832264E+02  0.35163016298E+02  0.52321225139E+02  0.96800661819E+02  0.17770000000E+01 0.  1.
          1    1    6    6  503    0 -0.41998833104E+03  0.38169005029E+03 -0.17079139364E+03  0.59266111130E+03  0.00000000000E+00 0. -1.
         -1    1    6    6    0  503 -0.34721867751E+02  0.38685827585E+02  0.11416591162E+02  0.53221611305E+02  0.00000000000E+00 0.  1.
<mgrwt>
<rscale>  0 0.84281175E+03</rscale>
<asrwt>0</asrwt>
<pdfrwt beam="1">  1        2 0.15609508E+00 0.84281175E+03</pdfrwt>
<pdfrwt beam="2">  1       -2 0.13390730E+00 0.84281175E+03</pdfrwt>
<totfact> 0.99992844E+00</totfact>
</mgrwt>
</event>
<event>
12    1  0.7781383E-008  0.1523137E+04  0.7818608E-02  0.8869211E-01
         -2   -1    0    0    0  501 -0.00000000000E+00  0.00000000000E+00  0.20936482974E+04  0.20936482974E+04  0.00000000000E+00 0. -1.
          2   -1    0    0  501    0  0.00000000000E+00 -0.00000000000E+00 -0.11679296519E+04  0.11679296519E+04  0.00000000000E+00 0.  1.
         23    2    1    2    0    0 -0.59912940683E+03 -0.13582433288E+04  0.18904742415E+03  0.14990871096E+04  0.87990041459E+02 0.  0.
    5000000    2    1    2    0    0  0.59912940683E+03  0.13582433288E+04  0.73667122135E+03  0.17624908398E+04  0.59992373316E+03 0.  0.
         23    2    4    4    0    0  0.38265469172E+03  0.34880220201E+03  0.71802203642E+02  0.53117284057E+03  0.94347447742E+02 0.  0.
         23    2    4    4    0    0  0.21647471511E+03  0.10094411267E+04  0.66486901771E+03  0.12313179992E+04  0.90887368431E+02 0.  0.
          3    1    3    3  502    0 -0.31177276870E+03 -0.63088109239E+03  0.12128840127E+03  0.71408969207E+03  0.00000000000E+00 0. -1.
         -3    1    3    3    0  502 -0.28735663812E+03 -0.72736223637E+03  0.67759022880E+02  0.78499741754E+03  0.00000000000E+00 0.  1.
         15    1    5    5    0    0  0.13019175488E+03  0.64861798500E+02  0.33686257089E+02  0.14931465966E+03  0.17770000000E+01 0.  1.
        -15    1    5    5    0    0  0.25246293684E+03  0.28394040351E+03  0.38115946553E+02  0.38185818092E+03  0.17770000000E+01 0. -1.
          3    1    6    6  503    0  0.51849827507E+02  0.41619551165E+03  0.23919906463E+03  0.48282843853E+03  0.00000000000E+00 0. -1.
         -3    1    6    6    0  503  0.16462488760E+03  0.59324561509E+03  0.42566995308E+03  0.74848956065E+03  0.00000000000E+00 0.  1.
<mgrwt>
<rscale>  0 0.15231371E+04</rscale>
<asrwt>0</asrwt>
<pdfrwt beam="1">  1        2 0.17968149E+00 0.15231371E+04</pdfrwt>
<pdfrwt beam="2">  1       -2 0.32209974E+00 0.15231371E+04</pdfrwt>
<totfact> 0.43407852E-01</totfact>
</mgrwt>
</event>
<event>
12    1  0.7781383E-008  0.4173106E+03  0.7818608E-02  0.1037945E+00
          1   -1    0    0  501    0  0.00000000000E+00  0.00000000000E+00  0.16023022537E+04  0.16023022537E+04  0.00000000000E+00 0. -1.
         -1   -1    0    0    0  501 -0.00000000000E+00 -0.00000000000E+00 -0.16589524792E+03  0.16589524792E+03  0.00000000000E+00 0.  1.
         23    2    1    2    0    0 -0.90789731309E+02 -0.27246540086E+03  0.76865991887E+03  0.82566395576E+03  0.91666389589E+02 0.  0.
    5000000    2    1    2    0    0  0.90789731309E+02  0.27246540086E+03  0.66774708693E+03  0.94253354588E+03  0.60000261919E+03 0.  0.
         23    2    4    4    0    0  0.17425441008E+03 -0.56818981286E+02  0.52452597449E+03  0.56252228807E+03  0.87811335240E+02 0.  0.
         23    2    4    4    0    0 -0.83464678773E+02  0.32928438215E+03  0.14322111244E+03  0.38001125781E+03  0.92204729194E+02 0.  0.
          2    1    3    3  502    0 -0.54368635608E+02 -0.14142039008E+03  0.52711588774E+03  0.54845859860E+03  0.00000000000E+00 0. -1.
         -2    1    3    3    0  502 -0.36421095702E+02 -0.13104501078E+03  0.24154403113E+03  0.27720535716E+03  0.00000000000E+00 0.  1.
         15    1    5    5    0    0 -0.48500787612E+01 -0.16925594126E+02  0.27481676523E+02  0.32686377499E+02  0.17770000000E+01 0. -1.
        -15    1    5    5    0    0  0.17910448884E+03 -0.39893387160E+02  0.49704429796E+03  0.52983591057E+03  0.17770000000E+01 0.  1.
          3    1    6    6  503    0 -0.34060746623E+02  0.25119903413E+03  0.72529176838E+02  0.26366943452E+03  0.00000000000E+00 0. -1.
         -3    1    6    6    0  503 -0.49403932150E+02  0.78085348018E+02  0.70691935605E+02  0.11634182329E+03  0.00000000000E+00 0.  1.
<mgrwt>
<rscale>  0 0.41731061E+03</rscale>
<asrwt>0</asrwt>
<pdfrwt beam="1">  1        1 0.24650803E+00 0.41731061E+03</pdfrwt>
<pdfrwt beam="2">  1       -1 0.25522347E-01 0.41731061E+03</pdfrwt>
<totfact> 0.80537818E+01</totfact>
</mgrwt>
</event>
<event>
12    1  0.7781383E-008  0.1040934E+04  0.7818608E-02  0.9264754E-01
          2   -1    0    0  501    0  0.00000000000E+00  0.00000000000E+00  0.30497002706E+04  0.30497002706E+04  0.00000000000E+00 0. -1.
         -2   -1    0    0    0  501 -0.00000000000E+00 -0.00000000000E+00 -0.46551250309E+03  0.46551250309E+03  0.00000000000E+00 0.  1.
         23    2    1    2    0    0 -0.93368790253E+03  0.37483823164E+03  0.50488437112E+03  0.11286564839E+04  0.81733905398E+02 0.  0.
    5000000    2    1    2    0    0  0.93368790253E+03 -0.37483823164E+03  0.20793033964E+04  0.23865562897E+04  0.59989291602E+03 0.  0.
         23    2    4    4    0    0  0.89855283024E+03 -0.42161500487E+03  0.20332800008E+04  0.22644397023E+04  0.91121910273E+02 0.  0.
         23    2    4    4    0    0  0.35135072288E+02  0.46776773234E+02  0.46023395574E+02  0.12211658746E+03  0.96807893139E+02 0.  0.
          3    1    3    3  502    0 -0.76530437805E+03  0.32326914800E+03  0.44627505462E+03  0.94305628543E+03  0.00000000000E+00 0. -1.
         -3    1    3    3    0  502 -0.16838352448E+03  0.51569083641E+02  0.58609316501E+02  0.18560019851E+03  0.00000000000E+00 0.  1.
         15    1    5    5    0    0  0.65814722049E+03 -0.31549666057E+03  0.14007894773E+04  0.15795284816E+04  0.17770000000E+01 0.  1.
        -15    1    5    5    0    0  0.24040560975E+03 -0.10611834430E+03  0.63249052346E+03  0.68491122067E+03  0.17770000000E+01 0. -1.
          1    1    6    6  503    0 -0.11444667467E+02  0.31174536936E+02  0.62106348261E+02  0.70427485125E+02  0.00000000000E+00 0. -1.
         -1    1    6    6    0  503  0.46579739755E+02  0.15602236298E+02 -0.16082952687E+02  0.51689102336E+02  0.00000000000E+00 0.  1.
<mgrwt>
<rscale>  0 0.10409340E+04</rscale>
<asrwt>0</asrwt>
<pdfrwt beam="1">  1        2 0.46918464E+00 0.10409340E+04</pdfrwt>
<pdfrwt beam="2">  1       -2 0.71617310E-01 0.10409340E+04</pdfrwt>
<totfact> 0.29129144E+00</totfact>
</mgrwt>
</event>
<event>
12    1  0.7781383E-008  0.9381062E+03  0.7818608E-02  0.9379162E-01
         -2   -1    0    0    0  501 -0.00000000000E+00  0.00000000000E+00  0.55198213416E+03  0.55198213416E+03  0.00000000000E+00 0.  1.
          2   -1    0    0  501    0  0.00000000000E+00 -0.00000000000E+00 -0.19246584106E+04  0.19246584106E+04  0.00000000000E+00 0. -1.
         23    2    1    2    0    0 -0.89581809469E+03 -0.15193759233E+03 -0.92359685332E+03  0.12988902987E+04  0.92248414417E+02 0.  0.
    5000000    2    1    2    0    0  0.89581809469E+03  0.15193759233E+03 -0.44907942314E+03  0.11777502460E+04  0.59987350586E+03 0.  0.
         23    2    4    4    0    0  0.65055372524E+03  0.23159747328E+03 -0.54827734254E+03  0.88637825977E+03  0.90558467289E+02 0.  0.
         23    2    4    4    0    0  0.24526436945E+03 -0.79659880953E+02  0.99197919394E+02  0.29137198627E+03  0.92504592425E+02 0.  0.
          1    1    3    3  502    0 -0.32491416665E+03 -0.57808244986E+02 -0.27372949564E+03  0.42876432415E+03  0.00000000000E+00 0. -1.
         -1    1    3    3    0  502 -0.57090392803E+03 -0.94129347339E+02 -0.64986735768E+03  0.87012597459E+03  0.00000000000E+00 0.  1.
         15    1    5    5    0    0  0.22620036191E+03  0.11411330374E+03 -0.16272879512E+03  0.30111836263E+03  0.17770000000E+01 0. -1.
        -15    1    5    5    0    0  0.42435336333E+03  0.11748416953E+03 -0.38554854741E+03  0.58525989714E+03  0.17770000000E+01 0. -1.
          3    1    6    6  503    0  0.13937094738E+03  0.32580284355E+01  0.53598425945E+02  0.14935751399E+03  0.00000000000E+00 0. -1.
         -3    1    6    6    0  503  0.10589342207E+03 -0.82917909388E+02  0.45599493448E+02  0.14201447228E+03  0.00000000000E+00 0.  1.
<mgrwt>
<rscale>  0 0.93810623E+03</rscale>
<asrwt>0</asrwt>
<pdfrwt beam="1">  1        2 0.29610130E+00 0.93810623E+03</pdfrwt>
<pdfrwt beam="2">  1       -2 0.84920326E-01 0.93810623E+03</pdfrwt>
<totfact> 0.89552371E+00</totfact>
</mgrwt>
</event>
<event>
12    1  0.7781383E-008  0.8583111E+03  0.7818608E-02  0.9479249E-01
         -1   -1    0    0    0  501 -0.00000000000E+00  0.00000000000E+00  0.78651310996E+03  0.78651310996E+03  0.00000000000E+00 0.  1.
          1   -1    0    0  501    0  0.00000000000E+00 -0.00000000000E+00 -0.10988817094E+04  0.10988817094E+04  0.00000000000E+00 0. -1.
         23    2    1    2    0    0  0.75093617550E+03 -0.28228861820E+03 -0.35641431144E+03  0.88258982843E+03  0.91332580260E+02 0.  0.
    5000000    2    1    2    0    0 -0.75093617550E+03  0.28228861820E+03  0.44045711976E+02  0.10028049910E+04  0.60007151366E+03 0.  0.
         23    2    4    4    0    0 -0.50228123191E+02  0.16905059876E+03 -0.16371999145E+03  0.25886430827E+03  0.95422875635E+02 0.  0.
         23    2    4    4    0    0 -0.70070805231E+03  0.11323801943E+03  0.20776570342E+03  0.74394068269E+03  0.80414726380E+02 0.  0.
          4    1    3    3  502    0  0.57862852473E+03 -0.25723922301E+03 -0.28440995144E+03  0.69417001373E+03  0.00000000000E+00 0. -1.
         -4    1    3    3    0  502  0.17230765077E+03 -0.25049395184E+02 -0.72004360004E+02  0.18841981470E+03  0.00000000000E+00 0.  1.
         15    1    5    5    0    0 -0.46423581592E+02  0.18086086046E+03 -0.14539019552E+03  0.23665854402E+03  0.17770000000E+01 0.  1.
        -15    1    5    5    0    0 -0.38045415994E+01 -0.11810261699E+02 -0.18329795924E+02  0.22205764247E+02  0.17770000000E+01 0. -1.
          2    1    6    6  503    0 -0.65896960112E+02  0.56253280213E+01 -0.36895599422E+01  0.66239463464E+02  0.00000000000E+00 0. -1.
         -2    1    6    6    0  503 -0.63481109220E+03  0.10761269141E+03  0.21145526337E+03  0.67770121922E+03  0.00000000000E+00 0.  1.
<mgrwt>
<rscale>  0 0.85831114E+03</rscale>
<asrwt>0</asrwt>
<pdfrwt beam="1">  1        1 0.16905872E+00 0.85831114E+03</pdfrwt>
<pdfrwt beam="2">  1       -1 0.12100202E+00 0.85831114E+03</pdfrwt>
<totfact> 0.78559184E+00</totfact>
</mgrwt>
</event>
<event>
12    1  0.7781383E-008  0.9176801E+03  0.7818608E-02  0.9403746E-01
          1   -1    0    0  501    0  0.00000000000E+00  0.00000000000E+00  0.57383933691E+03  0.57383933691E+03  0.00000000000E+00 0. -1.
         -1   -1    0    0    0  501 -0.00000000000E+00 -0.00000000000E+00 -0.18909642663E+04  0.18909642663E+04  0.00000000000E+00 0.  1.
         23    2    1    2    0    0 -0.14911117353E+03  0.88589918531E+03 -0.22822753964E+03  0.93092580902E+03  0.86507476209E+02 0.  0.
    5000000    2    1    2    0    0  0.14911117353E+03 -0.88589918531E+03 -0.10888973897E+04  0.15338777942E+04  0.60002671063E+03 0.  0.
         23    2    4    4    0    0  0.46726665182E+02 -0.11197847163E+03 -0.57464614229E+03  0.59480786530E+03  0.94104454922E+02 0.  0.
         23    2    4    4    0    0  0.10238450835E+03 -0.77392071368E+03 -0.51425124742E+03  0.93906992885E+03  0.89230752412E+02 0.  0.
          1    1    3    3  502    0 -0.94727165029E+02  0.34734851560E+03 -0.67791702172E+02  0.36636039902E+03  0.00000000000E+00 0. -1.
         -1    1    3    3    0  502 -0.54384008500E+02  0.53855066971E+03 -0.16043583746E+03  0.56456541000E+03  0.00000000000E+00 0.  1.
         15    1    5    5    0    0  0.44835722447E+01 -0.11092680610E+03 -0.40130409598E+03  0.41638082798E+03  0.17770000000E+01 0. -1.
        -15    1    5    5    0    0  0.42243092937E+02 -0.10516655324E+01 -0.17334204630E+03  0.17842703732E+03  0.17770000000E+01 0.  1.
          4    1    6    6  503    0  0.28411868880E+02 -0.24551795533E+03 -0.21342374611E+03  0.32655167445E+03  0.00000000000E+00 0. -1.
         -4    1    6    6    0  503  0.73972639468E+02 -0.52840275836E+03 -0.30082750131E+03  0.61251825440E+03  0.00000000000E+00 0.  1.
<mgrwt>
<rscale>  0 0.91768014E+03</rscale>
<asrwt>0</asrwt>
<pdfrwt beam="1">  1        1 0.88282974E-01 0.91768014E+03</pdfrwt>
<pdfrwt beam="2">  1       -1 0.29091758E+00 0.91768014E+03</pdfrwt>
<totfact> 0.14150967E+00</totfact>
</mgrwt>
</event>
<event>
12    1  0.7781383E-008  0.1742103E+04  0.7818608E-02  0.8737709E-01
         -1   -1    0    0    0  501 -0.00000000000E+00  0.00000000000E+00  0.13820991700E+04  0.13820991700E+04  0.00000000000E+00 0.  1.
          1   -1    0    0  501    0  0.00000000000E+00 -0.00000000000E+00 -0.22511188559E+04  0.22511188559E+04  0.00000000000E+00 0. -1.
         23    2    1    2    0    0 -0.94768507038E+03  0.14055845249E+04 -0.17888462603E+03  0.17070734309E+04  0.91242202942E+02 0.  0.
    5000000    2    1    2    0    0  0.94768507038E+03 -0.14055845249E+04 -0.69013505990E+03  0.19261445950E+04  0.59997645842E+03 0.  0.
         23    2    4    4    0    0 -0.36579243147E+02 -0.26924909968E+03 -0.43981812522E+02  0.28713352938E+03  0.81719918978E+02 0.  0.
         23    2    4    4    0    0  0.98426431353E+03 -0.11363354252E+04 -0.64615324738E+03  0.16390110656E+04  0.93855296053E+02 0.  0.
          3    1    3    3  502    0 -0.64246115449E+03  0.88095585506E+03 -0.13218307250E+03  0.10983223198E+04  0.00000000000E+00 0. -1.
         -3    1    3    3    0  502 -0.30522391590E+03  0.52462866986E+03 -0.46701553528E+02  0.60875111103E+03  0.00000000000E+00 0.  1.
         15    1    5    5    0    0 -0.54916577796E+02 -0.25218779472E+03 -0.45026291567E+02  0.26200198279E+03  0.17770000000E+01 0. -1.
        -15    1    5    5    0    0  0.18337334649E+02 -0.17061304951E+02  0.10444790445E+01  0.25131546593E+02  0.17770000000E+01 0.  1.
          3    1    6    6  503    0  0.59618416773E+03 -0.66382313446E+03 -0.43024059581E+03  0.99055726032E+03  0.00000000000E+00 0. -1.
         -3    1    6    6    0  503  0.38808014580E+03 -0.47251229079E+03 -0.21591265157E+03  0.64845380531E+03  0.00000000000E+00 0.  1.
<mgrwt>
<rscale>  0 0.17421025E+04</rscale>
<asrwt>0</asrwt>
<pdfrwt beam="1">  1        1 0.34632598E+00 0.17421025E+04</pdfrwt>
<pdfrwt beam="2">  1       -1 0.21263064E+00 0.17421025E+04</pdfrwt>
<totfact> 0.22810041E-01</totfact>
</mgrwt>
</event>
<event>
12    1  0.7781383E-008  0.4619007E+03  0.7818608E-02  0.1024231E+00
         -2   -1    0    0    0  501 -0.00000000000E+00  0.00000000000E+00  0.13470909693E+04  0.13470909693E+04  0.00000000000E+00 0.  1.
          2   -1    0    0  501    0  0.00000000000E+00 -0.00000000000E+00 -0.18908165631E+03  0.18908165631E+03  0.00000000000E+00 0. -1.
         23    2    1    2    0    0  0.66931546718E+02 -0.26448826915E+03  0.62825492760E+03  0.69054145216E+03  0.87802998997E+02 0.  0.
    5000000    2    1    2    0    0 -0.66931546718E+02  0.26448826915E+03  0.52975438535E+03  0.84563117342E+03  0.60001541330E+03 0.  0.
         23    2    4    4    0    0 -0.21858400899E+03 -0.89015959338E+02  0.13360293098E+03  0.28574874536E+03  0.89998846134E+02 0.  0.
         23    2    4    4    0    0  0.15165246227E+03  0.35350422849E+03  0.39615145438E+03  0.55988242807E+03  0.92567000487E+02 0.  0.
          3    1    3    3  502    0 -0.38493655075E+01 -0.88193072156E+02  0.12853712112E+03  0.15593148206E+03  0.00000000000E+00 0. -1.
         -3    1    3    3    0  502  0.70780912225E+02 -0.17629519700E+03  0.49971780648E+03  0.53460997010E+03  0.00000000000E+00 0.  1.
         15    1    5    5    0    0 -0.54622113733E+02 -0.65108800953E+02  0.62111344046E+02  0.10527919100E+03  0.17770000000E+01 0. -1.
        -15    1    5    5    0    0 -0.16396189525E+03 -0.23907158386E+02  0.71491586929E+02  0.18046955435E+03  0.17770000000E+01 0.  1.
          1    1    6    6  503    0  0.68730743130E+02  0.64791129348E+02  0.11039133612E+03  0.14528610596E+03  0.00000000000E+00 0. -1.
         -1    1    6    6    0  503  0.82921719141E+02  0.28871309914E+03  0.28576011826E+03  0.41459632211E+03  0.00000000000E+00 0.  1.
<mgrwt>
<rscale>  0 0.46190074E+03</rscale>
<asrwt>0</asrwt>
<pdfrwt beam="1">  1        2 0.29089486E-01 0.46190074E+03</pdfrwt>
<pdfrwt beam="2">  1       -2 0.20724476E+00 0.46190074E+03</pdfrwt>
<totfact> 0.23008202E+01</totfact>
</mgrwt>
</event>
<event>
12    1  0.7781383E-008  0.7186596E+03  0.7818608E-02  0.9685843E-01
         -2   -1    0    0    0  501 -0.00000000000E+00  0.00000000000E+00  0.64961979834E+03  0.64961979834E+03  0.00000000000E+00 0.  1.
          2   -1    0    0  501    0  0.00000000000E+00 -0.00000000000E+00 -0.96894422817E+03  0.96894422817E+03  0.00000000000E+00 0. -1.
         23    2    1    2    0    0  0.60399577240E+03 -0.39037905932E+02 -0.44515598866E+03  0.75714827615E+03  0.93673937944E+02 0.  0.
    5000000    2    1    2    0    0 -0.60399577240E+03  0.39037905932E+02  0.12583155884E+03  0.86141575036E+03  0.59989054217E+03 0.  0.
         23    2    4    4    0    0 -0.61983831220E+03 -0.12793311030E+03  0.15023888026E+02  0.64125899896E+03  0.10208316487E+03 0.  0.
         23    2    4    4    0    0  0.15842539798E+02  0.16697101624E+03  0.11080767081E+03  0.22015675140E+03  0.89779446118E+02 0.  0.
          2    1    3    3  502    0  0.47733395720E+03 -0.68766868992E+02 -0.34505062365E+03  0.59298947869E+03  0.00000000000E+00 0. -1.
         -2    1    3    3    0  502  0.12666181521E+03  0.29728963060E+02 -0.10010536501E+03  0.16415879745E+03  0.00000000000E+00 0.  1.
         15    1    5    5    0    0 -0.33675783408E+03 -0.12120726819E+03  0.97831803090E+01  0.35804456290E+03  0.17770000000E+01 0.  1.
        -15    1    5    5    0    0 -0.28308047812E+03 -0.67258421104E+01  0.52407077172E+01  0.28321443606E+03  0.17770000000E+01 0. -1.
          4    1    6    6  503    0  0.46253889881E+02  0.92021114176E+02  0.33588801891E+02  0.10833058384E+03  0.00000000000E+00 0. -1.
         -4    1    6    6    0  503 -0.30411350083E+02  0.74949902060E+02  0.77218868919E+02  0.11182616755E+03  0.00000000000E+00 0.  1.
<mgrwt>
<rscale>  0 0.71865959E+03</rscale>
<asrwt>0</asrwt>
<pdfrwt beam="1">  1        2 0.14906834E+00 0.71865959E+03</pdfrwt>
<pdfrwt beam="2">  1       -2 0.99941507E-01 0.71865959E+03</pdfrwt>
<totfact> 0.22246232E+01</totfact>
</mgrwt>
</event>
<event>
12    1  0.7781383E-008  0.1471817E+04  0.7818608E-02  0.8903414E-01
          1   -1    0    0  501    0  0.00000000000E+00  0.00000000000E+00  0.23850328088E+04  0.23850328088E+04  0.00000000000E+00 0. -1.
         -1   -1    0    0    0  501 -0.00000000000E+00 -0.00000000000E+00 -0.98007035207E+03  0.98007035207E+03  0.00000000000E+00 0.  1.
         23    2    1    2    0    0 -0.14181906021E+04  0.13112539323E+03  0.28138658511E+03  0.14544028579E+04  0.87468909143E+02 0.  0.
    5000000    2    1    2    0    0  0.14181906021E+04 -0.13112539323E+03  0.11235758717E+04  0.19107003031E+04  0.59991204033E+03 0.  0.
         23    2    4    4    0    0  0.78179364003E+02 -0.15418367788E+03  0.17517034633E+03  0.26636650218E+03  0.10189133314E+03 0.  0.
         23    2    4    4    0    0  0.13400112381E+04  0.23058284644E+02  0.94840552533E+03  0.16443338009E+04  0.90547255996E+02 0.  0.
          2    1    3    3  502    0 -0.11233844955E+04  0.74253278613E+02  0.24246291047E+03  0.11516486170E+04  0.00000000000E+00 0. -1.
         -2    1    3    3    0  502 -0.29480610656E+03  0.56872114618E+02  0.38923674647E+02  0.30275424082E+03  0.00000000000E+00 0.  1.
         15    1    5    5    0    0  0.94522875158E+01 -0.59107323560E+01  0.72463713213E+02  0.73337779881E+02  0.17770000000E+01 0.  1.
        -15    1    5    5    0    0  0.68727076488E+02 -0.14827294552E+03  0.10270663312E+03  0.19302872229E+03  0.17770000000E+01 0. -1.
          1    1    6    6  503    0  0.40089782107E+03  0.45335691886E+02  0.26590304526E+03  0.48319645837E+03  0.00000000000E+00 0. -1.
         -1    1    6    6    0  503  0.93911341701E+03 -0.22277407242E+02  0.68250248008E+03  0.11611373425E+04  0.00000000000E+00 0.  1.
<mgrwt>
<rscale>  0 0.14718167E+04</rscale>
<asrwt>0</asrwt>
<pdfrwt beam="1">  1        1 0.36692812E+00 0.14718167E+04</pdfrwt>
<pdfrwt beam="2">  1       -1 0.15078005E+00 0.14718167E+04</pdfrwt>
<totfact> 0.53322210E-01</totfact>
</mgrwt>
</event>
<event>
12    1  0.7781383E-008  0.8706611E+03  0.7818608E-02  0.9463018E-01
         -1   -1    0    0    0  501 -0.00000000000E+00  0.00000000000E+00  0.72293596377E+03  0.72293596377E+03  0.00000000000E+00 0.  1.
          1   -1    0    0  501    0  0.00000000000E+00 -0.00000000000E+00 -0.11682416405E+04  0.11682416405E+04  0.00000000000E+00 0. -1.
         23    2    1    2    0    0 -0.74547381318E+03 -0.27683079485E+03 -0.10718785169E+01  0.80043856277E+03  0.91292106686E+02 0.  0.
    5000000    2    1    2    0    0  0.74547381318E+03  0.27683079485E+03 -0.44423379820E+03  0.10907390415E+04  0.60000124503E+03 0.  0.
         23    2    4    4    0    0  0.53324813536E+03 -0.68354803611E+02 -0.39224359377E+03  0.67163319462E+03  0.90609923412E+02 0.  0.
         23    2    4    4    0    0  0.21222567782E+03  0.34518559846E+03 -0.51990204428E+02  0.41910584686E+03  0.93562245633E+02 0.  0.
          2    1    3    3  502    0 -0.16828664625E+03 -0.40148598540E+02  0.31088013251E+02  0.17578045921E+03  0.00000000000E+00 0. -1.
         -2    1    3    3    0  502 -0.57718716692E+03 -0.23668219631E+03 -0.32159891768E+02  0.62465810356E+03  0.00000000000E+00 0.  1.
         15    1    5    5    0    0  0.90822627620E+02 -0.72836205449E+01 -0.11189878147E+03  0.14431318664E+03  0.17770000000E+01 0.  1.
        -15    1    5    5    0    0  0.44242550774E+03 -0.61071183066E+02 -0.28034481230E+03  0.52732000798E+03  0.17770000000E+01 0. -1.
          3    1    6    6  503    0  0.60734430961E+02  0.13086456111E+03 -0.60664040011E+02  0.15650664589E+03  0.00000000000E+00 0. -1.
         -3    1    6    6    0  503  0.15149124686E+03  0.21432103735E+03  0.86738355829E+01  0.26259920096E+03  0.00000000000E+00 0.  1.
<mgrwt>
<rscale>  0 0.87066110E+03</rscale>
<asrwt>0</asrwt>
<pdfrwt beam="1">  1        1 0.17972948E+00 0.87066110E+03</pdfrwt>
<pdfrwt beam="2">  1       -1 0.11122092E+00 0.87066110E+03</pdfrwt>
<totfact> 0.85367475E+00</totfact>
</mgrwt>
</event>
<event>
12    1  0.7781383E-008  0.5339439E+03  0.7818608E-02  0.1005280E+00
         -2   -1    0    0    0  501 -0.00000000000E+00  0.00000000000E+00  0.25055994947E+04  0.25055994947E+04  0.00000000000E+00 0.  1.
          2   -1    0    0  501    0  0.00000000000E+00 -0.00000000000E+00 -0.26424239539E+03  0.26424239539E+03  0.00000000000E+00 0. -1.
         23    2    1    2    0    0 -0.42662061142E+03  0.65226198453E+02  0.19086713238E+04  0.19593983973E+04  0.99781030146E+02 0.  0.
    5000000    2    1    2    0    0  0.42662061142E+03 -0.65226198453E+02  0.33268577552E+03  0.81044349281E+03  0.59989934719E+03 0.  0.
         23    2    4    4    0    0 -0.86619306331E+02  0.55375153995E+02 -0.56400806782E+02  0.14829979789E+03  0.90788034119E+02 0.  0.
         23    2    4    4    0    0  0.51323991775E+03 -0.12060135245E+03  0.38908658230E+03  0.66214369492E+03  0.95320537205E+02 0.  0.
          4    1    3    3  502    0 -0.36653412667E+03  0.39655734719E+02  0.14515894539E+04  0.14976754609E+04  0.00000000000E+00 0. -1.
         -4    1    3    3    0  502 -0.60086484749E+02  0.25570463734E+02  0.45708186984E+03  0.46172293640E+03  0.00000000000E+00 0.  1.
         15    1    5    5    0    0 -0.67067514120E+02  0.28759861340E+02  0.10426586004E+02  0.73736371617E+02  0.17770000000E+01 0.  1.
        -15    1    5    5    0    0 -0.19551792211E+02  0.26615292655E+02 -0.66827392787E+02  0.74563426272E+02  0.17770000000E+01 0. -1.
          4    1    6    6  503    0  0.34812753854E+03 -0.69412355157E+02  0.20635103657E+03  0.41059908479E+03  0.00000000000E+00 0. -1.
         -4    1    6    6    0  503  0.16511237921E+03 -0.51188997291E+02  0.18273554573E+03  0.25154461012E+03  0.00000000000E+00 0.  1.
<mgrwt>
<rscale>  0 0.53394387E+03</rscale>
<asrwt>0</asrwt>
<pdfrwt beam="1">  1        2 0.40652678E-01 0.53394387E+03</pdfrwt>
<pdfrwt beam="2">  1       -2 0.38547683E+00 0.53394387E+03</pdfrwt>
<totfact> 0.12903286E+00</totfact>
</mgrwt>
</event>
<event>
12    1  0.7781383E-008  0.5085135E+03  0.7818608E-02  0.1011580E+00
         -1   -1    0    0    0  501 -0.00000000000E+00  0.00000000000E+00  0.63312916028E+03  0.63312916028E+03  0.00000000000E+00 0.  1.
          1   -1    0    0  501    0  0.00000000000E+00 -0.00000000000E+00 -0.69480050331E+03  0.69480050331E+03  0.00000000000E+00 0. -1.
         23    2    1    2    0    0  0.74148694362E+02 -0.37705916921E+03  0.33125583095E+03  0.51558021880E+03  0.91765410253E+02 0.  0.
    5000000    2    1    2    0    0 -0.74148694362E+02  0.37705916921E+03 -0.39292717398E+03  0.81234944479E+03  0.59820415448E+03 0.  0.
         23    2    4    4    0    0  0.20663991113E+03  0.19553504703E+03 -0.35457947427E+03  0.46376331977E+03  0.91737700567E+02 0.  0.
         23    2    4    4    0    0 -0.28078860549E+03  0.18152412218E+03 -0.38347699709E+02  0.34858612501E+03  0.90821212132E+02 0.  0.
          2    1    3    3  502    0  0.26340937393E+02 -0.55946051394E+02  0.17914558036E+02  0.64379632175E+02  0.00000000000E+00 0. -1.
         -2    1    3    3    0  502  0.47807756969E+02 -0.32111311782E+03  0.31334127292E+03  0.45120058663E+03  0.00000000000E+00 0.  1.
         15    1    5    5    0    0  0.20829980747E+03  0.19495129992E+03 -0.31850365655E+03  0.42760093089E+03  0.17770000000E+01 0. -1.
        -15    1    5    5    0    0 -0.16598963437E+01  0.58374711187E+00 -0.36075817723E+02  0.36162388887E+02  0.17770000000E+01 0.  1.
          1    1    6    6  503    0 -0.24973498855E+03  0.18595858177E+03 -0.19465431458E+02  0.31197285404E+03  0.00000000000E+00 0. -1.
         -1    1    6    6    0  503 -0.31053616940E+02 -0.44344595850E+01 -0.18882268251E+02  0.36613270970E+02  0.00000000000E+00 0.  1.
<mgrwt>
<rscale>  0 0.50851354E+03</rscale>
<asrwt>0</asrwt>
<pdfrwt beam="1">  1        1 0.10689239E+00 0.50851354E+03</pdfrwt>
<pdfrwt beam="2">  1       -1 0.97404486E-01 0.50851354E+03</pdfrwt>
<totfact> 0.29466013E+01</totfact>
</mgrwt>
</event>
<event>
12    1  0.7781383E-008  0.7935518E+03  0.7818608E-02  0.9569398E-01
          1   -1    0    0  501    0  0.00000000000E+00  0.00000000000E+00  0.83385252699E+03  0.83385252699E+03  0.00000000000E+00 0. -1.
         -1   -1    0    0    0  501 -0.00000000000E+00 -0.00000000000E+00 -0.10277128508E+04  0.10277128508E+04  0.00000000000E+00 0.  1.
         23    2    1    2    0    0  0.76538340950E+03  0.27425437078E+02 -0.39803392394E+03  0.86785491085E+03  0.90428001928E+02 0.  0.
    5000000    2    1    2    0    0 -0.76538340950E+03 -0.27425437078E+02  0.20417360017E+03  0.99371046690E+03  0.59934106723E+03 0.  0.
         23    2    4    4    0    0 -0.42190276183E+03  0.11296946106E+03  0.36784690174E+03  0.57801247820E+03  0.89571436657E+02 0.  0.
         23    2    4    4    0    0 -0.34348064767E+03 -0.14039489814E+03 -0.16367330157E+03  0.41569798870E+03  0.91247933745E+02 0.  0.
          3    1    3    3  502    0  0.25662806015E+03  0.48556717935E+02 -0.15401550879E+03  0.30321031159E+03  0.00000000000E+00 0. -1.
         -3    1    3    3    0  502  0.50875534936E+03 -0.21131280858E+02 -0.24401841515E+03  0.56464459925E+03  0.00000000000E+00 0.  1.
         15    1    5    5    0    0  0.14730418599E+01  0.95467263943E+01  0.10855277150E+02  0.14639146429E+02  0.17770000000E+01 0. -1.
        -15    1    5    5    0    0 -0.42337580369E+03  0.10342273467E+03  0.35699162459E+03  0.56337333177E+03  0.17770000000E+01 0.  1.
          3    1    6    6  503    0 -0.25859275275E+03 -0.10429065625E+03 -0.16393196168E+03  0.32345083214E+03  0.00000000000E+00 0. -1.
         -3    1    6    6    0  503 -0.84887894926E+02 -0.36104241891E+02  0.25866011296E+00  0.92247156555E+02  0.00000000000E+00 0.  1.
<mgrwt>
<rscale>  0 0.79355177E+03</rscale>
<asrwt>0</asrwt>
<pdfrwt beam="1">  1        1 0.12828500E+00 0.79355177E+03</pdfrwt>
<pdfrwt beam="2">  1       -1 0.15810967E+00 0.79355177E+03</pdfrwt>
<totfact> 0.64174147E+00</totfact>
</mgrwt>
</event>
<event>
12    1  0.7781383E-008  0.7051720E+03  0.7818608E-02  0.9708428E-01
         -1   -1    0    0    0  501 -0.00000000000E+00  0.00000000000E+00  0.58662480879E+03  0.58662480879E+03  0.00000000000E+00 0.  1.
          1   -1    0    0  501    0  0.00000000000E+00 -0.00000000000E+00 -0.94777446063E+03  0.94777446063E+03  0.00000000000E+00 0. -1.
         23    2    1    2    0    0  0.59290965054E+03 -0.67877440947E+02  0.25808045826E+02  0.60391354147E+03  0.88861181913E+02 0.  0.
    5000000    2    1    2    0    0 -0.59290965054E+03  0.67877440947E+02 -0.38695769766E+03  0.93048572795E+03  0.59993185399E+03 0.  0.
         23    2    4    4    0    0 -0.67741714479E+03  0.28391543625E+02 -0.41061780187E+03  0.79773359437E+03  0.89843422552E+02 0.  0.
         23    2    4    4    0    0  0.84507494245E+02  0.39485897322E+02  0.23660104203E+02  0.13275213358E+03  0.91447666823E+02 0.  0.
          2    1    3    3  502    0  0.47490042183E+03 -0.63220605750E+02  0.55060479257E+02  0.48224362310E+03  0.00000000000E+00 0. -1.
         -2    1    3    3    0  502  0.11800922872E+03 -0.46568351972E+01 -0.29252433431E+02  0.12166991838E+03  0.00000000000E+00 0.  1.
         15    1    5    5    0    0 -0.98117493248E+02  0.31978955072E+02 -0.81078763099E+02  0.13125021754E+03  0.17770000000E+01 0. -1.
        -15    1    5    5    0    0 -0.57929965154E+03 -0.35874114476E+01 -0.32953903877E+03  0.66648337683E+03  0.17770000000E+01 0.  1.
          1    1    6    6  503    0  0.70530351808E+02  0.68563592772E+02  0.17840046590E+02  0.99968815349E+02  0.00000000000E+00 0. -1.
         -1    1    6    6    0  503  0.13977142437E+02 -0.29077695450E+02  0.58200576128E+01  0.32783318227E+02  0.00000000000E+00 0.  1.
<mgrwt>
<rscale>  0 0.70517196E+03</rscale>
<asrwt>0</asrwt>
<pdfrwt beam="1">  1        1 0.14581145E+00 0.70517196E+03</pdfrwt>
<pdfrwt beam="2">  1       -1 0.90249971E-01 0.70517196E+03</pdfrwt>
<totfact> 0.20664130E+01</totfact>
</mgrwt>
</event>
<event>
12    1  0.8291881E-008  0.1029359E+04  0.7818608E-02  0.9276918E-01
         -1   -1    0    0    0  501 -0.00000000000E+00  0.00000000000E+00  0.83686655121E+03  0.83686655121E+03  0.00000000000E+00 0.  1.
          1   -1    0    0  501    0  0.00000000000E+00 -0.00000000000E+00 -0.15525441765E+04  0.15525441765E+04  0.00000000000E+00 0. -1.
         23    2    1    2    0    0  0.58189661467E+03  0.79550191573E+03 -0.73913375810E+03  0.12350759113E+04  0.87560415264E+02 0.  0.
    5000000    2    1    2    0    0 -0.58189661467E+03 -0.79550191573E+03  0.23456132817E+02  0.11543348164E+04  0.60042627358E+03 0.  0.
         23    2    4    4    0    0 -0.10310461256E+03 -0.46212507503E+03 -0.20180012823E+03  0.52274872243E+03  0.91393593597E+02 0.  0.
         23    2    4    4    0    0 -0.47879200211E+03 -0.33337684070E+03  0.22525626105E+03  0.63158609393E+03  0.88197005069E+02 0.  0.
          1    1    3    3  502    0  0.45488095077E+03  0.56839417448E+03 -0.51643800207E+03  0.89257875112E+03  0.00000000000E+00 0. -1.
         -1    1    3    3    0  502  0.12701566390E+03  0.22710774125E+03 -0.22269575603E+03  0.34249716023E+03  0.00000000000E+00 0.  1.
         15    1    5    5    0    0 -0.28436746865E+02 -0.30818608082E+03 -0.10922084373E+03  0.32820673274E+03  0.17770000000E+01 0. -1.
        -15    1    5    5    0    0 -0.74667865693E+02 -0.15393899421E+03 -0.92579284500E+02  0.19454198969E+03  0.17770000000E+01 0.  1.
          1    1    6    6  503    0 -0.14180783342E+03 -0.14932011167E+03  0.85470864150E+02  0.22296014440E+03  0.00000000000E+00 0. -1.
         -1    1    6    6    0  503 -0.33698416869E+03 -0.18405672902E+03  0.13978539690E+03  0.40862594953E+03  0.00000000000E+00 0.  1.
<mgrwt>
<rscale>  0 0.10293590E+04</rscale>
<asrwt>0</asrwt>
<pdfrwt beam="1">  1        1 0.23885295E+00 0.10293590E+04</pdfrwt>
<pdfrwt beam="2">  1       -1 0.12874870E+00 0.10293590E+04</pdfrwt>
<totfact> 0.31329878E+00</totfact>
</mgrwt>
</event>
<event>
12    1  0.7781383E-008  0.6122504E+03  0.7818608E-02  0.9880311E-01
         -2   -1    0    0    0  501 -0.00000000000E+00  0.00000000000E+00  0.22176988392E+03  0.22176988392E+03  0.00000000000E+00 0.  1.
          2   -1    0    0  501    0  0.00000000000E+00 -0.00000000000E+00 -0.20709150616E+04  0.20709150616E+04  0.00000000000E+00 0. -1.
         23    2    1    2    0    0 -0.65677181635E+02  0.46553564506E+03 -0.29729885488E+03  0.56380536733E+03  0.91939948393E+02 0.  0.
    5000000    2    1    2    0    0  0.65677181635E+02 -0.46553564506E+03 -0.15518463228E+04  0.17288795782E+04  0.59980051457E+03 0.  0.
         23    2    4    4    0    0  0.31411129834E+03 -0.24247946558E+03 -0.71278096527E+03  0.82122467413E+03  0.94292428040E+02 0.  0.
         23    2    4    4    0    0 -0.24843411670E+03 -0.22305617948E+03 -0.83906535750E+03  0.90765490403E+03  0.91286259106E+02 0.  0.
          3    1    3    3  502    0  0.14382087150E+02  0.11002811282E+03 -0.10018803198E+03  0.14950141067E+03  0.00000000000E+00 0. -1.
         -3    1    3    3    0  502 -0.80059268785E+02  0.35550753225E+03 -0.19711082290E+03  0.41430395666E+03  0.00000000000E+00 0.  1.
         15    1    5    5    0    0  0.17100191459E+03 -0.87567538216E+02 -0.40312363547E+03  0.44656640240E+03  0.17770000000E+01 0. -1.
        -15    1    5    5    0    0  0.14310938375E+03 -0.15491192737E+03 -0.30965732979E+03  0.37465827174E+03  0.17770000000E+01 0.  1.
          3    1    6    6  503    0 -0.17273213508E+03 -0.94470201193E+02 -0.48394579739E+03  0.52246008863E+03  0.00000000000E+00 0. -1.
         -3    1    6    6    0  503 -0.75701981618E+02 -0.12858597829E+03 -0.35511956012E+03  0.38519481540E+03  0.00000000000E+00 0.  1.
<mgrwt>
<rscale>  0 0.61225039E+03</rscale>
<asrwt>0</asrwt>
<pdfrwt beam="1">  1        2 0.31860231E+00 0.61225039E+03</pdfrwt>
<pdfrwt beam="2">  1       -2 0.34118445E-01 0.61225039E+03</pdfrwt>
<totfact> 0.51538468E+01</totfact>
</mgrwt>
</event>
<event>
12    1  0.7781383E-008  0.1010940E+04  0.7818608E-02  0.9296626E-01
          1   -1    0    0  501    0  0.00000000000E+00  0.00000000000E+00  0.18688349935E+04  0.18688349935E+04  0.00000000000E+00 0. -1.
         -1   -1    0    0    0  501 -0.00000000000E+00 -0.00000000000E+00 -0.91434641807E+03  0.91434641807E+03  0.00000000000E+00 0.  1.
         23    2    1    2    0    0 -0.95832338411E+03  0.84246474892E+01  0.12846309682E+04  0.16052740296E+04  0.90406318750E+02 0.  0.
    5000000    2    1    2    0    0  0.95832338411E+03 -0.84246474892E+01 -0.33014239276E+03  0.11779073820E+04  0.60001426463E+03 0.  0.
         23    2    4    4    0    0  0.24562111481E+02  0.10611024428E+03 -0.16642450605E+03  0.21860490788E+03  0.90710023001E+02 0.  0.
         23    2    4    4    0    0  0.93376127263E+03 -0.11453489177E+03 -0.16371788671E+03  0.95930247408E+03  0.91811408057E+02 0.  0.
          4    1    3    3  502    0 -0.74599746478E+03 -0.29664911022E+02  0.10134972561E+04  0.12587966129E+04  0.00000000000E+00 0. -1.
         -4    1    3    3    0  502 -0.21232591933E+03  0.38089558512E+02  0.27113371205E+03  0.34647741671E+03  0.00000000000E+00 0.  1.
         15    1    5    5    0    0 -0.10804564940E+02  0.33729537434E+02 -0.12103202270E+03  0.12612029403E+03  0.17770000000E+01 0. -1.
        -15    1    5    5    0    0  0.35366676421E+02  0.72380706845E+02 -0.45392483353E+02  0.92484613847E+02  0.17770000000E+01 0.  1.
          1    1    6    6  503    0  0.50363580266E+02 -0.23138334662E+02  0.36975235242E+01  0.55547677074E+02  0.00000000000E+00 0. -1.
         -1    1    6    6    0  503  0.88339769236E+03 -0.91396557106E+02 -0.16741541023E+03  0.90375479700E+03  0.00000000000E+00 0.  1.
<mgrwt>
<rscale>  0 0.10109405E+04</rscale>
<asrwt>0</asrwt>
<pdfrwt beam="1">  1        1 0.28751308E+00 0.10109405E+04</pdfrwt>
<pdfrwt beam="2">  1       -1 0.14066868E+00 0.10109405E+04</pdfrwt>
<totfact> 0.15258990E+00</totfact>
</mgrwt>
</event>
<event>
12    1  0.7781383E-008  0.5799614E+03  0.7818608E-02  0.9947875E-01
         -1   -1    0    0    0  501 -0.00000000000E+00  0.00000000000E+00  0.85669194194E+03  0.85669194194E+03  0.00000000000E+00 0.  1.
          1   -1    0    0  501    0  0.00000000000E+00 -0.00000000000E+00 -0.55030385898E+03  0.55030385898E+03  0.00000000000E+00 0. -1.
         23    2    1    2    0    0  0.24368427844E+03  0.47490166992E+03  0.26543819888E+03  0.60286755801E+03  0.89878982135E+02 0.  0.
    5000000    2    1    2    0    0 -0.24368427844E+03 -0.47490166992E+03  0.40949884087E+02  0.80412824291E+03  0.60002642808E+03 0.  0.
         23    2    4    4    0    0 -0.24273205343E+03 -0.46608464402E+03  0.23900855384E+03  0.58360932952E+03  0.85562933251E+02 0.  0.
         23    2    4    4    0    0 -0.95222500722E+00 -0.88170258995E+01 -0.19805866975E+03  0.22051891339E+03  0.96554170385E+02 0.  0.
          3    1    3    3  502    0  0.19156912642E+03  0.41936307610E+03  0.20040671285E+03  0.50271957426E+03  0.00000000000E+00 0. -1.
         -3    1    3    3    0  502  0.52115152023E+02  0.55538593815E+02  0.65031486028E+02  0.10014798375E+03  0.00000000000E+00 0.  1.
         15    1    5    5    0    0 -0.18897000905E+03 -0.40947193851E+03  0.22601369296E+03  0.50444254369E+03  0.17770000000E+01 0. -1.
        -15    1    5    5    0    0 -0.53762044385E+02 -0.56612705503E+02  0.12994860876E+02  0.79166785832E+02  0.17770000000E+01 0.  1.
          1    1    6    6  503    0 -0.32936443745E+02 -0.38042435517E+02 -0.13444037732E+03  0.14354877666E+03  0.00000000000E+00 0. -1.
         -1    1    6    6    0  503  0.31984218738E+02  0.29225409617E+02 -0.63618292429E+02  0.76970136723E+02  0.00000000000E+00 0.  1.
<mgrwt>
<rscale>  0 0.57996138E+03</rscale>
<asrwt>0</asrwt>
<pdfrwt beam="1">  1        1 0.84662132E-01 0.57996138E+03</pdfrwt>
<pdfrwt beam="2">  1       -1 0.13179876E+00 0.57996138E+03</pdfrwt>
<totfact> 0.19899118E+01</totfact>
</mgrwt>
</event>
<event>
12    1  0.7781383E-008  0.4464572E+03  0.7818608E-02  0.1028784E+00
          2   -1    0    0  501    0  0.00000000000E+00  0.00000000000E+00  0.97604571089E+03  0.97604571089E+03  0.00000000000E+00 0. -1.
         -2   -1    0    0    0  501 -0.00000000000E+00 -0.00000000000E+00 -0.41251234668E+03  0.41251234668E+03  0.00000000000E+00 0.  1.
         23    2    1    2    0    0  0.31194727621E+03  0.26048794842E+03 -0.75731702894E+02  0.42309979269E+03  0.90072578208E+02 0.  0.
    5000000    2    1    2    0    0 -0.31194727621E+03 -0.26048794842E+03  0.63926506710E+03  0.96545826488E+03  0.59856892737E+03 0.  0.
         23    2    4    4    0    0 -0.15444522793E+03  0.89833761026E+01 -0.64902734156E+02  0.19055369384E+03  0.90356603848E+02 0.  0.
         23    2    4    4    0    0 -0.15750204829E+03 -0.26947132452E+03  0.70416780126E+03  0.77490457104E+03  0.84871149086E+02 0.  0.
          2    1    3    3  502    0  0.25134548102E+03  0.23297024979E+03 -0.91472932936E+02  0.35470690095E+03  0.00000000000E+00 0. -1.
         -2    1    3    3    0  502  0.60601795192E+02  0.27517698621E+02  0.15741230042E+02  0.68392891744E+02  0.00000000000E+00 0.  1.
         15    1    5    5    0    0 -0.13304311324E+03 -0.12226703345E+02 -0.81096292927E+02  0.15630012384E+03  0.17770000000E+01 0.  1.
        -15    1    5    5    0    0 -0.21402114685E+02  0.21210079448E+02  0.16193558771E+02  0.34253570001E+02  0.17770000000E+01 0. -1.
          2    1    6    6  503    0 -0.46835468564E+02 -0.28875020596E+02  0.17018423977E+03  0.17885749466E+03  0.00000000000E+00 0. -1.
         -2    1    6    6    0  503 -0.11066657972E+03 -0.24059630392E+03  0.53398356149E+03  0.59604707638E+03  0.00000000000E+00 0.  1.
<mgrwt>
<rscale>  0 0.44645724E+03</rscale>
<asrwt>0</asrwt>
<pdfrwt beam="1">  1        2 0.15016088E+00 0.44645724E+03</pdfrwt>
<pdfrwt beam="2">  1       -2 0.63463439E-01 0.44645724E+03</pdfrwt>
<totfact> 0.62855911E+01</totfact>
</mgrwt>
</event>
<event>
12    1  0.7781383E-008  0.1410695E+04  0.7818608E-02  0.8946113E-01
         -1   -1    0    0    0  501 -0.00000000000E+00  0.00000000000E+00  0.10636666416E+04  0.10636666416E+04  0.00000000000E+00 0.  1.
          1   -1    0    0  501    0  0.00000000000E+00 -0.00000000000E+00 -0.21037902863E+04  0.21037902863E+04  0.00000000000E+00 0. -1.
         23    2    1    2    0    0  0.12179028610E+04 -0.57863630868E+03  0.17835565345E+02  0.13515844299E+04  0.91405728237E+02 0.  0.
    5000000    2    1    2    0    0 -0.12179028610E+04  0.57863630868E+03 -0.10579592101E+04  0.18158724981E+04  0.60000656879E+03 0.  0.
         23    2    4    4    0    0  0.37098358027E+02  0.29249040795E+02 -0.83546665109E+02  0.13230822459E+03  0.91069349874E+02 0.  0.
         23    2    4    4    0    0 -0.12550012190E+04  0.54938726788E+03 -0.97441254497E+03  0.16835642735E+04  0.89746450493E+02 0.  0.
          1    1    3    3  502    0  0.28691182567E+03 -0.17983735800E+03  0.90705908853E+01  0.33873610180E+03  0.00000000000E+00 0. -1.
         -1    1    3    3    0  502  0.93099103532E+03 -0.39879895068E+03  0.87649744600E+01  0.10128483281E+04  0.00000000000E+00 0.  1.
         15    1    5    5    0    0  0.20508759309E+02 -0.30567857803E+02 -0.14929870871E+02  0.39762569236E+02  0.17770000000E+01 0. -1.
        -15    1    5    5    0    0  0.16589598718E+02  0.59816898598E+02 -0.68616794238E+02  0.92545655349E+02  0.17770000000E+01 0.  1.
          1    1    6    6  503    0 -0.83525239783E+03  0.33814854460E+03 -0.59788043609E+03  0.10814120501E+04  0.00000000000E+00 0. -1.
         -1    1    6    6    0  503 -0.41974882118E+03  0.21123872329E+03 -0.37653210888E+03  0.60215222337E+03  0.00000000000E+00 0.  1.
<mgrwt>
<rscale>  0 0.14106945E+04</rscale>
<asrwt>0</asrwt>
<pdfrwt beam="1">  1        1 0.32366004E+00 0.14106945E+04</pdfrwt>
<pdfrwt beam="2">  1       -1 0.16364102E+00 0.14106945E+04</pdfrwt>
<totfact> 0.66557914E-01</totfact>
</mgrwt>
</event>
<event>
12    1  0.7781383E-008  0.1287270E+04  0.7818608E-02  0.9039722E-01
          2   -1    0    0  501    0  0.00000000000E+00  0.00000000000E+00  0.21308897124E+04  0.21308897124E+04  0.00000000000E+00 0. -1.
         -2   -1    0    0    0  501 -0.00000000000E+00 -0.00000000000E+00 -0.10603816248E+04  0.10603816248E+04  0.00000000000E+00 0.  1.
         23    2    1    2    0    0  0.10065564333E+04 -0.77958182128E+03  0.12326910294E+04  0.17744383112E+04  0.90556484291E+02 0.  0.
    5000000    2    1    2    0    0 -0.10065564333E+04  0.77958182128E+03 -0.16218294186E+03  0.14168330260E+04  0.60017401424E+03 0.  0.
         23    2    4    4    0    0 -0.90795387753E+03  0.67684374607E+03 -0.32470596498E+03  0.11808673192E+04  0.80721506357E+02 0.  0.
         23    2    4    4    0    0 -0.98602555772E+02  0.10273807521E+03  0.16252302313E+03  0.23596570675E+03  0.94807729719E+02 0.  0.
          1    1    3    3  502    0  0.17899631555E+03 -0.12459483611E+03  0.25785178435E+03  0.33771451976E+03  0.00000000000E+00 0. -1.
         -1    1    3    3    0  502  0.82756011775E+03 -0.65498698517E+03  0.97483924510E+03  0.14367237915E+04  0.00000000000E+00 0.  1.
         15    1    5    5    0    0 -0.24936700446E+03  0.17856428680E+03 -0.12508267071E+03  0.33123698416E+03  0.17770000000E+01 0.  1.
        -15    1    5    5    0    0 -0.65858687307E+03  0.49827945927E+03 -0.19962329428E+03  0.84963033506E+03  0.17770000000E+01 0. -1.
          3    1    6    6  503    0 -0.73540243244E+02  0.11807990363E+03  0.14825663024E+03  0.20330041669E+03  0.00000000000E+00 0. -1.
         -3    1    6    6    0  503 -0.25062312528E+02 -0.15341828423E+02  0.14266392888E+02  0.32665290059E+02  0.00000000000E+00 0.  1.
<mgrwt>
<rscale>  0 0.12872699E+04</rscale>
<asrwt>0</asrwt>
<pdfrwt beam="1">  1        2 0.32782918E+00 0.12872699E+04</pdfrwt>
<pdfrwt beam="2">  1       -2 0.16313564E+00 0.12872699E+04</pdfrwt>
<totfact> 0.12995618E+00</totfact>
</mgrwt>
</event>
<event>
12    1  0.7781383E-008  0.7449902E+03  0.7818608E-02  0.9643243E-01
          2   -1    0    0  501    0  0.00000000000E+00  0.00000000000E+00  0.29220164399E+04  0.29220164399E+04  0.00000000000E+00 0. -1.
         -2   -1    0    0    0  501 -0.00000000000E+00 -0.00000000000E+00 -0.27354094586E+03  0.27354094586E+03  0.00000000000E+00 0.  1.
         23    2    1    2    0    0 -0.47933545507E+03 -0.53589873188E+03  0.59209256319E+03  0.93597514787E+03  0.92336042433E+02 0.  0.
    5000000    2    1    2    0    0  0.47933545507E+03  0.53589873188E+03  0.20563829308E+04  0.22595822379E+04  0.60004266693E+03 0.  0.
         23    2    4    4    0    0  0.22648875482E+03  0.43764476632E+03  0.18280277661E+04  0.18958210904E+04  0.98091771393E+02 0.  0.
         23    2    4    4    0    0  0.25284670025E+03  0.98253965561E+02  0.22835516475E+03  0.36376114748E+03  0.81183714968E+02 0.  0.
          2    1    3    3  502    0 -0.54983560601E+02 -0.48950555672E+02  0.29140145111E+02  0.79173839707E+02  0.00000000000E+00 0.  1.
         -2    1    3    3    0  502 -0.42435189447E+03 -0.48694817621E+03  0.56295241808E+03  0.85680130817E+03  0.00000000000E+00 0. -1.
         15    1    5    5    0    0  0.98453812117E+02  0.11379275544E+03  0.66269712232E+03  0.67956793477E+03  0.17770000000E+01 0. -1.
        -15    1    5    5    0    0  0.12803494271E+03  0.32385201088E+03  0.11653306438E+04  0.12162531556E+04  0.17770000000E+01 0.  1.
          3    1    6    6  503    0  0.14732382204E+02  0.18837565261E+01 -0.60232647200E+01  0.16027206305E+02  0.00000000000E+00 0. -1.
         -3    1    6    6    0  503  0.23811431804E+03  0.96370209035E+02  0.23437842947E+03  0.34773394118E+03  0.00000000000E+00 0.  1.
<mgrwt>
<rscale>  0 0.74499018E+03</rscale>
<asrwt>0</asrwt>
<pdfrwt beam="1">  1        2 0.44954097E+00 0.74499018E+03</pdfrwt>
<pdfrwt beam="2">  1       -2 0.42083224E-01 0.74499018E+03</pdfrwt>
<totfact> 0.11058694E+01</totfact>
</mgrwt>
</event>
<event>
12    1  0.7781383E-008  0.4181808E+03  0.7818608E-02  0.1037660E+00
          1   -1    0    0  501    0  0.00000000000E+00  0.00000000000E+00  0.62122393338E+03  0.62122393338E+03  0.00000000000E+00 0. -1.
         -1   -1    0    0    0  501 -0.00000000000E+00 -0.00000000000E+00 -0.47425280631E+03  0.47425280631E+03  0.00000000000E+00 0.  1.
         23    2    1    2    0    0 -0.27821380199E+03  0.23627980921E+03  0.10749739542E+03  0.39186022743E+03  0.93635890337E+02 0.  0.
    5000000    2    1    2    0    0  0.27821380199E+03 -0.23627980921E+03  0.39473731650E+02  0.70361651226E+03  0.60023907985E+03 0.  0.
         23    2    4    4    0    0  0.77542077158E+02 -0.24821117723E+03  0.26847829868E+03  0.38507026616E+03  0.92611828567E+02 0.  0.
         23    2    4    4    0    0  0.20067172484E+03  0.11931368019E+02 -0.22900456703E+03  0.31854624610E+03  0.92828446563E+02 0.  0.
          4    1    3    3  502    0 -0.40987070592E+02  0.44409145938E+02  0.56091108711E+02  0.82451953737E+02  0.00000000000E+00 0. -1.
         -4    1    3    3    0  502 -0.23722673140E+03  0.19187066327E+03  0.51406286704E+02  0.30940827369E+03  0.00000000000E+00 0.  1.
         15    1    5    5    0    0  0.54468090216E+02 -0.88049944034E+02  0.15880327138E+03  0.18958165055E+03  0.17770000000E+01 0.  1.
        -15    1    5    5    0    0  0.23073986942E+02 -0.16016123319E+03  0.10967502730E+03  0.19548861561E+03  0.17770000000E+01 0. -1.
          3    1    6    6  503    0  0.93844174080E+02 -0.15589407570E+02 -0.16648254596E+03  0.19174513487E+03  0.00000000000E+00 0.  1.
         -3    1    6    6    0  503  0.10682755076E+03  0.27520775589E+02 -0.62522021064E+02  0.12680111122E+03  0.00000000000E+00 0. -1.
<mgrwt>
<rscale>  0 0.41818079E+03</rscale>
<asrwt>0</asrwt>
<pdfrwt beam="1">  1        1 0.95572913E-01 0.41818079E+03</pdfrwt>
<pdfrwt beam="2">  1       -1 0.72961970E-01 0.41818079E+03</pdfrwt>
<totfact> 0.65232234E+01</totfact>
</mgrwt>
</event>
<event>
12    1  0.7781383E-008  0.8038894E+03  0.7818608E-02  0.9554404E-01
         -2   -1    0    0    0  501 -0.00000000000E+00  0.00000000000E+00  0.86161467381E+03  0.86161467381E+03  0.00000000000E+00 0.  1.
          2   -1    0    0  501    0  0.00000000000E+00 -0.00000000000E+00 -0.79208281763E+03  0.79208281763E+03  0.00000000000E+00 0. -1.
         23    2    1    2    0    0 -0.51207954433E+03  0.49599013693E+03  0.69345971006E+02  0.72207136556E+03  0.91359277639E+02 0.  0.
    5000000    2    1    2    0    0  0.51207954433E+03 -0.49599013693E+03  0.18588516632E+00  0.93162612588E+03  0.59974621984E+03 0.  0.
         23    2    4    4    0    0  0.57535414440E+03 -0.26488820271E+03  0.11392400569E+03  0.65026863235E+03  0.93126063685E+02 0.  0.
         23    2    4    4    0    0 -0.63274600062E+02 -0.23110193422E+03 -0.11373812052E+03  0.28135749353E+03  0.93882373701E+02 0.  0.
          4    1    3    3  502    0 -0.24889749556E+03  0.20011369953E+03 -0.37639776597E+01  0.31938945438E+03  0.00000000000E+00 0.  1.
         -4    1    3    3    0  502 -0.26318204877E+03  0.29587643739E+03  0.73109948666E+02  0.40268191118E+03  0.00000000000E+00 0. -1.
         15    1    5    5    0    0  0.21400081319E+03 -0.12386776435E+03  0.84275244187E+02  0.26123752717E+03  0.17770000000E+01 0. -1.
        -15    1    5    5    0    0  0.36135333121E+03 -0.14102043836E+03  0.29648761504E+02  0.38903110518E+03  0.17770000000E+01 0.  1.
          3    1    6    6  503    0  0.11320689263E+02 -0.13559122930E+03 -0.56408050919E+02  0.14729225260E+03  0.00000000000E+00 0. -1.
         -3    1    6    6    0  503 -0.74595289325E+02 -0.95510704922E+02 -0.57330069606E+02  0.13406524093E+03  0.00000000000E+00 0.  1.
<mgrwt>
<rscale>  0 0.80388944E+03</rscale>
<asrwt>0</asrwt>
<pdfrwt beam="1">  1        2 0.12185890E+00 0.80388944E+03</pdfrwt>
<pdfrwt beam="2">  1       -2 0.13255610E+00 0.80388944E+03</pdfrwt>
<totfact> 0.14566407E+01</totfact>
</mgrwt>
</event>
<event>
12    1  0.7781383E-008  0.1154294E+04  0.7818608E-02  0.9153831E-01
          2   -1    0    0  501    0  0.00000000000E+00  0.00000000000E+00  0.27775191575E+04  0.27775191575E+04  0.00000000000E+00 0.  1.
         -2   -1    0    0    0  501 -0.00000000000E+00 -0.00000000000E+00 -0.59492562221E+03  0.59492562221E+03  0.00000000000E+00 0. -1.
         23    2    1    2    0    0 -0.10899592299E+04  0.15227230904E+03  0.36213014231E+03  0.11621770140E+04  0.91209609362E+02 0.  0.
    5000000    2    1    2    0    0  0.10899592299E+04 -0.15227230904E+03  0.18204633930E+04  0.22102677658E+04  0.59999887681E+03 0.  0.
         23    2    4    4    0    0  0.10914894732E+04 -0.42644974809E+02  0.17081421889E+04  0.20296603356E+04  0.92754926133E+02 0.  0.
         23    2    4    4    0    0 -0.15302433270E+01 -0.10962733423E+03  0.11232120404E+03  0.18060743012E+03  0.89344820129E+02 0.  0.
          1    1    3    3  502    0 -0.16630044815E+03  0.54145416514E+02  0.43892356122E+02  0.18031667729E+03  0.00000000000E+00 0. -1.
         -1    1    3    3    0  502 -0.92365878176E+03  0.98126892523E+02  0.31823778619E+03  0.98186033667E+03  0.00000000000E+00 0.  1.
         15    1    5    5    0    0  0.53346190452E+03 -0.57171169766E+02  0.89049975073E+03  0.10396360469E+04  0.17770000000E+01 0. -1.
        -15    1    5    5    0    0  0.55802756872E+03  0.14526194958E+02  0.81764243821E+03  0.99002428873E+03  0.17770000000E+01 0.  1.
          3    1    6    6  503    0  0.43129356531E+01 -0.51041574694E+02 -0.28045079731E+01  0.51300185440E+02  0.00000000000E+00 0. -1.
         -3    1    6    6    0  503 -0.58431789801E+01 -0.58585759533E+02  0.11512571201E+03  0.12930724468E+03  0.00000000000E+00 0.  1.
<mgrwt>
<rscale>  0 0.11542942E+04</rscale>
<asrwt>0</asrwt>
<pdfrwt beam="1">  1        2 0.42731063E+00 0.11542942E+04</pdfrwt>
<pdfrwt beam="2">  1       -2 0.91527020E-01 0.11542942E+04</pdfrwt>
<totfact> 0.24103580E+00</totfact>
</mgrwt>
</event>
<event>
12    1  0.7781383E-008  0.6809792E+03  0.7818608E-02  0.9750325E-01
         -1   -1    0    0    0  501 -0.00000000000E+00  0.00000000000E+00  0.60307659102E+03  0.60307659102E+03  0.00000000000E+00 0.  1.
          1   -1    0    0  501    0  0.00000000000E+00 -0.00000000000E+00 -0.11970676617E+04  0.11970676617E+04  0.00000000000E+00 0. -1.
         23    2    1    2    0    0  0.52683038446E+03  0.26731659477E+03  0.21292892198E+03  0.63386782070E+03  0.86262810436E+02 0.  0.
    5000000    2    1    2    0    0 -0.52683038446E+03 -0.26731659477E+03 -0.80691999263E+03  0.11662764320E+04  0.60006035154E+03 0.  0.
         23    2    4    4    0    0 -0.49490918195E+03 -0.37449356065E+03 -0.80622519786E+03  0.10215039338E+04  0.91053235376E+02 0.  0.
         23    2    4    4    0    0 -0.31921202518E+02  0.10717696588E+03 -0.69479476703E+00  0.14477249824E+03  0.91938720474E+02 0.  0.
          4    1    3    3  502    0  0.99208802484E+02  0.14488586057E+02  0.36210954086E+02  0.10659990062E+03  0.00000000000E+00 0. -1.
         -4    1    3    3    0  502  0.42762158198E+03  0.25282800872E+03  0.17671796789E+03  0.52726792008E+03  0.00000000000E+00 0.  1.
         15    1    5    5    0    0 -0.67667691446E+02 -0.31826818651E+02 -0.14291818849E+03  0.16130911066E+03  0.17770000000E+01 0. -1.
        -15    1    5    5    0    0 -0.42724149050E+03 -0.34266674200E+03 -0.66330700937E+03  0.86019482310E+03  0.17770000000E+01 0.  1.
          4    1    6    6  503    0  0.24246589612E+02  0.72460836552E+02  0.12530601382E+02  0.77430523133E+02  0.00000000000E+00 0. -1.
         -4    1    6    6    0  503 -0.56167792131E+02  0.34716129324E+02 -0.13225396149E+02  0.67341975107E+02  0.00000000000E+00 0.  1.
<mgrwt>
<rscale>  0 0.68097917E+03</rscale>
<asrwt>0</asrwt>
<pdfrwt beam="1">  1        1 0.18416426E+00 0.68097917E+03</pdfrwt>
<pdfrwt beam="2">  1       -1 0.92781014E-01 0.68097917E+03</pdfrwt>
<totfact> 0.12655208E+01</totfact>
</mgrwt>
</event>
<event>
12    1  0.7781383E-008  0.3616170E+03  0.7818608E-02  0.1057945E+00
         -2   -1    0    0    0  501 -0.00000000000E+00  0.00000000000E+00  0.22980722464E+04  0.22980722464E+04  0.00000000000E+00 0.  1.
          2   -1    0    0  501    0  0.00000000000E+00 -0.00000000000E+00 -0.26749786274E+03  0.26749786274E+03  0.00000000000E+00 0. -1.
         23    2    1    2    0    0 -0.69658972048E+02 -0.14888554361E+03  0.19254009288E+04  0.19346664141E+04  0.93520691774E+02 0.  0.
    5000000    2    1    2    0    0  0.69658972048E+02  0.14888554361E+03  0.10517345487E+03  0.63090369504E+03  0.59996561512E+03 0.  0.
         23    2    4    4    0    0  0.46340921299E+02 -0.18144071186E+03 -0.99913092811E+02  0.23081736345E+03  0.90696285746E+02 0.  0.
         23    2    4    4    0    0  0.23318050750E+02  0.33032625547E+03  0.20508654769E+03  0.40008633159E+03  0.91375128656E+02 0.  0.
          2    1    3    3  502    0 -0.84819195604E+02 -0.10142562051E+03  0.11304654433E+04  0.11381711519E+04  0.00000000000E+00 0. -1.
         -2    1    3    3    0  502  0.15160223556E+02 -0.47459923099E+02  0.79493548546E+03  0.79649526221E+03  0.00000000000E+00 0.  1.
         15    1    5    5    0    0  0.63264165890E+02 -0.12655877873E+03 -0.38350812546E+02  0.14660634949E+03  0.17770000000E+01 0.  1.
        -15    1    5    5    0    0 -0.16923244591E+02 -0.54881933133E+02 -0.61562280265E+02  0.84211013961E+02  0.17770000000E+01 0. -1.
          3    1    6    6  503    0 -0.32769078948E+02  0.14203243921E+03  0.70330517670E+02  0.16184377664E+03  0.00000000000E+00 0. -1.
         -3    1    6    6    0  503  0.56087129698E+02  0.18829381627E+03  0.13475603001E+03  0.23824255495E+03  0.00000000000E+00 0.  1.
<mgrwt>
<rscale>  0 0.36161695E+03</rscale>
<asrwt>0</asrwt>
<pdfrwt beam="1">  1        2 0.41153519E-01 0.36161695E+03</pdfrwt>
<pdfrwt beam="2">  1       -2 0.35354956E+00 0.36161695E+03</pdfrwt>
<totfact> 0.21156985E+00</totfact>
</mgrwt>
</event>
<event>
12    1  0.7781383E-008  0.9813187E+03  0.7818608E-02  0.9329275E-01
         -1   -1    0    0    0  501 -0.00000000000E+00  0.00000000000E+00  0.54875270623E+03  0.54875270623E+03  0.00000000000E+00 0.  1.
          1   -1    0    0  501    0  0.00000000000E+00 -0.00000000000E+00 -0.23433997202E+04  0.23433997202E+04  0.00000000000E+00 0. -1.
         23    2    1    2    0    0  0.94134121209E+03 -0.17283922632E+03 -0.13937295002E+04  0.16934328071E+04  0.96104509277E+02 0.  0.
    5000000    2    1    2    0    0 -0.94134121209E+03  0.17283922632E+03 -0.40091751377E+03  0.11987196193E+04  0.60016430851E+03 0.  0.
         23    2    4    4    0    0 -0.64624223083E+02  0.60915632257E+02 -0.27603695983E+03  0.30132965191E+03  0.81952129115E+02 0.  0.
         23    2    4    4    0    0 -0.87671698900E+03  0.11192359406E+03 -0.12488055394E+03  0.89738996742E+03  0.92488005524E+02 0.  0.
          1    1    3    3  502    0  0.20725131117E+03 -0.39808183985E+02 -0.24096377046E+03  0.32031443328E+03  0.00000000000E+00 0. -1.
         -1    1    3    3    0  502  0.73408990092E+03 -0.13303104233E+03 -0.11527657298E+04  0.13731183738E+04  0.00000000000E+00 0.  1.
         15    1    5    5    0    0 -0.18551307331E+02  0.67917645206E+02 -0.20099717161E+03  0.21297882115E+03  0.17770000000E+01 0.  1.
        -15    1    5    5    0    0 -0.46072915752E+02 -0.70020129491E+01 -0.75039788221E+02  0.88350830762E+02  0.17770000000E+01 0. -1.
          4    1    6    6  503    0 -0.71733810557E+03  0.12663809876E+03 -0.10913479902E+03  0.73656063574E+03  0.00000000000E+00 0. -1.
         -4    1    6    6    0  503 -0.15937888343E+03 -0.14714504696E+02 -0.15745754915E+02  0.16082933169E+03  0.00000000000E+00 0.  1.
<mgrwt>
<rscale>  0 0.98131871E+03</rscale>
<asrwt>0</asrwt>
<pdfrwt beam="1">  1        1 0.36052303E+00 0.98131871E+03</pdfrwt>
<pdfrwt beam="2">  1       -1 0.84423493E-01 0.98131871E+03</pdfrwt>
<totfact> 0.24605734E+00</totfact>
</mgrwt>
</event>
<event>
12    1  0.7781383E-008  0.8399303E+03  0.7818608E-02  0.9503953E-01
         -2   -1    0    0    0  501 -0.00000000000E+00  0.00000000000E+00  0.60121063939E+03  0.60121063939E+03  0.00000000000E+00 0.  1.
          2   -1    0    0  501    0  0.00000000000E+00 -0.00000000000E+00 -0.13272481371E+04  0.13272481371E+04  0.00000000000E+00 0. -1.
         23    2    1    2    0    0 -0.64185053441E+03  0.38709594338E+03 -0.59088776125E+03  0.95894367173E+03  0.92785997128E+02 0.  0.
    5000000    2    1    2    0    0  0.64185053441E+03 -0.38709594338E+03 -0.13514973651E+03  0.96951510479E+03  0.59989891584E+03 0.  0.
         23    2    4    4    0    0  0.43021783272E+03 -0.52161151641E+03 -0.27352168547E+02  0.68147047410E+03  0.80547553122E+02 0.  0.
         23    2    4    4    0    0  0.21163270169E+03  0.13451557302E+03 -0.10779756796E+03  0.28804463069E+03  0.92013878293E+02 0.  0.
          4    1    3    3  502    0 -0.29685560932E+03  0.18759865235E+03 -0.21900929303E+03  0.41386178560E+03  0.00000000000E+00 0. -1.
         -4    1    3    3    0  502 -0.34499492509E+03  0.19949729104E+03 -0.37187846821E+03  0.54508188613E+03  0.00000000000E+00 0.  1.
         15    1    5    5    0    0  0.30379634944E+03 -0.39476254813E+03 -0.51360438259E+02  0.50077015055E+03  0.17770000000E+01 0.  1.
        -15    1    5    5    0    0  0.12642148328E+03 -0.12684896828E+03  0.24008269712E+02  0.18070032355E+03  0.17770000000E+01 0. -1.
          1    1    6    6  503    0  0.83843998126E+02  0.72778371975E+02 -0.93966483500E+02  0.14545173588E+03  0.00000000000E+00 0. -1.
         -1    1    6    6    0  503  0.12778870356E+03  0.61737201048E+02 -0.13831084460E+02  0.14259289481E+03  0.00000000000E+00 0.  1.
<mgrwt>
<rscale>  0 0.83993031E+03</rscale>
<asrwt>0</asrwt>
<pdfrwt beam="1">  1        2 0.20419202E+00 0.83993031E+03</pdfrwt>
<pdfrwt beam="2">  1       -2 0.92493944E-01 0.83993031E+03</pdfrwt>
<totfact> 0.15981910E+01</totfact>
</mgrwt>
</event>
<event>
12    1  0.7781383E-008  0.9943499E+03  0.7818608E-02  0.9314764E-01
          1   -1    0    0  501    0  0.00000000000E+00  0.00000000000E+00  0.11477664382E+04  0.11477664382E+04  0.00000000000E+00 0. -1.
         -1   -1    0    0    0  501 -0.00000000000E+00 -0.00000000000E+00 -0.10165609671E+04  0.10165609671E+04  0.00000000000E+00 0.  1.
         23    2    1    2    0    0  0.86940878506E+03  0.30441131126E+03  0.43647222504E+03  0.10234074116E+04  0.91196737859E+02 0.  0.
    5000000    2    1    2    0    0 -0.86940878506E+03 -0.30441131126E+03 -0.30526675388E+03  0.11409199937E+04  0.59997729871E+03 0.  0.
         23    2    4    4    0    0 -0.63398216381E+03 -0.44267170077E+03 -0.95230086445E+02  0.78493217772E+03  0.95698148136E+02 0.  0.
         23    2    4    4    0    0 -0.23542662125E+03  0.13826038951E+03 -0.21003666744E+03  0.35598781596E+03  0.89834815860E+02 0.  0.
          2    1    3    3  502    0  0.56607361678E+03  0.24217789910E+03  0.27789636047E+03  0.67551155548E+03  0.00000000000E+00 0. -1.
         -2    1    3    3    0  502  0.30333516829E+03  0.62233412159E+02  0.15857586457E+03  0.34789585616E+03  0.00000000000E+00 0.  1.
         15    1    5    5    0    0 -0.34599508830E+02 -0.45121221192E+02  0.10838852124E+02  0.57911044349E+02  0.17770000000E+01 0. -1.
        -15    1    5    5    0    0 -0.59938265498E+03 -0.39755047958E+03 -0.10606893857E+03  0.72702113337E+03  0.17770000000E+01 0.  1.
          1    1    6    6  503    0 -0.22419771757E+02  0.53418594867E+02 -0.37012195281E+02  0.68746600226E+02  0.00000000000E+00 0. -1.
         -1    1    6    6    0  503 -0.21300684949E+03  0.84841794645E+02 -0.17302447216E+03  0.28724121573E+03  0.00000000000E+00 0.  1.
<mgrwt>
<rscale>  0 0.99434989E+03</rscale>
<asrwt>0</asrwt>
<pdfrwt beam="1">  1        1 0.17657945E+00 0.99434989E+03</pdfrwt>
<pdfrwt beam="2">  1       -1 0.15639400E+00 0.99434989E+03</pdfrwt>
<totfact> 0.36499282E+00</totfact>
</mgrwt>
</event>
<event>
12    1  0.7781383E-008  0.8100849E+03  0.7818608E-02  0.9545533E-01
         -2   -1    0    0    0  501 -0.00000000000E+00  0.00000000000E+00  0.63081199548E+03  0.63081199548E+03  0.00000000000E+00 0.  1.
          2   -1    0    0  501    0  0.00000000000E+00 -0.00000000000E+00 -0.11252031285E+04  0.11252031285E+04  0.00000000000E+00 0. -1.
         23    2    1    2    0    0 -0.66719701549E+03  0.22227767916E+03 -0.43048035109E+03  0.82929371036E+03  0.88631265597E+02 0.  0.
    5000000    2    1    2    0    0  0.66719701549E+03 -0.22227767916E+03 -0.63910781888E+02  0.92672141357E+03  0.60014062202E+03 0.  0.
         23    2    4    4    0    0  0.50984338749E+03  0.11854756748E+03  0.20164573531E+02  0.53166514747E+03  0.90925318162E+02 0.  0.
         23    2    4    4    0    0  0.15735362800E+03 -0.34082524665E+03 -0.84075355420E+02  0.39505626610E+03  0.89882005987E+02 0.  0.
          2    1    3    3  502    0 -0.37752751314E+03  0.16936176467E+03 -0.26787716039E+03  0.49291845529E+03  0.00000000000E+00 0. -1.
         -2    1    3    3    0  502 -0.28966950235E+03  0.52915914494E+02 -0.16260319070E+03  0.33637525507E+03  0.00000000000E+00 0.  1.
         15    1    5    5    0    0  0.43438179259E+03  0.70775464122E+02  0.11655438639E+00  0.44011348465E+03  0.17770000000E+01 0.  1.
        -15    1    5    5    0    0  0.75461594900E+02  0.47772103361E+02  0.20048019145E+02  0.91551662820E+02  0.17770000000E+01 0. -1.
          1    1    6    6  503    0  0.59491168668E+02 -0.21503782996E+03 -0.22672223565E+02  0.22426434667E+03  0.00000000000E+00 0. -1.
         -1    1    6    6    0  503  0.97862459330E+02 -0.12578741668E+03 -0.61403131855E+02  0.17079191943E+03  0.00000000000E+00 0.  1.
<mgrwt>
<rscale>  0 0.81008485E+03</rscale>
<asrwt>0</asrwt>
<pdfrwt beam="1">  1        2 0.17310817E+00 0.81008485E+03</pdfrwt>
<pdfrwt beam="2">  1       -2 0.97048002E-01 0.81008485E+03</pdfrwt>
<totfact> 0.18854155E+01</totfact>
</mgrwt>
</event>
<event>
12    1  0.7781383E-008  0.9748613E+03  0.7818608E-02  0.9336554E-01
         -1   -1    0    0    0  501 -0.00000000000E+00  0.00000000000E+00  0.92365457590E+03  0.92365457590E+03  0.00000000000E+00 0.  1.
          1   -1    0    0  501    0  0.00000000000E+00 -0.00000000000E+00 -0.12014308130E+04  0.12014308130E+04  0.00000000000E+00 0. -1.
         23    2    1    2    0    0  0.64115320352E+03 -0.65794917913E+03  0.17205685549E+03  0.93921237060E+03  0.92421658054E+02 0.  0.
    5000000    2    1    2    0    0 -0.64115320352E+03  0.65794917913E+03 -0.44983309255E+03  0.11858730183E+04  0.59997537581E+03 0.  0.
         23    2    4    4    0    0 -0.52111405729E+03  0.22788801367E+03 -0.44764691541E+03  0.73003517988E+03  0.95240723984E+02 0.  0.
         23    2    4    4    0    0 -0.12003914623E+03  0.43006116546E+03 -0.21861771451E+01  0.45583783838E+03  0.91767929387E+02 0.  0.
          4    1    3    3  502    0  0.17684111331E+03 -0.18560197684E+03  0.90507318774E+02  0.27186843861E+03  0.00000000000E+00 0. -1.
         -4    1    3    3    0  502  0.46431209021E+03 -0.47234720229E+03  0.81549536716E+02  0.66734393199E+03  0.00000000000E+00 0.  1.
         15    1    5    5    0    0 -0.40554820924E+03  0.13265429911E+03 -0.32228425877E+03  0.53473059971E+03  0.17770000000E+01 0. -1.
        -15    1    5    5    0    0 -0.11556584805E+03  0.95233714560E+02 -0.12536265664E+03  0.19530458016E+03  0.17770000000E+01 0.  1.
          1    1    6    6  503    0 -0.12673314440E+03  0.31830959936E+03  0.13018126999E+02  0.34285822517E+03  0.00000000000E+00 0. -1.
         -1    1    6    6    0  503  0.66939981699E+01  0.11175156609E+03 -0.15204304144E+02  0.11297961321E+03  0.00000000000E+00 0.  1.
<mgrwt>
<rscale>  0 0.97486126E+03</rscale>
<asrwt>0</asrwt>
<pdfrwt beam="1">  1        1 0.18483551E+00 0.97486126E+03</pdfrwt>
<pdfrwt beam="2">  1       -1 0.14210070E+00 0.97486126E+03</pdfrwt>
<totfact> 0.43243595E+00</totfact>
</mgrwt>
</event>
<event>
12    1  0.7781383E-008  0.1084449E+04  0.7818608E-02  0.9220483E-01
         -2   -1    0    0    0  501 -0.00000000000E+00  0.00000000000E+00  0.47799948056E+03  0.47799948056E+03  0.00000000000E+00 0.  1.
          2   -1    0    0  501    0  0.00000000000E+00 -0.00000000000E+00 -0.29722266039E+04  0.29722266039E+04  0.00000000000E+00 0. -1.
         23    2    1    2    0    0  0.94383636419E+03  0.46446120755E+03 -0.17017526369E+04  0.20029817115E+04  0.97069067145E+02 0.  0.
    5000000    2    1    2    0    0 -0.94383636419E+03 -0.46446120755E+03 -0.79247448644E+03  0.14472443729E+04  0.59995763825E+03 0.  0.
         23    2    4    4    0    0 -0.12699395232E+03 -0.22532284023E+03  0.10112763635E+02  0.27380083976E+03  0.89256851889E+02 0.  0.
         23    2    4    4    0    0 -0.81684241186E+03 -0.23913836732E+03 -0.80258725007E+03  0.11734435332E+04  0.91677407589E+02 0.  0.
          2    1    3    3  502    0  0.31915992955E+03  0.17644174992E+03 -0.67266760816E+03  0.76516433713E+03  0.00000000000E+00 0.  1.
         -2    1    3    3    0  502  0.62467643464E+03  0.28801945763E+03 -0.10290850288E+04  0.12378173744E+04  0.00000000000E+00 0. -1.
         15    1    5    5    0    0 -0.11351055683E+02 -0.49047992107E+02  0.35240926360E+02  0.61478716761E+02  0.17770000000E+01 0.  1.
        -15    1    5    5    0    0 -0.11564289664E+03 -0.17627484812E+03 -0.25128162725E+02  0.21232212300E+03  0.17770000000E+01 0. -1.
          2    1    6    6  503    0 -0.67152838202E+03 -0.22884725196E+03 -0.64480932400E+03  0.95869729159E+03  0.00000000000E+00 0. -1.
         -2    1    6    6    0  503 -0.14531402985E+03 -0.10291115361E+02 -0.15777792607E+03  0.21474624160E+03  0.00000000000E+00 0.  1.
<mgrwt>
<rscale>  0 0.10844487E+04</rscale>
<asrwt>0</asrwt>
<pdfrwt beam="1">  1        2 0.45726564E+00 0.10844487E+04</pdfrwt>
<pdfrwt beam="2">  1       -2 0.73538380E-01 0.10844487E+04</pdfrwt>
<totfact> 0.30496392E+00</totfact>
</mgrwt>
</event>
<event>
12    1  0.7781383E-008  0.7969336E+03  0.7818608E-02  0.9564466E-01
          2   -1    0    0  501    0  0.00000000000E+00  0.00000000000E+00  0.23100067982E+04  0.23100067982E+04  0.00000000000E+00 0. -1.
         -2   -1    0    0    0  501 -0.00000000000E+00 -0.00000000000E+00 -0.38625293938E+03  0.38625293938E+03  0.00000000000E+00 0.  1.
         23    2    1    2    0    0 -0.76506357591E+03 -0.71552989682E+02  0.36072681861E+03  0.85399200113E+03  0.93468683607E+02 0.  0.
    5000000    2    1    2    0    0  0.76506357591E+03  0.71552989682E+02  0.15630270403E+04  0.18422677365E+04  0.60037886277E+03 0.  0.
         23    2    4    4    0    0  0.13040486373E+03 -0.64215262403E+02  0.32600525258E+02  0.17751007481E+03  0.96529808880E+02 0.  0.
         23    2    4    4    0    0  0.63465871218E+03  0.13576825209E+03  0.15304265150E+04  0.16647576617E+04  0.89375920283E+02 0.  0.
          4    1    3    3  502    0 -0.10896757985E+03 -0.33227930045E+02  0.80692759440E+02  0.13960426290E+03  0.00000000000E+00 0. -1.
         -4    1    3    3    0  502 -0.65609599606E+03 -0.38325059638E+02  0.28003405917E+03  0.71438773823E+03  0.00000000000E+00 0.  1.
         15    1    5    5    0    0  0.18904960004E+02 -0.56961974075E+02  0.26392689613E+02  0.65588076639E+02  0.17770000000E+01 0.  1.
        -15    1    5    5    0    0  0.11149990372E+03 -0.72532883287E+01  0.62078356448E+01  0.11192199817E+03  0.17770000000E+01 0. -1.
          1    1    6    6  503    0  0.61338113408E+03  0.14021013332E+03  0.14349231053E+04  0.15668119272E+04  0.00000000000E+00 0. -1.
         -1    1    6    6    0  503  0.21277578097E+02 -0.44418812295E+01  0.95503409678E+02  0.97945734459E+02  0.00000000000E+00 0.  1.
<mgrwt>
<rscale>  0 0.79693357E+03</rscale>
<asrwt>0</asrwt>
<pdfrwt beam="1">  1        2 0.35538565E+00 0.79693357E+03</pdfrwt>
<pdfrwt beam="2">  1       -2 0.59423531E-01 0.79693357E+03</pdfrwt>
<totfact> 0.12247310E+01</totfact>
</mgrwt>
</event>
<event>
12    1  0.7781383E-008  0.4582555E+03  0.7818608E-02  0.1025288E+00
         -1   -1    0    0    0  501 -0.00000000000E+00  0.00000000000E+00  0.21997762537E+03  0.21997762537E+03  0.00000000000E+00 0.  1.
          1   -1    0    0  501    0  0.00000000000E+00 -0.00000000000E+00 -0.10624225150E+04  0.10624225150E+04  0.00000000000E+00 0. -1.
         23    2    1    2    0    0  0.28077934020E+03 -0.61193262544E+02 -0.25932657271E+03  0.39786985423E+03  0.92024433333E+02 0.  0.
    5000000    2    1    2    0    0 -0.28077934020E+03  0.61193262544E+02 -0.58311831688E+03  0.88453028610E+03  0.59982097519E+03 0.  0.
         23    2    4    4    0    0 -0.34815589709E+03 -0.16115571987E+03 -0.24367361203E+03  0.46324725568E+03  0.89652082940E+02 0.  0.
         23    2    4    4    0    0  0.67376556883E+02  0.22234898241E+03 -0.33944470485E+03  0.42128303042E+03  0.90983590109E+02 0.  0.
          4    1    3    3  502    0  0.71227311523E+02 -0.56086616117E+02 -0.96832799658E+02  0.13264851866E+03  0.00000000000E+00 0. -1.
         -4    1    3    3    0  502  0.20955202868E+03 -0.51066464270E+01 -0.16249377305E+03  0.26522133557E+03  0.00000000000E+00 0.  1.
         15    1    5    5    0    0 -0.10737122123E+03 -0.50450148297E+02 -0.12663878034E+03  0.17353482368E+03  0.17770000000E+01 0.  1.
        -15    1    5    5    0    0 -0.24078467585E+03 -0.11070557157E+03 -0.11703483169E+03  0.28971243201E+03  0.17770000000E+01 0. -1.
          3    1    6    6  503    0  0.59405252403E+02  0.18226519778E+03 -0.20457778944E+03  0.28035987279E+03  0.00000000000E+00 0. -1.
         -3    1    6    6    0  503  0.79713044808E+01  0.40083784634E+02 -0.13486691540E+03  0.14092315763E+03  0.00000000000E+00 0.  1.
<mgrwt>
<rscale>  0 0.45825552E+03</rscale>
<asrwt>0</asrwt>
<pdfrwt beam="1">  1        1 0.16344962E+00 0.45825552E+03</pdfrwt>
<pdfrwt beam="2">  1       -1 0.33842712E-01 0.45825552E+03</pdfrwt>
<totfact> 0.11698445E+02</totfact>
</mgrwt>
</event>
<event>
12    1  0.7781383E-008  0.2137307E+04  0.7818608E-02  0.8544985E-01
         -1   -1    0    0    0  501 -0.00000000000E+00  0.00000000000E+00  0.14691330894E+04  0.14691330894E+04  0.00000000000E+00 0.  1.
          1   -1    0    0  501    0  0.00000000000E+00 -0.00000000000E+00 -0.34095756762E+04  0.34095756762E+04  0.00000000000E+00 0. -1.
         23    2    1    2    0    0 -0.11069748945E+04  0.17797301048E+04 -0.16715224868E+04  0.26823866000E+04  0.91530240451E+02 0.  0.
    5000000    2    1    2    0    0  0.11069748945E+04 -0.17797301048E+04 -0.26892010001E+03  0.21963221656E+04  0.59889930020E+03 0.  0.
         23    2    4    4    0    0  0.11301131838E+04 -0.17352288893E+04 -0.24150933381E+03  0.20868016870E+04  0.90771229186E+02 0.  0.
         23    2    4    4    0    0 -0.23138289322E+02 -0.44501215513E+02 -0.27410766191E+02  0.10952047857E+03  0.93421873822E+02 0.  0.
          3    1    3    3  502    0 -0.61279586063E+03  0.91929642704E+03 -0.91843579763E+03  0.14367146557E+04  0.00000000000E+00 0. -1.
         -3    1    3    3    0  502 -0.49417903388E+03  0.86043367777E+03 -0.75308668917E+03  0.12456719443E+04  0.00000000000E+00 0.  1.
         15    1    5    5    0    0  0.43140466320E+03 -0.74420194300E+03 -0.10225129325E+03  0.86625919914E+03  0.17770000000E+01 0. -1.
        -15    1    5    5    0    0  0.69870852064E+03 -0.99102694629E+03 -0.13925804057E+03  0.12205424879E+04  0.17770000000E+01 0.  1.
          2    1    6    6  503    0 -0.19090887126E+02 -0.73270539504E+02 -0.12090916860E+02  0.76676099281E+02  0.00000000000E+00 0. -1.
         -2    1    6    6    0  503 -0.40474021958E+01  0.28769323991E+02 -0.15319849332E+02  0.32844379290E+02  0.00000000000E+00 0.  1.
<mgrwt>
<rscale>  0 0.21373066E+04</rscale>
<asrwt>0</asrwt>
<pdfrwt beam="1">  1        1 0.52455011E+00 0.21373066E+04</pdfrwt>
<pdfrwt beam="2">  1       -1 0.22602047E+00 0.21373066E+04</pdfrwt>
<totfact> 0.25920634E-02</totfact>
</mgrwt>
</event>
<event>
12    1  0.7781383E-008  0.8872941E+03  0.7818608E-02  0.9441605E-01
          2   -1    0    0  501    0  0.00000000000E+00  0.00000000000E+00  0.13147066375E+04  0.13147066375E+04  0.00000000000E+00 0. -1.
         -2   -1    0    0    0  501 -0.00000000000E+00 -0.00000000000E+00 -0.84800922065E+03  0.84800922065E+03  0.00000000000E+00 0.  1.
         23    2    1    2    0    0  0.81670710666E+03  0.27961801238E+03 -0.23442523899E+03  0.89908083601E+03  0.90523069338E+02 0.  0.
    5000000    2    1    2    0    0 -0.81670710666E+03 -0.27961801238E+03  0.70112265587E+03  0.12636350222E+04  0.60000313312E+03 0.  0.
         23    2    4    4    0    0 -0.70925341251E+02 -0.11187695287E+03 -0.70695481084E+02  0.17356398994E+03  0.87061765097E+02 0.  0.
         23    2    4    4    0    0 -0.74578176541E+03 -0.16774105951E+03  0.77181813695E+03  0.10900710322E+04  0.90686901502E+02 0.  0.
          3    1    3    3  502    0  0.22542769684E+03  0.64937562698E+02 -0.24215290277E+02  0.23584086549E+03  0.00000000000E+00 0. -1.
         -3    1    3    3    0  502  0.59127940982E+03  0.21468044969E+03 -0.21020994872E+03  0.66323997052E+03  0.00000000000E+00 0.  1.
         15    1    5    5    0    0 -0.72419415913E+02 -0.11643494179E+03 -0.40568284773E+02  0.14300563251E+03  0.17770000000E+01 0. -1.
        -15    1    5    5    0    0  0.14940746617E+01  0.45579889192E+01 -0.30127196311E+02  0.30558357428E+02  0.17770000000E+01 0.  1.
          3    1    6    6  503    0 -0.21153009838E+03 -0.85504504161E+02  0.20323895091E+03  0.30555208053E+03  0.00000000000E+00 0. -1.
         -3    1    6    6    0  503 -0.53425166703E+03 -0.82236555349E+02  0.56857918604E+03  0.78451895169E+03  0.00000000000E+00 0.  1.
<mgrwt>
<rscale>  0 0.88729408E+03</rscale>
<asrwt>0</asrwt>
<pdfrwt beam="1">  1        2 0.20226256E+00 0.88729408E+03</pdfrwt>
<pdfrwt beam="2">  1       -2 0.13046296E+00 0.88729408E+03</pdfrwt>
<totfact> 0.70082096E+00</totfact>
</mgrwt>
</event>
<event>
12    1  0.7781383E-008  0.1275022E+04  0.7818608E-02  0.9049611E-01
         -1   -1    0    0    0  501 -0.00000000000E+00  0.00000000000E+00  0.42575164821E+03  0.42575164821E+03  0.00000000000E+00 0.  1.
          1   -1    0    0  501    0  0.00000000000E+00 -0.00000000000E+00 -0.39908883317E+04  0.39908883317E+04  0.00000000000E+00 0. -1.
         23    2    1    2    0    0 -0.10272761017E+04 -0.62648229614E+03 -0.12362983491E+04  0.17275589823E+04  0.90830462260E+02 0.  0.
    5000000    2    1    2    0    0  0.10272761017E+04  0.62648229614E+03 -0.23288383344E+04  0.26890809976E+04  0.59991029956E+03 0.  0.
         23    2    4    4    0    0  0.10151746138E+04  0.38939510177E+03 -0.18809284674E+04  0.21744909641E+04  0.91164751916E+02 0.  0.
         23    2    4    4    0    0  0.12101487904E+02  0.23708719438E+03 -0.44790986702E+03  0.51459003348E+03  0.88446988838E+02 0.  0.
          3    1    3    3  502    0 -0.37687611248E+03 -0.18343258653E+03 -0.45462055598E+03  0.61835505002E+03  0.00000000000E+00 0. -1.
         -3    1    3    3    0  502 -0.65039998919E+03 -0.44304970961E+03 -0.78167779311E+03  0.11092039323E+04  0.00000000000E+00 0.  1.
         15    1    5    5    0    0  0.64915243419E+03  0.29503772737E+03 -0.12400823777E+04  0.14304732100E+04  0.17770000000E+01 0. -1.
        -15    1    5    5    0    0  0.36602217958E+03  0.94357374391E+02 -0.64084608967E+03  0.74401775411E+03  0.17770000000E+01 0.  1.
          3    1    6    6  503    0  0.45362069188E+02  0.18931842212E+03 -0.35732941721E+03  0.40691951867E+03  0.00000000000E+00 0. -1.
         -3    1    6    6    0  503 -0.33260581284E+02  0.47768772260E+02 -0.90580449810E+02  0.10767051480E+03  0.00000000000E+00 0.  1.
<mgrwt>
<rscale>  0 0.12750221E+04</rscale>
<asrwt>0</asrwt>
<pdfrwt beam="1">  1        1 0.61398285E+00 0.12750221E+04</pdfrwt>
<pdfrwt beam="2">  1       -1 0.65500251E-01 0.12750221E+04</pdfrwt>
<totfact> 0.23236994E-01</totfact>
</mgrwt>
</event>
<event>
12    1  0.7781383E-008  0.7125279E+03  0.7818608E-02  0.9696044E-01
         -2   -1    0    0    0  501 -0.00000000000E+00  0.00000000000E+00  0.44077965765E+03  0.44077965765E+03  0.00000000000E+00 0. -1.
          2   -1    0    0  501    0  0.00000000000E+00 -0.00000000000E+00 -0.19802888380E+04  0.19802888380E+04  0.00000000000E+00 0.  1.
         23    2    1    2    0    0 -0.13908325210E+03 -0.57266186004E+03  0.74955407560E+02  0.60072506672E+03  0.89255451998E+02 0.  0.
    5000000    2    1    2    0    0  0.13908325210E+03  0.57266186004E+03 -0.16144645880E+04  0.18203434290E+04  0.59989043722E+03 0.  0.
         23    2    4    4    0    0  0.26117155723E+03  0.32332033368E+02 -0.57574241221E+03  0.63954752140E+03  0.91026173277E+02 0.  0.
         23    2    4    4    0    0 -0.12208830514E+03  0.54032982667E+03 -0.10387221757E+04  0.11807959076E+04  0.92050752859E+02 0.  0.
          1    1    3    3  502    0 -0.90609328529E+02 -0.42816912496E+03  0.92474195847E+02  0.44731457263E+03  0.00000000000E+00 0. -1.
         -1    1    3    3    0  502 -0.48473923567E+02 -0.14449273507E+03 -0.17518788287E+02  0.15341049409E+03  0.00000000000E+00 0.  1.
         15    1    5    5    0    0  0.17540100796E+03 -0.14432691588E+02 -0.31097284768E+03  0.35732490244E+03  0.17770000000E+01 0. -1.
        -15    1    5    5    0    0  0.85770549275E+02  0.46764724955E+02 -0.26476956453E+03  0.28222261896E+03  0.17770000000E+01 0.  1.
          4    1    6    6  503    0 -0.12468656049E+03  0.36077148184E+03 -0.72297152055E+03  0.81755160081E+03  0.00000000000E+00 0. -1.
         -4    1    6    6    0  503  0.25982553477E+01  0.17955834483E+03 -0.31575065520E+03  0.36324430676E+03  0.00000000000E+00 0.  1.
<mgrwt>
<rscale>  0 0.71252793E+03</rscale>
<asrwt>0</asrwt>
<pdfrwt beam="1">  1        2 0.30465982E+00 0.71252793E+03</pdfrwt>
<pdfrwt beam="2">  1       -2 0.67812256E-01 0.71252793E+03</pdfrwt>
<totfact> 0.14198092E+01</totfact>
</mgrwt>
</event>
<event>
12    1  0.7781383E-008  0.4317853E+03  0.7818608E-02  0.1033297E+00
         -2   -1    0    0    0  501 -0.00000000000E+00  0.00000000000E+00  0.24341862831E+03  0.24341862831E+03  0.00000000000E+00 0.  1.
          2   -1    0    0  501    0  0.00000000000E+00 -0.00000000000E+00 -0.15550710873E+04  0.15550710873E+04  0.00000000000E+00 0. -1.
         23    2    1    2    0    0 -0.84672580226E+02  0.40574843904E+03 -0.80684111155E+03  0.91150977107E+03  0.89756569876E+02 0.  0.
    5000000    2    1    2    0    0  0.84672580226E+02 -0.40574843904E+03 -0.50481134744E+03  0.88697994454E+03  0.60008139773E+03 0.  0.
         23    2    4    4    0    0 -0.16882642813E+02 -0.21358514163E+03  0.88164417063E+02  0.24879726371E+03  0.90683392302E+02 0.  0.
         23    2    4    4    0    0  0.10155522304E+03 -0.19216329741E+03 -0.59297576450E+03  0.63818268083E+03  0.91742469095E+02 0.  0.
          2    1    3    3  502    0 -0.44306955099E+02  0.30216601984E+03 -0.50889473906E+03  0.59349917039E+03  0.00000000000E+00 0. -1.
         -2    1    3    3    0  502 -0.40365625127E+02  0.10358241920E+03 -0.29794637249E+03  0.31801060067E+03  0.00000000000E+00 0.  1.
         15    1    5    5    0    0 -0.46815097265E+01 -0.15200195366E+03  0.15683303185E+02  0.15289092249E+03  0.17770000000E+01 0.  1.
        -15    1    5    5    0    0 -0.12201133086E+02 -0.61583187966E+02  0.72481113878E+02  0.95906341222E+02  0.17770000000E+01 0. -1.
          3    1    6    6  503    0  0.16637815284E+02 -0.11860791989E+03 -0.36270365121E+03  0.38196674483E+03  0.00000000000E+00 0. -1.
         -3    1    6    6    0  503  0.84917407754E+02 -0.73555377519E+02 -0.23027211329E+03  0.25621593600E+03  0.00000000000E+00 0.  1.
<mgrwt>
<rscale>  0 0.43178531E+03</rscale>
<asrwt>0</asrwt>
<pdfrwt beam="1">  1        2 0.23924171E+00 0.43178531E+03</pdfrwt>
<pdfrwt beam="2">  1       -2 0.37449019E-01 0.43178531E+03</pdfrwt>
<totfact> 0.84384559E+01</totfact>
</mgrwt>
</event>
<event>
12    1  0.7781383E-008  0.3706079E+03  0.7818608E-02  0.1054461E+00
         -2   -1    0    0    0  501 -0.00000000000E+00  0.00000000000E+00  0.27963089473E+03  0.27963089473E+03  0.00000000000E+00 0.  1.
          2   -1    0    0  501    0  0.00000000000E+00 -0.00000000000E+00 -0.17789800611E+04  0.17789800611E+04  0.00000000000E+00 0. -1.
         23    2    1    2    0    0  0.30149235774E+03  0.66571744949E+02 -0.13221649625E+04  0.13607918314E+04  0.91130573125E+02 0.  0.
    5000000    2    1    2    0    0 -0.30149235774E+03 -0.66571744949E+02 -0.17718420384E+03  0.69781912438E+03  0.60018984435E+03 0.  0.
         23    2    4    4    0    0 -0.98897513302E+01  0.55777858249E+02  0.18178228887E+03  0.21094364185E+03  0.90793407453E+02 0.  0.
         23    2    4    4    0    0 -0.29160260641E+03 -0.12234960320E+03 -0.35896649271E+03  0.48687548254E+03  0.90494680170E+02 0.  0.
          2    1    3    3  502    0  0.11444019648E+03 -0.16638527966E+02 -0.54319653053E+03  0.55537002976E+03  0.00000000000E+00 0. -1.
         -2    1    3    3    0  502  0.18705216127E+03  0.83210272915E+02 -0.77896843201E+03  0.80542180168E+03  0.00000000000E+00 0.  1.
         15    1    5    5    0    0  0.17921838566E+02  0.66751646261E+02  0.84640065067E+02  0.10928894235E+03  0.17770000000E+01 0. -1.
        -15    1    5    5    0    0 -0.27811589896E+02 -0.10973788012E+02  0.97142223803E+02  0.10165469950E+03  0.17770000000E+01 0.  1.
          2    1    6    6  503    0 -0.59706712536E+02 -0.30680973401E+00 -0.11132157540E+03  0.12632291480E+03  0.00000000000E+00 0. -1.
         -2    1    6    6    0  503 -0.23189589388E+03 -0.12204279346E+03 -0.24764491731E+03  0.36055256774E+03  0.00000000000E+00 0.  1.
<mgrwt>
<rscale>  0 0.37060785E+03</rscale>
<asrwt>0</asrwt>
<pdfrwt beam="1">  1        2 0.27368924E+00 0.37060785E+03</pdfrwt>
<pdfrwt beam="2">  1       -2 0.43020138E-01 0.37060785E+03</pdfrwt>
<totfact> 0.49549586E+01</totfact>
</mgrwt>
</event>
<event>
12    1  0.7781383E-008  0.7363909E+03  0.7818608E-02  0.9656946E-01
          1   -1    0    0  501    0  0.00000000000E+00  0.00000000000E+00  0.20450406891E+04  0.20450406891E+04  0.00000000000E+00 0. -1.
         -1   -1    0    0    0  501 -0.00000000000E+00 -0.00000000000E+00 -0.40357191899E+03  0.40357191899E+03  0.00000000000E+00 0.  1.
         23    2    1    2    0    0 -0.69157930535E+03 -0.89565868393E+02  0.18871798289E+03  0.72904563993E+03  0.97923887042E+02 0.  0.
    5000000    2    1    2    0    0  0.69157930535E+03  0.89565868393E+02  0.14527507873E+04  0.17195669682E+04  0.60010143133E+03 0.  0.
         23    2    4    4    0    0  0.21392408974E+03  0.16334759212E+03  0.10360874363E+04  0.10746804027E+04  0.94946511920E+02 0.  0.
         23    2    4    4    0    0  0.47765521561E+03 -0.73781723723E+02  0.41666335092E+03  0.64488656553E+03  0.93124039045E+02 0.  0.
          4    1    3    3  502    0 -0.22644120117E+03 -0.73618252494E+02  0.79062972392E+02  0.25089084936E+03  0.00000000000E+00 0. -1.
         -4    1    3    3    0  502 -0.46513810418E+03 -0.15947615899E+02  0.10965501050E+03  0.47815479056E+03  0.00000000000E+00 0.  1.
         15    1    5    5    0    0  0.74954944680E+02  0.19335645054E+02  0.41441956851E+03  0.42159085307E+03  0.17770000000E+01 0.  1.
        -15    1    5    5    0    0  0.13896914506E+03  0.14401194706E+03  0.62166786783E+03  0.65308954960E+03  0.17770000000E+01 0. -1.
          2    1    6    6  503    0  0.26749262257E+03  0.42180345670E+01  0.21199458498E+03  0.34133824721E+03  0.00000000000E+00 0. -1.
         -2    1    6    6    0  503  0.21016259304E+03 -0.77999758290E+02  0.20466876594E+03  0.30354831833E+03  0.00000000000E+00 0.  1.
<mgrwt>
<rscale>  0 0.73639089E+03</rscale>
<asrwt>0</asrwt>
<pdfrwt beam="1">  1        1 0.31462164E+00 0.73639089E+03</pdfrwt>
<pdfrwt beam="2">  1       -1 0.62087989E-01 0.73639089E+03</pdfrwt>
<totfact> 0.76773301E+00</totfact>
</mgrwt>
</event>
<event>
12    1  0.7781383E-008  0.7480993E+03  0.7818608E-02  0.9638337E-01
          2   -1    0    0  501    0  0.00000000000E+00  0.00000000000E+00  0.10655715047E+04  0.10655715047E+04  0.00000000000E+00 0. -1.
         -2   -1    0    0    0  501 -0.00000000000E+00 -0.00000000000E+00 -0.62160898258E+03  0.62160898258E+03  0.00000000000E+00 0.  1.
         23    2    1    2    0    0  0.65646905589E+03 -0.16956475096E+03  0.11778339612E+02  0.68392372337E+03  0.88933143393E+02 0.  0.
    5000000    2    1    2    0    0 -0.65646905589E+03  0.16956475096E+03  0.43218418247E+03  0.10032567639E+04  0.60003094967E+03 0.  0.
         23    2    4    4    0    0 -0.26342181603E+03  0.28871247749E+03  0.22862879856E+01  0.40173081826E+03  0.92932639135E+02 0.  0.
         23    2    4    4    0    0 -0.39304723986E+03 -0.11914772653E+03  0.42989789448E+03  0.60152594560E+03  0.91317851777E+02 0.  0.
          4    1    3    3  502    0  0.45582874311E+03 -0.75111466719E+02  0.13021242402E+02  0.46215920226E+03  0.00000000000E+00 0. -1.
         -4    1    3    3    0  502  0.20064031278E+03 -0.94453284240E+02 -0.12429027894E+01  0.22176452111E+03  0.00000000000E+00 0.  1.
         15    1    5    5    0    0 -0.21623521464E+03  0.20953052859E+03 -0.33232010226E+02  0.30293272305E+03  0.17770000000E+01 0.  1.
        -15    1    5    5    0    0 -0.47186601385E+02  0.79181948895E+02  0.35518298211E+02  0.98798095214E+02  0.17770000000E+01 0. -1.
          3    1    6    6  503    0 -0.21573555304E+03 -0.21660150348E+02  0.24829559713E+03  0.32963873333E+03  0.00000000000E+00 0. -1.
         -3    1    6    6    0  503 -0.17731168682E+03 -0.97487576178E+02  0.18160229735E+03  0.27188721227E+03  0.00000000000E+00 0.  1.
<mgrwt>
<rscale>  0 0.74809929E+03</rscale>
<asrwt>0</asrwt>
<pdfrwt beam="1">  1        2 0.16393408E+00 0.74809929E+03</pdfrwt>
<pdfrwt beam="2">  1       -2 0.95632151E-01 0.74809929E+03</pdfrwt>
<totfact> 0.21368848E+01</totfact>
</mgrwt>
</event>
<event>
12    1  0.7781383E-008  0.3306285E+03  0.7818608E-02  0.1070859E+00
         -2   -1    0    0    0  501 -0.00000000000E+00  0.00000000000E+00  0.73998449487E+02  0.73998449487E+02  0.00000000000E+00 0.  1.
          2   -1    0    0  501    0  0.00000000000E+00 -0.00000000000E+00 -0.21035689846E+04  0.21035689846E+04  0.00000000000E+00 0. -1.
         23    2    1    2    0    0  0.49770813650E+02  0.13168134129E+03 -0.34627412578E+03  0.38508356374E+03  0.92555234015E+02 0.  0.
    5000000    2    1    2    0    0 -0.49770813650E+02 -0.13168134129E+03 -0.16832964094E+04  0.17924838704E+04  0.59974537451E+03 0.  0.
         23    2    4    4    0    0  0.21133259614E+03 -0.12453726794E+03 -0.39063611544E+03  0.47051626851E+03  0.92833113430E+02 0.  0.
         23    2    4    4    0    0 -0.26110340979E+03 -0.71440733446E+01 -0.12926602939E+04  0.13219676019E+04  0.91660659556E+02 0.  0.
          1    1    3    3  502    0  0.38678379745E+01  0.33065179703E+02 -0.20024628582E+03  0.20299468285E+03  0.00000000000E+00 0. -1.
         -1    1    3    3    0  502  0.45902975676E+02  0.98616161583E+02 -0.14602783996E+03  0.18208888089E+03  0.00000000000E+00 0.  1.
         15    1    5    5    0    0  0.13340009790E+03 -0.34997631078E+02 -0.16095152063E+03  0.21196454898E+03  0.17770000000E+01 0. -1.
        -15    1    5    5    0    0  0.77932498240E+02 -0.89539636864E+02 -0.22968459481E+03  0.25855171953E+03  0.17770000000E+01 0.  1.
          4    1    6    6  503    0 -0.11732584194E+03 -0.16422606678E+02 -0.79821517591E+03  0.80695881075E+03  0.00000000000E+00 0. -1.
         -4    1    6    6    0  503 -0.14377756785E+03  0.92785333334E+01 -0.49444511800E+03  0.51500879110E+03  0.00000000000E+00 0.  1.
<mgrwt>
<rscale>  0 0.33062851E+03</rscale>
<asrwt>0</asrwt>
<pdfrwt beam="1">  1        2 0.32362598E+00 0.33062851E+03</pdfrwt>
<pdfrwt beam="2">  1       -2 0.11384377E-01 0.33062851E+03</pdfrwt>
<totfact> 0.34969691E+02</totfact>
</mgrwt>
</event>
<event>
12    1  0.7781383E-008  0.1224910E+04  0.7818608E-02  0.9091328E-01
          2   -1    0    0  501    0  0.00000000000E+00  0.00000000000E+00  0.27656437894E+04  0.27656437894E+04  0.00000000000E+00 0. -1.
         -2   -1    0    0    0  501 -0.00000000000E+00 -0.00000000000E+00 -0.55633628419E+03  0.55633628419E+03  0.00000000000E+00 0.  1.
         23    2    1    2    0    0  0.73710089542E+03 -0.90013424957E+03  0.93911519594E+03  0.14979415804E+04  0.91281048002E+02 0.  0.
    5000000    2    1    2    0    0 -0.73710089542E+03  0.90013424957E+03  0.12701923093E+04  0.18240384932E+04  0.60014042097E+03 0.  0.
         23    2    4    4    0    0 -0.78614759017E+03  0.67147502252E+03  0.11368060607E+04  0.15393596074E+04  0.91614637671E+02 0.  0.
         23    2    4    4    0    0  0.49046694744E+02  0.22865922705E+03  0.13338624854E+03  0.28467888580E+03  0.92517870356E+02 0.  0.
          3    1    3    3  502    0  0.40361738994E+03 -0.56226608159E+03  0.54565848496E+03  0.88135879537E+03  0.00000000000E+00 0. -1.
         -3    1    3    3    0  502  0.33348350548E+03 -0.33786816798E+03  0.39345671098E+03  0.61658278501E+03  0.00000000000E+00 0.  1.
         15    1    5    5    0    0 -0.41274656836E+03  0.32751193109E+03  0.64062161841E+03  0.82947152477E+03  0.17770000000E+01 0. -1.
        -15    1    5    5    0    0 -0.37340102181E+03  0.34396309144E+03  0.49618444232E+03  0.70988808265E+03  0.17770000000E+01 0.  1.
          1    1    6    6  503    0  0.59673443211E+02  0.82455698393E+02  0.32953803549E+02  0.10698511668E+03  0.00000000000E+00 0. -1.
         -1    1    6    6    0  503 -0.10626748467E+02  0.14620352866E+03  0.10043244500E+03  0.17769376912E+03  0.00000000000E+00 0.  1.
<mgrwt>
<rscale>  0 0.12249104E+04</rscale>
<asrwt>0</asrwt>
<pdfrwt beam="1">  1        2 0.42548365E+00 0.12249104E+04</pdfrwt>
<pdfrwt beam="2">  1       -2 0.85590199E-01 0.12249104E+04</pdfrwt>
<totfact> 0.28366194E+00</totfact>
</mgrwt>
</event>
<event>
12    1  0.7781383E-008  0.1066915E+04  0.7818608E-02  0.9238052E-01
         -2   -1    0    0    0  501 -0.00000000000E+00  0.00000000000E+00  0.22347027900E+04  0.22347027900E+04  0.00000000000E+00 0.  1.
          2   -1    0    0  501    0  0.00000000000E+00 -0.00000000000E+00 -0.16943817655E+04  0.16943817655E+04  0.00000000000E+00 0. -1.
         23    2    1    2    0    0  0.39760341679E+03  0.90484001498E+03 -0.13726120368E+04  0.16938792171E+04  0.91318502130E+02 0.  0.
    5000000    2    1    2    0    0 -0.39760341679E+03 -0.90484001498E+03  0.19129330613E+04  0.22352053384E+04  0.60000506475E+03 0.  0.
         23    2    4    4    0    0 -0.30654074763E+03 -0.96232148935E+03  0.16949157619E+04  0.19752135554E+04  0.93269881323E+02 0.  0.
         23    2    4    4    0    0 -0.91062669163E+02  0.57481474377E+02  0.21801729946E+03  0.25999178295E+03  0.92019860516E+02 0.  0.
          1    1    3    3  502    0  0.22267077297E+03  0.41027238868E+03 -0.68719439166E+03  0.83074775833E+03  0.00000000000E+00 0. -1.
         -1    1    3    3    0  502  0.17493264382E+03  0.49456762630E+03 -0.68541764519E+03  0.86313145881E+03  0.00000000000E+00 0.  1.
         15    1    5    5    0    0 -0.21209155349E+03 -0.52106512216E+03  0.96898897283E+03  0.11204617244E+04  0.17770000000E+01 0.  1.
        -15    1    5    5    0    0 -0.94449194139E+02 -0.44125636719E+03  0.72592678906E+03  0.85475183104E+03  0.17770000000E+01 0. -1.
          4    1    6    6  503    0 -0.57468742876E+00  0.35467177991E+02  0.11850584807E+03  0.12370079631E+03  0.00000000000E+00 0. -1.
         -4    1    6    6    0  503 -0.90487981734E+02  0.22014296386E+02  0.99511451383E+02  0.13629098664E+03  0.00000000000E+00 0.  1.
<mgrwt>
<rscale>  0 0.10669151E+04</rscale>
<asrwt>0</asrwt>
<pdfrwt beam="1">  1        2 0.26067412E+00 0.10669151E+04</pdfrwt>
<pdfrwt beam="2">  1       -2 0.34380043E+00 0.10669151E+04</pdfrwt>
<totfact> 0.16834474E-01</totfact>
</mgrwt>
</event>
<event>
12    1  0.7781383E-008  0.5357412E+03  0.7818608E-02  0.1004849E+00
         -1   -1    0    0    0  501 -0.00000000000E+00  0.00000000000E+00  0.13004005258E+04  0.13004005258E+04  0.00000000000E+00 0.  1.
          1   -1    0    0  501    0  0.00000000000E+00 -0.00000000000E+00 -0.50442615805E+03  0.50442615805E+03  0.00000000000E+00 0. -1.
         23    2    1    2    0    0 -0.46072745073E+03  0.20361906729E+03 -0.18930202878E+03  0.54609175048E+03  0.93007706217E+02 0.  0.
    5000000    2    1    2    0    0  0.46072745073E+03 -0.20361906729E+03  0.98527639657E+03  0.12587349334E+04  0.59992795113E+03 0.  0.
         23    2    4    4    0    0  0.37032462668E+03 -0.23098228138E+03  0.24486645312E+03  0.50662739474E+03  0.78858061094E+02 0.  0.
         23    2    4    4    0    0  0.90402824057E+02  0.27363214088E+02  0.74040994345E+03  0.75210753869E+03  0.92398318712E+02 0.  0.
          4    1    3    3  502    0 -0.18648429309E+03  0.44791398129E+02 -0.10270941618E+03  0.21755892325E+03  0.00000000000E+00 0.  1.
         -4    1    3    3    0  502 -0.27424315765E+03  0.15882766916E+03 -0.86592612595E+02  0.32853282722E+03  0.00000000000E+00 0. -1.
         15    1    5    5    0    0  0.35175802854E+03 -0.20551432490E+03  0.24434613459E+03  0.47505582788E+03  0.17770000000E+01 0. -1.
        -15    1    5    5    0    0  0.18566598136E+02 -0.25467956478E+02  0.52031852877E+00  0.31571566858E+02  0.17770000000E+01 0.  1.
          3    1    6    6  503    0  0.82993874564E+02 -0.11913179777E+02  0.60926534990E+03  0.61500745821E+03  0.00000000000E+00 0. -1.
         -3    1    6    6    0  503  0.74089494932E+01  0.39276393865E+02  0.13114459355E+03  0.13710008047E+03  0.00000000000E+00 0.  1.
<mgrwt>
<rscale>  0 0.53574124E+03</rscale>
<asrwt>0</asrwt>
<pdfrwt beam="1">  1        1 0.77604025E-01 0.53574124E+03</pdfrwt>
<pdfrwt beam="2">  1       -1 0.20006162E+00 0.53574124E+03</pdfrwt>
<totfact> 0.70451391E+00</totfact>
</mgrwt>
</event>
<event>
12    1  0.7781383E-008  0.5619844E+03  0.7818608E-02  0.9987575E-01
         -2   -1    0    0    0  501 -0.00000000000E+00  0.00000000000E+00  0.80627831008E+03  0.80627831008E+03  0.00000000000E+00 0.  1.
          2   -1    0    0  501    0  0.00000000000E+00 -0.00000000000E+00 -0.50054211025E+03  0.50054211025E+03  0.00000000000E+00 0. -1.
         23    2    1    2    0    0  0.15509005693E+03  0.40304190139E+03 -0.11560267240E+03  0.45600100655E+03  0.89873467036E+02 0.  0.
    5000000    2    1    2    0    0 -0.15509005693E+03 -0.40304190139E+03  0.42133887222E+03  0.85081941378E+03  0.59989293178E+03 0.  0.
         23    2    4    4    0    0 -0.29147282582E+03 -0.54189139948E+02  0.47385202800E+02  0.31370927849E+03  0.90968581872E+02 0.  0.
         23    2    4    4    0    0  0.13638276889E+03 -0.34885276144E+03  0.37395366942E+03  0.53711013529E+03  0.91364335170E+02 0.  0.
          2    1    3    3  502    0  0.11829956026E+03  0.21720711158E+03 -0.96903286128E+02  0.26563878132E+03  0.00000000000E+00 0. -1.
         -2    1    3    3    0  502  0.36790496666E+02  0.18583478980E+03 -0.18699386270E+02  0.19036222522E+03  0.00000000000E+00 0.  1.
         15    1    5    5    0    0 -0.29526551036E+03 -0.55575284343E+02  0.54479846322E+02  0.30535478581E+03  0.17770000000E+01 0. -1.
        -15    1    5    5    0    0  0.37926845325E+01  0.13861443951E+01 -0.70946435220E+01  0.83544926807E+01  0.17770000000E+01 0.  1.
          1    1    6    6  503    0  0.12711862981E+03 -0.22737899496E+03  0.28598329647E+03  0.38684208568E+03  0.00000000000E+00 0. -1.
         -1    1    6    6    0  503  0.92641390800E+01 -0.12147376648E+03  0.87970372955E+02  0.15026804961E+03  0.00000000000E+00 0.  1.
<mgrwt>
<rscale>  0 0.56198436E+03</rscale>
<asrwt>0</asrwt>
<pdfrwt beam="1">  1        2 0.77006479E-01 0.56198436E+03</pdfrwt>
<pdfrwt beam="2">  1       -2 0.12404282E+00 0.56198436E+03</pdfrwt>
<totfact> 0.30944546E+01</totfact>
</mgrwt>
</event>
<event>
12    1  0.7781383E-008  0.6151172E+03  0.7818608E-02  0.9874530E-01
          1   -1    0    0  501    0  0.00000000000E+00  0.00000000000E+00  0.15852619219E+04  0.15852619219E+04  0.00000000000E+00 0. -1.
         -1   -1    0    0    0  501 -0.00000000000E+00 -0.00000000000E+00 -0.26904879745E+03  0.26904879745E+03  0.00000000000E+00 0.  1.
         23    2    1    2    0    0  0.70855744654E+02 -0.50529873368E+03  0.52540118582E+03  0.73808700880E+03  0.91535128229E+02 0.  0.
    5000000    2    1    2    0    0 -0.70855744654E+02  0.50529873368E+03  0.79081193868E+03  0.11162237106E+04  0.60018705661E+03 0.  0.
         23    2    4    4    0    0 -0.24275829969E+03  0.43865108624E+03  0.31811564658E+03  0.60090097927E+03  0.92401594979E+02 0.  0.
         23    2    4    4    0    0  0.17190255504E+03  0.66647647437E+02  0.47269629209E+03  0.51532273132E+03  0.90129548557E+02 0.  0.
          3    1    3    3  502    0 -0.72009144946E+01 -0.27678855913E+03  0.28470810554E+03  0.39714287731E+03  0.00000000000E+00 0. -1.
         -3    1    3    3    0  502  0.78056659148E+02 -0.22851017455E+03  0.24069308028E+03  0.34094413150E+03  0.00000000000E+00 0.  1.
         15    1    5    5    0    0 -0.13038102819E+01  0.51726250776E+02  0.49294259408E+02  0.71486968604E+02  0.17770000000E+01 0. -1.
        -15    1    5    5    0    0 -0.24145448941E+03  0.38692483546E+03  0.26882138717E+03  0.52941401066E+03  0.17770000000E+01 0.  1.
          1    1    6    6  503    0  0.89699067670E+01  0.37427095981E+02  0.11275995284E+03  0.11914719344E+03  0.00000000000E+00 0. -1.
         -1    1    6    6    0  503  0.16293264827E+03  0.29220551456E+02  0.35993633925E+03  0.39617553788E+03  0.00000000000E+00 0.  1.
<mgrwt>
<rscale>  0 0.61511720E+03</rscale>
<asrwt>0</asrwt>
<pdfrwt beam="1">  1        1 0.24388644E+00 0.61511720E+03</pdfrwt>
<pdfrwt beam="2">  1       -1 0.41392124E-01 0.61511720E+03</pdfrwt>
<totfact> 0.34323239E+01</totfact>
</mgrwt>
</event>
<event>
12    1  0.7781383E-008  0.4024179E+03  0.7818608E-02  0.1042946E+00
         -2   -1    0    0    0  501 -0.00000000000E+00  0.00000000000E+00  0.17908665131E+04  0.17908665131E+04  0.00000000000E+00 0.  1.
          2   -1    0    0  501    0  0.00000000000E+00 -0.00000000000E+00 -0.20503446666E+03  0.20503446666E+03  0.00000000000E+00 0. -1.
         23    2    1    2    0    0  0.11045948814E+03 -0.27112028379E+03  0.36517330021E+02  0.30918403839E+03  0.92486471444E+02 0.  0.
    5000000    2    1    2    0    0 -0.11045948814E+03  0.27112028379E+03  0.15493147164E+04  0.16867169413E+04  0.59910803951E+03 0.  0.
         23    2    4    4    0    0 -0.19207503083E+03  0.31425638006E+03  0.15014511162E+04  0.15492104434E+04  0.10023798587E+03 0.  0.
         23    2    4    4    0    0  0.81615542687E+02 -0.43136096270E+02  0.47863600236E+02  0.13750649796E+03  0.89973847007E+02 0.  0.
          1    1    3    3  502    0  0.23593275988E+02 -0.17577532074E+03  0.10928225483E+02  0.17768801920E+03  0.00000000000E+00 0. -1.
         -1    1    3    3    0  502  0.86866212154E+02 -0.95344963048E+02  0.25589104538E+02  0.13149601919E+03  0.00000000000E+00 0.  1.
         15    1    5    5    0    0 -0.17884307487E+03  0.26842440729E+03  0.11445775319E+04  0.11891582705E+04  0.17770000000E+01 0.  1.
        -15    1    5    5    0    0 -0.13231955956E+02  0.45831972775E+02  0.35687358421E+03  0.36005217292E+03  0.17770000000E+01 0. -1.
          4    1    6    6  503    0  0.33365739713E+02 -0.66652684474E+02  0.20752474874E+02  0.77372593001E+02  0.00000000000E+00 0. -1.
         -4    1    6    6    0  503  0.48249802973E+02  0.23516588204E+02  0.27111125362E+02  0.60133904963E+02  0.00000000000E+00 0.  1.
<mgrwt>
<rscale>  0 0.40241788E+03</rscale>
<asrwt>0</asrwt>
<pdfrwt beam="1">  1        2 0.31543765E-01 0.40241788E+03</pdfrwt>
<pdfrwt beam="2">  1       -2 0.27551791E+00 0.40241788E+03</pdfrwt>
<totfact> 0.82051304E+00</totfact>
</mgrwt>
</event>
<event>
12    1  0.7781383E-008  0.9360828E+03  0.7818608E-02  0.9381567E-01
         -2   -1    0    0    0  501 -0.00000000000E+00  0.00000000000E+00  0.72460540412E+03  0.72460540412E+03  0.00000000000E+00 0.  1.
          2   -1    0    0  501    0  0.00000000000E+00 -0.00000000000E+00 -0.18246694944E+04  0.18246694944E+04  0.00000000000E+00 0. -1.
         23    2    1    2    0    0  0.64778113531E+03 -0.57308766368E+03  0.18467423135E+03  0.88878787669E+03  0.88257852372E+02 0.  0.
    5000000    2    1    2    0    0 -0.64778113531E+03  0.57308766368E+03 -0.12847383216E+04  0.16604870218E+04  0.59884449155E+03 0.  0.
         23    2    4    4    0    0 -0.23684860607E+03  0.53154931413E+03 -0.51497450099E+03  0.78245481822E+03  0.91623525039E+02 0.  0.
         23    2    4    4    0    0 -0.41093252924E+03  0.41538349555E+02 -0.76976382061E+03  0.87803220359E+03  0.88392493671E+02 0.  0.
          2    1    3    3  502    0  0.52271716074E+03 -0.46592890896E+03  0.18436118981E+03  0.72409393496E+03  0.00000000000E+00 0. -1.
         -2    1    3    3    0  502  0.12506397457E+03 -0.10715875472E+03  0.31304153710E+00  0.16469394173E+03  0.00000000000E+00 0.  1.
         15    1    5    5    0    0 -0.10897812276E+03  0.14838166349E+03 -0.13997734366E+03  0.23127940628E+03  0.17770000000E+01 0.  1.
        -15    1    5    5    0    0 -0.12787048331E+03  0.38316765064E+03 -0.37499715733E+03  0.55117541195E+03  0.17770000000E+01 0. -1.
          1    1    6    6  503    0 -0.15647496268E+03  0.50932465679E+02 -0.35606136136E+03  0.39224765527E+03  0.00000000000E+00 0. -1.
         -1    1    6    6    0  503 -0.25445756655E+03 -0.93941161239E+01 -0.41370245925E+03  0.48578454832E+03  0.00000000000E+00 0.  1.
<mgrwt>
<rscale>  0 0.93608285E+03</rscale>
<asrwt>0</asrwt>
<pdfrwt beam="1">  1        2 0.28071838E+00 0.93608285E+03</pdfrwt>
<pdfrwt beam="2">  1       -2 0.11147775E+00 0.93608285E+03</pdfrwt>
<totfact> 0.53463124E+00</totfact>
</mgrwt>
</event>
<event>
12    1  0.7781383E-008  0.7143822E+03  0.7818608E-02  0.9692948E-01
          2   -1    0    0  501    0  0.00000000000E+00  0.00000000000E+00  0.12308698296E+04  0.12308698296E+04  0.00000000000E+00 0.  1.
         -2   -1    0    0    0  501 -0.00000000000E+00 -0.00000000000E+00 -0.53602081276E+03  0.53602081276E+03  0.00000000000E+00 0. -1.
         23    2    1    2    0    0  0.29051949164E+03  0.63355702391E+03  0.33882096994E+03  0.78070226607E+03  0.94341406632E+02 0.  0.
    5000000    2    1    2    0    0 -0.29051949164E+03 -0.63355702391E+03  0.35602804685E+03  0.98618837624E+03  0.60001288796E+03 0.  0.
         23    2    4    4    0    0 -0.54584411026E+02 -0.82321286682E+02 -0.14585761348E+03  0.19852812054E+03  0.91557190145E+02 0.  0.
         23    2    4    4    0    0 -0.23593508061E+03 -0.55123573723E+03  0.50188566033E+03  0.78766025570E+03  0.94832811311E+02 0.  0.
          1    1    3    3  502    0  0.26065951811E+03  0.48850877806E+03  0.24568878825E+03  0.60576166212E+03  0.00000000000E+00 0. -1.
         -1    1    3    3    0  502  0.29859973531E+02  0.14504824586E+03  0.93132181693E+02  0.17494060395E+03  0.00000000000E+00 0.  1.
         15    1    5    5    0    0 -0.42311213226E+02 -0.96580689482E+02 -0.87003343429E+02  0.13671432932E+03  0.17770000000E+01 0. -1.
        -15    1    5    5    0    0 -0.12273197800E+02  0.14259402800E+02 -0.58854270050E+02  0.61813791217E+02  0.17770000000E+01 0.  1.
          4    1    6    6  503    0 -0.12695579110E+03 -0.22104753938E+03  0.16588322425E+03  0.30413324653E+03  0.00000000000E+00 0. -1.
         -4    1    6    6    0  503 -0.10897928952E+03 -0.33018819786E+03  0.33600243608E+03  0.48352700917E+03  0.00000000000E+00 0.  1.
<mgrwt>
<rscale>  0 0.71438217E+03</rscale>
<asrwt>0</asrwt>
<pdfrwt beam="1">  1        2 0.18936459E+00 0.71438217E+03</pdfrwt>
<pdfrwt beam="2">  1       -2 0.82464741E-01 0.71438217E+03</pdfrwt>
<totfact> 0.23982820E+01</totfact>
</mgrwt>
</event>
<event>
12    1  0.7781383E-008  0.7734246E+03  0.7818608E-02  0.9599301E-01
          2   -1    0    0  501    0  0.00000000000E+00  0.00000000000E+00  0.40440308462E+04  0.40440308462E+04  0.00000000000E+00 0.  1.
         -2   -1    0    0    0  501 -0.00000000000E+00 -0.00000000000E+00 -0.37363213069E+03  0.37363213069E+03  0.00000000000E+00 0. -1.
         23    2    1    2    0    0  0.25249285894E+03  0.68718993109E+03  0.12531448021E+03  0.74838363015E+03  0.91606188269E+02 0.  0.
    5000000    2    1    2    0    0 -0.25249285894E+03 -0.68718993109E+03  0.35450842353E+04  0.36692793467E+04  0.60000503647E+03 0.  0.
         23    2    4    4    0    0  0.81544737952E+01 -0.47546933338E+03  0.11289775530E+04  0.12283796775E+04  0.90491627025E+02 0.  0.
         23    2    4    4    0    0 -0.26064733273E+03 -0.21172059771E+03  0.24161066823E+04  0.24408996692E+04  0.87504578815E+02 0.  0.
          1    1    3    3  502    0  0.13757529856E+03  0.36088477391E+03  0.19903572792E+02  0.38673108877E+03  0.00000000000E+00 0. -1.
         -1    1    3    3    0  502  0.11491756037E+03  0.32630515718E+03  0.10541090742E+03  0.36165254138E+03  0.00000000000E+00 0.  1.
         15    1    5    5    0    0 -0.13915831765E+02 -0.23864851081E+03  0.46064028140E+03  0.51897917941E+03  0.17770000000E+01 0.  1.
        -15    1    5    5    0    0  0.22070305560E+02 -0.23682082256E+03  0.66833727159E+03  0.70940049811E+03  0.17770000000E+01 0. -1.
          1    1    6    6  503    0 -0.13577504636E+03 -0.86875343974E+02  0.87630216000E+03  0.89100373974E+03  0.00000000000E+00 0. -1.
         -1    1    6    6    0  503 -0.12487228637E+03 -0.12484525374E+03  0.15398045223E+04  0.15498959294E+04  0.00000000000E+00 0.  1.
<mgrwt>
<rscale>  0 0.77342458E+03</rscale>
<asrwt>0</asrwt>
<pdfrwt beam="1">  1        2 0.62215856E+00 0.77342458E+03</pdfrwt>
<pdfrwt beam="2">  1       -2 0.57481869E-01 0.77342458E+03</pdfrwt>
<totfact> 0.98961950E-01</totfact>
</mgrwt>
</event>
<event>
12    1  0.7781383E-008  0.4269716E+03  0.7818608E-02  0.1034821E+00
         -1   -1    0    0    0  501 -0.00000000000E+00  0.00000000000E+00  0.37676027149E+03  0.37676027149E+03  0.00000000000E+00 0.  1.
          1   -1    0    0  501    0  0.00000000000E+00 -0.00000000000E+00 -0.84367244585E+03  0.84367244585E+03  0.00000000000E+00 0. -1.
         23    2    1    2    0    0  0.18158024077E+03  0.28598389381E+03 -0.39388001334E+03  0.52738954989E+03  0.90775002443E+02 0.  0.
    5000000    2    1    2    0    0 -0.18158024077E+03 -0.28598389381E+03 -0.73032161022E+02  0.69304316745E+03  0.60018077614E+03 0.  0.
         23    2    4    4    0    0 -0.24301495956E+03 -0.49779464383E+02 -0.26214263073E+03  0.37258803829E+03  0.92567930662E+02 0.  0.
         23    2    4    4    0    0  0.61434718783E+02 -0.23620442942E+03  0.18911046971E+03  0.32045512916E+03  0.85801881685E+02 0.  0.
          3    1    3    3  502    0  0.48772501518E+02  0.10909359304E+03 -0.20134038045E+03  0.23413269261E+03  0.00000000000E+00 0. -1.
         -3    1    3    3    0  502  0.13280773926E+03  0.17689030076E+03 -0.19253963289E+03  0.29325685728E+03  0.00000000000E+00 0.  1.
         15    1    5    5    0    0 -0.68247160457E+02 -0.45080236149E+02 -0.43570080037E+02  0.92689871103E+02  0.17770000000E+01 0. -1.
        -15    1    5    5    0    0 -0.17476779910E+03 -0.46992282331E+01 -0.21857255069E+03  0.27989816718E+03  0.17770000000E+01 0.  1.
          2    1    6    6  503    0 -0.86676145035E+01 -0.12393079677E+03  0.11202214900E+03  0.16728099652E+03  0.00000000000E+00 0. -1.
         -2    1    6    6    0  503  0.70102333287E+02 -0.11227363265E+03  0.77088320709E+02  0.15317413264E+03  0.00000000000E+00 0.  1.
<mgrwt>
<rscale>  0 0.42697163E+03</rscale>
<asrwt>0</asrwt>
<pdfrwt beam="1">  1        1 0.12979576E+00 0.42697163E+03</pdfrwt>
<pdfrwt beam="2">  1       -1 0.57963119E-01 0.42697163E+03</pdfrwt>
<totfact> 0.64851914E+01</totfact>
</mgrwt>
</event>
<event>
12    1  0.7781383E-008  0.1020556E+04  0.7818608E-02  0.9286283E-01
         -2   -1    0    0    0  501 -0.00000000000E+00  0.00000000000E+00  0.80179632807E+03  0.80179632807E+03  0.00000000000E+00 0. -1.
          2   -1    0    0  501    0  0.00000000000E+00 -0.00000000000E+00 -0.14653947681E+04  0.14653947681E+04  0.00000000000E+00 0.  1.
         23    2    1    2    0    0 -0.18206452793E+03 -0.96711475710E+03 -0.48477397470E+03  0.11008598948E+04  0.91805531883E+02 0.  0.
    5000000    2    1    2    0    0  0.18206452793E+03  0.96711475710E+03 -0.17882446532E+03  0.11663312014E+04  0.59990985669E+03 0.  0.
         23    2    4    4    0    0  0.29780122850E+03  0.58419813819E+03  0.10116219062E+03  0.66966336454E+03  0.90786544290E+02 0.  0.
         23    2    4    4    0    0 -0.11573670057E+03  0.38291661891E+03 -0.27998665595E+03  0.49666783683E+03  0.90919149465E+02 0.  0.
          2    1    3    3  502    0 -0.11741290201E+03 -0.51593489232E+03 -0.30620604051E+03  0.61134011967E+03  0.00000000000E+00 0. -1.
         -2    1    3    3    0  502 -0.64651625920E+02 -0.45117986478E+03 -0.17856793420E+03  0.48951977513E+03  0.00000000000E+00 0.  1.
         15    1    5    5    0    0  0.29472424065E+03  0.58042628867E+03  0.89745788311E+02  0.65712595357E+03  0.17770000000E+01 0.  1.
        -15    1    5    5    0    0  0.30769878518E+01  0.37718495260E+01  0.11416402310E+02  0.12537410969E+02  0.17770000000E+01 0. -1.
          3    1    6    6  503    0 -0.42660244783E+01  0.17001853718E+02 -0.43629387034E+02  0.47018989863E+02  0.00000000000E+00 0. -1.
         -3    1    6    6    0  503 -0.11147067610E+03  0.36591476519E+03 -0.23635726891E+03  0.44964884697E+03  0.00000000000E+00 0.  1.
<mgrwt>
<rscale>  0 0.10205556E+04</rscale>
<asrwt>0</asrwt>
<pdfrwt beam="1">  1        2 0.22544535E+00 0.10205556E+04</pdfrwt>
<pdfrwt beam="2">  1       -2 0.12335328E+00 0.10205556E+04</pdfrwt>
<totfact> 0.65264989E+00</totfact>
</mgrwt>
</event>
<event>
12    1  0.7781383E-008  0.4261463E+03  0.7818608E-02  0.1035084E+00
          2   -1    0    0  501    0  0.00000000000E+00  0.00000000000E+00  0.40256226045E+04  0.40256226045E+04  0.00000000000E+00 0.  1.
         -2   -1    0    0    0  501 -0.00000000000E+00 -0.00000000000E+00 -0.74683662464E+02  0.74683662464E+02  0.00000000000E+00 0. -1.
         23    2    1    2    0    0 -0.34474797653E+03 -0.18417131832E+02  0.83290435996E+03  0.90634591517E+03  0.92427739537E+02 0.  0.
    5000000    2    1    2    0    0  0.34474797653E+03  0.18417131832E+02  0.31180345821E+04  0.31939603518E+04  0.60004392819E+03 0.  0.
         23    2    4    4    0    0  0.19375820520E+03  0.17287118838E+03  0.54623957357E+03  0.61150065827E+03  0.90159267340E+02 0.  0.
         23    2    4    4    0    0  0.15098977133E+03 -0.15445405655E+03  0.25717950085E+04  0.25824596936E+04  0.91184078859E+02 0.  0.
          1    1    3    3  502    0 -0.19449189951E+03 -0.14759317238E+02  0.35109359085E+03  0.40163621096E+03  0.00000000000E+00 0. -1.
         -1    1    3    3    0  502 -0.15025607702E+03 -0.36578145931E+01  0.48181076912E+03  0.50470970421E+03  0.00000000000E+00 0.  1.
         15    1    5    5    0    0  0.17565954875E+03  0.10579343898E+03  0.42027913432E+03  0.46763900316E+03  0.17770000000E+01 0.  1.
        -15    1    5    5    0    0  0.18098656451E+02  0.67077749400E+02  0.12596043924E+03  0.14386165512E+03  0.17770000000E+01 0. -1.
          3    1    6    6  503    0  0.28424368725E+02  0.73810829905E+01  0.22673719045E+03  0.22863109731E+03  0.00000000000E+00 0. -1.
         -3    1    6    6    0  503  0.12256540261E+03 -0.16183513954E+03  0.23450578181E+04  0.23538285962E+04  0.00000000000E+00 0.  1.
<mgrwt>
<rscale>  0 0.42614634E+03</rscale>
<asrwt>0</asrwt>
<pdfrwt beam="1">  1        2 0.61932638E+00 0.42614634E+03</pdfrwt>
<pdfrwt beam="2">  1       -2 0.11489797E-01 0.42614634E+03</pdfrwt>
<totfact> 0.21302002E+01</totfact>
</mgrwt>
</event>
<event>
12    1  0.7781383E-008  0.1197502E+04  0.7818608E-02  0.9115046E-01
          2   -1    0    0  501    0  0.00000000000E+00  0.00000000000E+00  0.14622727831E+04  0.14622727831E+04  0.00000000000E+00 0. -1.
         -2   -1    0    0    0  501 -0.00000000000E+00 -0.00000000000E+00 -0.18696038693E+04  0.18696038693E+04  0.00000000000E+00 0.  1.
         23    2    1    2    0    0 -0.51032596662E+02 -0.11275980260E+04  0.94244605722E+03  0.14732515810E+04  0.90465551532E+02 0.  0.
    5000000    2    1    2    0    0  0.51032596662E+02  0.11275980260E+04 -0.13497771434E+04  0.18586250714E+04  0.59875469535E+03 0.  0.
         23    2    4    4    0    0 -0.21703165644E+03  0.20693191629E+03 -0.37332389801E+03  0.48750974667E+03  0.91495696073E+02 0.  0.
         23    2    4    4    0    0  0.26806425310E+03  0.92066610969E+03 -0.97645324536E+03  0.13711153247E+04  0.83736276773E+02 0.  0.
          3    1    3    3  502    0  0.25399827666E+02 -0.38932612510E+03  0.32448173155E+03  0.50745283233E+03  0.00000000000E+00 0. -1.
         -3    1    3    3    0  502 -0.76432424328E+02 -0.73827190089E+03  0.61796432567E+03  0.96579874867E+03  0.00000000000E+00 0.  1.
         15    1    5    5    0    0 -0.80390451577E+02  0.59833211182E+02 -0.19376272386E+03  0.21815083945E+03  0.17770000000E+01 0.  1.
        -15    1    5    5    0    0 -0.13664120486E+03  0.14709870511E+03 -0.17956117415E+03  0.26935890722E+03  0.17770000000E+01 0. -1.
          2    1    6    6  503    0  0.98118131065E+01  0.11863352830E+03 -0.10178778610E+03  0.15662355861E+03  0.00000000000E+00 0.  1.
         -2    1    6    6    0  503  0.25825243999E+03  0.80203258139E+03 -0.87466545926E+03  0.12144917661E+04  0.00000000000E+00 0. -1.
<mgrwt>
<rscale>  0 0.11975015E+04</rscale>
<asrwt>0</asrwt>
<pdfrwt beam="1">  1        2 0.22496505E+00 0.11975015E+04</pdfrwt>
<pdfrwt beam="2">  1       -2 0.28763136E+00 0.11975015E+04</pdfrwt>
<totfact> 0.49176082E-01</totfact>
</mgrwt>
</event>
<event>
12    1  0.7781383E-008  0.6452489E+03  0.7818608E-02  0.9815735E-01
         -2   -1    0    0    0  501 -0.00000000000E+00  0.00000000000E+00  0.49875650604E+03  0.49875650604E+03  0.00000000000E+00 0.  1.
          2   -1    0    0  501    0  0.00000000000E+00 -0.00000000000E+00 -0.11882416910E+04  0.11882416910E+04  0.00000000000E+00 0. -1.
         23    2    1    2    0    0  0.58677042794E+03 -0.51454133043E+02 -0.59221599809E+03  0.84060997985E+03  0.94648227219E+02 0.  0.
    5000000    2    1    2    0    0 -0.58677042794E+03  0.51454133043E+02 -0.97269186820E+02  0.84638821715E+03  0.59997054636E+03 0.  0.
         23    2    4    4    0    0 -0.23306511275E+03 -0.15045048031E+03 -0.26731616694E+03  0.39610963681E+03  0.92142376005E+02 0.  0.
         23    2    4    4    0    0 -0.35370531519E+03  0.20190461336E+03  0.17004698012E+03  0.45027858034E+03  0.89229488278E+02 0.  0.
          3    1    3    3  502    0  0.27694534000E+03 -0.41432855325E+02 -0.34349747889E+03  0.44317707618E+03  0.00000000000E+00 0. -1.
         -3    1    3    3    0  502  0.30982508795E+03 -0.10021277717E+02 -0.24871851920E+03  0.39743290367E+03  0.00000000000E+00 0.  1.
         15    1    5    5    0    0  0.81108241756E+01 -0.10730574117E+02 -0.11685248661E+02  0.17906240670E+02  0.17770000000E+01 0.  1.
        -15    1    5    5    0    0 -0.24117593693E+03 -0.13971990620E+03 -0.25563091828E+03  0.37820339614E+03  0.17770000000E+01 0. -1.
          1    1    6    6  503    0 -0.15034052066E+03  0.70413544729E+02  0.24707754695E+02  0.16784162945E+03  0.00000000000E+00 0. -1.
         -1    1    6    6    0  503 -0.20336479453E+03  0.13149106863E+03  0.14533922542E+03  0.28243695089E+03  0.00000000000E+00 0.  1.
<mgrwt>
<rscale>  0 0.64524887E+03</rscale>
<asrwt>0</asrwt>
<pdfrwt beam="1">  1        2 0.18280641E+00 0.64524887E+03</pdfrwt>
<pdfrwt beam="2">  1       -2 0.76731770E-01 0.64524887E+03</pdfrwt>
<totfact> 0.30109684E+01</totfact>
</mgrwt>
</event>
<event>
12    1  0.7781383E-008  0.6927683E+03  0.7818608E-02  0.9729680E-01
         -1   -1    0    0    0  501 -0.00000000000E+00  0.00000000000E+00  0.19778917428E+03  0.19778917428E+03  0.00000000000E+00 0.  1.
          1   -1    0    0  501    0  0.00000000000E+00 -0.00000000000E+00 -0.42479482705E+04  0.42479482705E+04  0.00000000000E+00 0. -1.
         23    2    1    2    0    0  0.47454436049E+03 -0.35270772490E+03 -0.31765754357E+04  0.32324045860E+04  0.90624607065E+02 0.  0.
    5000000    2    1    2    0    0 -0.47454436049E+03  0.35270772490E+03 -0.87358366046E+03  0.12133328588E+04  0.59952741808E+03 0.  0.
         23    2    4    4    0    0 -0.46400404192E+03  0.42186203229E+02 -0.32203053575E+03  0.57363531015E+03  0.90963599473E+02 0.  0.
         23    2    4    4    0    0 -0.10540318567E+02  0.31052152167E+03 -0.55155312471E+03  0.63969754861E+03  0.92018425199E+02 0.  0.
          4    1    3    3  502    0  0.29259359637E+03 -0.19642497525E+03 -0.21066746051E+04  0.21359474889E+04  0.00000000000E+00 0. -1.
         -4    1    3    3    0  502  0.18195076412E+03 -0.15628274965E+03 -0.10699008306E+04  0.10964570971E+04  0.00000000000E+00 0.  1.
         15    1    5    5    0    0 -0.17321454822E+03 -0.24052060743E+02 -0.96697119084E+02  0.19983811425E+03  0.17770000000E+01 0. -1.
        -15    1    5    5    0    0 -0.29078949371E+03  0.66238263972E+02 -0.22533341666E+03  0.37379719589E+03  0.17770000000E+01 0.  1.
          4    1    6    6  503    0 -0.38067648305E+02  0.87431745142E+02 -0.21230765993E+03  0.23274019501E+03  0.00000000000E+00 0.  1.
         -4    1    6    6    0  503  0.27527329738E+02  0.22308977653E+03 -0.33924546478E+03  0.40695735360E+03  0.00000000000E+00 0. -1.
<mgrwt>
<rscale>  0 0.69276830E+03</rscale>
<asrwt>0</asrwt>
<pdfrwt beam="1">  1        1 0.65353044E+00 0.69276830E+03</pdfrwt>
<pdfrwt beam="2">  1       -1 0.30429107E-01 0.69276830E+03</pdfrwt>
<totfact> 0.64334848E-01</totfact>
</mgrwt>
</event>
<event>
12    1  0.7781383E-008  0.4287908E+03  0.7818608E-02  0.1034243E+00
         -2   -1    0    0    0  501 -0.00000000000E+00  0.00000000000E+00  0.49325550793E+03  0.49325550793E+03  0.00000000000E+00 0.  1.
          2   -1    0    0  501    0  0.00000000000E+00 -0.00000000000E+00 -0.47942993227E+03  0.47942993227E+03  0.00000000000E+00 0. -1.
         23    2    1    2    0    0 -0.25339398612E+03 -0.71040129326E+02  0.12960639009E+03  0.30738750225E+03  0.91837073178E+02 0.  0.
    5000000    2    1    2    0    0  0.25339398612E+03  0.71040129326E+02 -0.11578081443E+03  0.66529793796E+03  0.59996744670E+03 0.  0.
         23    2    4    4    0    0 -0.97958474661E+02  0.18020783595E+03 -0.16732625890E+03  0.28267217340E+03  0.99170327203E+02 0.  0.
         23    2    4    4    0    0  0.35135246078E+03 -0.10916770663E+03  0.51545444474E+02  0.38262576457E+03  0.91539079080E+02 0.  0.
          1    1    3    3  502    0 -0.45033666366E+02  0.12812984353E+02  0.51479130060E+02  0.69586669026E+02  0.00000000000E+00 0. -1.
         -1    1    3    3    0  502 -0.20836031975E+03 -0.83853113678E+02  0.78127260030E+02  0.23780083322E+03  0.00000000000E+00 0.  1.
         15    1    5    5    0    0 -0.79570629275E+02  0.10487020044E+03 -0.47559188991E+02  0.13997956340E+03  0.17770000000E+01 0. -1.
        -15    1    5    5    0    0 -0.18387845386E+02  0.75337635510E+02 -0.11976706991E+03  0.14269260999E+03  0.17770000000E+01 0.  1.
          2    1    6    6  503    0  0.26123139578E+03 -0.11748458150E+03  0.56632268860E+02  0.29197890833E+03  0.00000000000E+00 0. -1.
         -2    1    6    6    0  503  0.90121064994E+02  0.83168748699E+01 -0.50868243866E+01  0.90646856237E+02  0.00000000000E+00 0.  1.
<mgrwt>
<rscale>  0 0.42879080E+03</rscale>
<asrwt>0</asrwt>
<pdfrwt beam="1">  1        2 0.73758451E-01 0.42879080E+03</pdfrwt>
<pdfrwt beam="2">  1       -2 0.75885463E-01 0.42879080E+03</pdfrwt>
<totfact> 0.10387162E+02</totfact>
</mgrwt>
</event>
<event>
12    1  0.7781383E-008  0.5991911E+03  0.7818608E-02  0.9907086E-01
         -1   -1    0    0    0  501 -0.00000000000E+00  0.00000000000E+00  0.12329739599E+03  0.12329739599E+03  0.00000000000E+00 0.  1.
          1   -1    0    0  501    0  0.00000000000E+00 -0.00000000000E+00 -0.36127262075E+04  0.36127262075E+04  0.00000000000E+00 0. -1.
         23    2    1    2    0    0 -0.48307785846E+03 -0.17339734759E+03 -0.17610651350E+04  0.18358446133E+04  0.74459229818E+02 0.  0.
    5000000    2    1    2    0    0  0.48307785846E+03  0.17339734759E+03 -0.17283636765E+04  0.19001789902E+04  0.60000694918E+03 0.  0.
         23    2    4    4    0    0  0.48584582155E+02 -0.11368410106E+03 -0.92882932437E+03  0.94175779349E+03  0.94336055376E+02 0.  0.
         23    2    4    4    0    0  0.43449327631E+03  0.28708144866E+03 -0.79953435211E+03  0.95842119669E+03  0.90087983290E+02 0.  0.
          3    1    3    3  502    0 -0.24343116757E+03 -0.10931433185E+03 -0.80263409198E+03  0.84583085904E+03  0.00000000000E+00 0. -1.
         -3    1    3    3    0  502 -0.23964669089E+03 -0.64083015742E+02 -0.95843104304E+03  0.99001375426E+03  0.00000000000E+00 0.  1.
         15    1    5    5    0    0  0.74663138732E+02 -0.10233650048E+03 -0.73345247275E+03  0.74431379883E+03  0.17770000000E+01 0.  1.
        -15    1    5    5    0    0 -0.26078556577E+02 -0.11347600584E+02 -0.19537685162E+03  0.19744399466E+03  0.17770000000E+01 0. -1.
          3    1    6    6  503    0  0.15350537906E+03  0.15375253727E+03 -0.34259883451E+03  0.40568177865E+03  0.00000000000E+00 0. -1.
         -3    1    6    6    0  503  0.28098789725E+03  0.13332891139E+03 -0.45693551760E+03  0.55273941804E+03  0.00000000000E+00 0.  1.
<mgrwt>
<rscale>  0 0.59919113E+03</rscale>
<asrwt>0</asrwt>
<pdfrwt beam="1">  1        1 0.55580400E+00 0.59919113E+03</pdfrwt>
<pdfrwt beam="2">  1       -1 0.18968831E-01 0.59919113E+03</pdfrwt>
<totfact> 0.50698163E+00</totfact>
</mgrwt>
</event>
<event>
12    1  0.7781383E-008  0.4965386E+03  0.7818608E-02  0.1014686E+00
         -1   -1    0    0    0  501 -0.00000000000E+00  0.00000000000E+00  0.87376177953E+02  0.87376177953E+02  0.00000000000E+00 0. -1.
          1   -1    0    0  501    0  0.00000000000E+00 -0.00000000000E+00 -0.33389520238E+04  0.33389520238E+04  0.00000000000E+00 0.  1.
         23    2    1    2    0    0 -0.30683965117E+03  0.18831082564E+03 -0.92256909943E+03  0.99452506256E+03  0.91295225748E+02 0.  0.
    5000000    2    1    2    0    0  0.30683965117E+03 -0.18831082564E+03 -0.23290067464E+04  0.24318031392E+04  0.59981875960E+03 0.  0.
         23    2    4    4    0    0 -0.24215306601E+02 -0.26720617238E+03 -0.55282593711E+03  0.62106384697E+03  0.90101418648E+02 0.  0.
         23    2    4    4    0    0  0.33105495777E+03  0.78895346736E+02 -0.17761808093E+04  0.18107392922E+04  0.90203415978E+02 0.  0.
          3    1    3    3  502    0 -0.87508737043E+02  0.34518117413E+02 -0.15235148717E+03  0.17905377721E+03  0.00000000000E+00 0. -1.
         -3    1    3    3    0  502 -0.21933091413E+03  0.15379270823E+03 -0.77021761226E+03  0.81547128535E+03  0.00000000000E+00 0.  1.
         15    1    5    5    0    0 -0.52023409453E+02 -0.11734136808E+03 -0.21438474442E+03  0.24987878694E+03  0.17770000000E+01 0.  1.
        -15    1    5    5    0    0  0.27808102852E+02 -0.14986480430E+03 -0.33844119269E+03  0.37118506004E+03  0.17770000000E+01 0. -1.
          3    1    6    6  503    0  0.27294428670E+03  0.96671589889E+02 -0.13937918265E+04  0.14235517678E+04  0.00000000000E+00 0. -1.
         -3    1    6    6    0  503  0.58110671070E+02 -0.17776243152E+02 -0.38238898276E+03  0.38718752440E+03  0.00000000000E+00 0.  1.
<mgrwt>
<rscale>  0 0.49653859E+03</rscale>
<asrwt>0</asrwt>
<pdfrwt beam="1">  1        1 0.51368486E+00 0.49653859E+03</pdfrwt>
<pdfrwt beam="2">  1       -1 0.13442491E-01 0.49653859E+03</pdfrwt>
<totfact> 0.14739179E+01</totfact>
</mgrwt>
</event>
<event>
12    1  0.7781383E-008  0.6100655E+03  0.7818608E-02  0.9884741E-01
         -2   -1    0    0    0  501 -0.00000000000E+00  0.00000000000E+00  0.33199130636E+03  0.33199130636E+03  0.00000000000E+00 0.  1.
          2   -1    0    0  501    0  0.00000000000E+00 -0.00000000000E+00 -0.19383676751E+04  0.19383676751E+04  0.00000000000E+00 0. -1.
         23    2    1    2    0    0 -0.45070340667E+03  0.33815244969E+03 -0.12486307553E+04  0.13729035692E+04  0.91130714440E+02 0.  0.
    5000000    2    1    2    0    0  0.45070340667E+03 -0.33815244969E+03 -0.35774561336E+03  0.89745541223E+03  0.59996971010E+03 0.  0.
         23    2    4    4    0    0  0.84191036100E+02 -0.23452336011E+03 -0.42382680788E+03  0.50016982101E+03  0.91931223078E+02 0.  0.
         23    2    4    4    0    0  0.36651237057E+03 -0.10362908959E+03  0.66081194523E+02  0.39728559122E+03  0.91645025674E+02 0.  0.
          3    1    3    3  502    0 -0.20745980514E+03  0.99803504584E+02 -0.50591053069E+03  0.55582890833E+03  0.00000000000E+00 0. -1.
         -3    1    3    3    0  502 -0.24324360152E+03  0.23834894511E+03 -0.74272022466E+03  0.81707466087E+03  0.00000000000E+00 0.  1.
         15    1    5    5    0    0  0.17153412679E+02 -0.14475664581E+03 -0.17849775545E+03  0.23046329969E+03  0.17770000000E+01 0. -1.
        -15    1    5    5    0    0  0.67037623421E+02 -0.89766714296E+02 -0.24532905243E+03  0.26970652132E+03  0.17770000000E+01 0.  1.
          3    1    6    6  503    0  0.22340112871E+03 -0.16567026805E+02  0.44445005108E+02  0.22838101752E+03  0.00000000000E+00 0. -1.
         -3    1    6    6    0  503  0.14311124186E+03 -0.87062062783E+02  0.21636189415E+02  0.16890457370E+03  0.00000000000E+00 0.  1.
<mgrwt>
<rscale>  0 0.61006554E+03</rscale>
<asrwt>0</asrwt>
<pdfrwt beam="1">  1        2 0.29821041E+00 0.61006554E+03</pdfrwt>
<pdfrwt beam="2">  1       -2 0.51075585E-01 0.61006554E+03</pdfrwt>
<totfact> 0.27577414E+01</totfact>
</mgrwt>
</event>
<event>
12    1  0.7781383E-008  0.4728042E+03  0.7818608E-02  0.1021132E+00
          1   -1    0    0  501    0  0.00000000000E+00  0.00000000000E+00  0.29463868112E+03  0.29463868112E+03  0.00000000000E+00 0.  1.
         -1   -1    0    0    0  501 -0.00000000000E+00 -0.00000000000E+00 -0.84663424977E+03  0.84663424977E+03  0.00000000000E+00 0. -1.
         23    2    1    2    0    0 -0.12679832731E+02 -0.29706368478E+03 -0.99904050984E+02  0.33330050346E+03  0.11269780489E+03 0.  0.
    5000000    2    1    2    0    0  0.12679832731E+02  0.29706368478E+03 -0.45209151767E+03  0.80797242743E+03  0.60002090977E+03 0.  0.
         23    2    4    4    0    0  0.22200083239E+03 -0.58290046813E+02 -0.14260102120E+03  0.28394695540E+03  0.87227994901E+02 0.  0.
         23    2    4    4    0    0 -0.20932099966E+03  0.35535373160E+03 -0.30949049647E+03  0.52402547203E+03  0.93417195802E+02 0.  0.
          3    1    3    3  502    0  0.18747560691E+02 -0.18069077580E+03 -0.82083535442E+01  0.18184610130E+03  0.00000000000E+00 0. -1.
         -3    1    3    3    0  502 -0.31427393422E+02 -0.11637290898E+03 -0.91695697440E+02  0.15145440215E+03  0.00000000000E+00 0.  1.
         15    1    5    5    0    0  0.19876322626E+03 -0.54971262311E+02 -0.15438941203E+03  0.25761969659E+03  0.17770000000E+01 0. -1.
        -15    1    5    5    0    0  0.23237606128E+02 -0.33187845018E+01  0.11788390831E+02  0.26327258811E+02  0.17770000000E+01 0.  1.
          4    1    6    6  503    0 -0.19525204033E+03  0.31205225834E+03 -0.30542591184E+03  0.47831470687E+03  0.00000000000E+00 0. -1.
         -4    1    6    6    0  503 -0.14068959325E+02  0.43301473256E+02 -0.40645846288E+01  0.45710765152E+02  0.00000000000E+00 0.  1.
<mgrwt>
<rscale>  0 0.47280425E+03</rscale>
<asrwt>0</asrwt>
<pdfrwt beam="1">  1        1 0.45329028E-01 0.47280425E+03</pdfrwt>
<pdfrwt beam="2">  1       -1 0.13025142E+00 0.47280425E+03</pdfrwt>
<totfact> 0.47519022E+01</totfact>
</mgrwt>
</event>
<event>
12    1  0.7781383E-008  0.1100856E+04  0.7818608E-02  0.9204358E-01
          2   -1    0    0  501    0  0.00000000000E+00  0.00000000000E+00  0.97743186141E+03  0.97743186141E+03  0.00000000000E+00 0. -1.
         -2   -1    0    0    0  501 -0.00000000000E+00 -0.00000000000E+00 -0.22244964575E+04  0.22244964575E+04  0.00000000000E+00 0.  1.
         23    2    1    2    0    0  0.50462270265E+03 -0.94345941850E+03 -0.15986286549E+04  0.19258160308E+04  0.91619112408E+02 0.  0.
    5000000    2    1    2    0    0 -0.50462270265E+03  0.94345941850E+03  0.35156405884E+03  0.12761122881E+04  0.60008794188E+03 0.  0.
         23    2    4    4    0    0 -0.38077263092E+03  0.33892143143E+03 -0.70812575803E+02  0.52274158878E+03  0.91590472240E+02 0.  0.
         23    2    4    4    0    0 -0.12385007173E+03  0.60453798707E+03  0.42237663464E+03  0.75337069933E+03  0.91435064569E+02 0.  0.
          2    1    3    3  502    0  0.80075176648E+02 -0.17281433727E+03 -0.22799951834E+03  0.29708687188E+03  0.00000000000E+00 0. -1.
         -2    1    3    3    0  502  0.42454752600E+03 -0.77064508123E+03 -0.13706291366E+04  0.16287291589E+04  0.00000000000E+00 0.  1.
         15    1    5    5    0    0 -0.12459804126E+02  0.83028056510E+01 -0.20218806557E+02  0.25221839110E+02  0.17770000000E+01 0. -1.
        -15    1    5    5    0    0 -0.36831282679E+03  0.33061862578E+03 -0.50593769246E+02  0.49751974967E+03  0.17770000000E+01 0.  1.
          4    1    6    6  503    0 -0.13368281012E+03  0.57028756106E+03  0.38095861369E+03  0.69873346947E+03  0.00000000000E+00 0.  1.
         -4    1    6    6    0  503  0.98327383933E+01  0.34250426015E+02  0.41418020949E+02  0.54637229852E+02  0.00000000000E+00 0. -1.
<mgrwt>
<rscale>  0 0.11008564E+04</rscale>
<asrwt>0</asrwt>
<pdfrwt beam="1">  1        2 0.15037413E+00 0.11008564E+04</pdfrwt>
<pdfrwt beam="2">  1       -2 0.34223022E+00 0.11008564E+04</pdfrwt>
<totfact> 0.45148269E-01</totfact>
</mgrwt>
</event>
<event>
12    1  0.7781383E-008  0.2798473E+03  0.7818608E-02  0.1095772E+00
         -1   -1    0    0    0  501 -0.00000000000E+00  0.00000000000E+00  0.14158714027E+04  0.14158714027E+04  0.00000000000E+00 0.  1.
          1   -1    0    0  501    0  0.00000000000E+00 -0.00000000000E+00 -0.14124869244E+03  0.14124869244E+03  0.00000000000E+00 0. -1.
         23    2    1    2    0    0  0.21143704699E+03  0.10878780773E+02  0.52865676307E+03  0.57670805636E+03  0.91050735417E+02 0.  0.
    5000000    2    1    2    0    0 -0.21143704699E+03 -0.10878780773E+02  0.74596594722E+03  0.98041203881E+03  0.59993216176E+03 0.  0.
         23    2    4    4    0    0 -0.96741943460E+02  0.10138047794E+03 -0.39950498099E+02  0.17289509379E+03  0.93057327641E+02 0.  0.
         23    2    4    4    0    0 -0.11469510353E+03 -0.11225925871E+03  0.78591644532E+03  0.80751694501E+03  0.93069057813E+02 0.  0.
          1    1    3    3  502    0  0.92906722911E+02 -0.40409352694E+02  0.23281113184E+03  0.25390076419E+03  0.00000000000E+00 0. -1.
         -1    1    3    3    0  502  0.11853032408E+03  0.51288133467E+02  0.29584563124E+03  0.32280729218E+03  0.00000000000E+00 0.  1.
         15    1    5    5    0    0 -0.13830376881E+02  0.81714347180E+02 -0.22526468776E+02  0.85901765897E+02  0.17770000000E+01 0.  1.
        -15    1    5    5    0    0 -0.82911566579E+02  0.19666130759E+02 -0.17424029323E+02  0.86993327896E+02  0.17770000000E+01 0. -1.
          2    1    6    6  503    0 -0.30441618084E+02 -0.38848576977E+02  0.46676203467E+03  0.46936414547E+03  0.00000000000E+00 0. -1.
         -2    1    6    6    0  503 -0.84253485442E+02 -0.73410681735E+02  0.31915441065E+03  0.33815279955E+03  0.00000000000E+00 0.  1.
<mgrwt>
<rscale>  0 0.27984732E+03</rscale>
<asrwt>0</asrwt>
<pdfrwt beam="1">  1        1 0.21730569E-01 0.27984732E+03</pdfrwt>
<pdfrwt beam="2">  1       -1 0.21782636E+00 0.27984732E+03</pdfrwt>
<totfact> 0.29328957E+01</totfact>
</mgrwt>
</event>
<event>
12    1  0.7781383E-008  0.5241322E+03  0.7818608E-02  0.1007665E+00
         -1   -1    0    0    0  501 -0.00000000000E+00  0.00000000000E+00  0.22736005914E+03  0.22736005914E+03  0.00000000000E+00 0.  1.
          1   -1    0    0  501    0  0.00000000000E+00 -0.00000000000E+00 -0.12852000557E+04  0.12852000557E+04  0.00000000000E+00 0. -1.
         23    2    1    2    0    0 -0.22191754655E+03  0.28954764144E+03 -0.31861269871E+03  0.49280289586E+03  0.90859277228E+02 0.  0.
    5000000    2    1    2    0    0  0.22191754655E+03 -0.28954764144E+03 -0.73922729785E+03  0.10197572190E+04  0.60030205199E+03 0.  0.
         23    2    4    4    0    0 -0.14351413541E+03 -0.26178379898E+03 -0.43470794191E+03  0.53504116047E+03  0.90393496275E+02 0.  0.
         23    2    4    4    0    0  0.36543168195E+03 -0.27763842469E+02 -0.30451935594E+03  0.48471605850E+03  0.88918356388E+02 0.  0.
          3    1    3    3  502    0 -0.71765742668E+02  0.36724223996E+02 -0.85945003336E+02  0.11783689595E+03  0.00000000000E+00 0. -1.
         -3    1    3    3    0  502 -0.15015180388E+03  0.25282341745E+03 -0.23266769537E+03  0.37496599991E+03  0.00000000000E+00 0.  1.
         15    1    5    5    0    0  0.59455097587E+01 -0.23178968648E+02 -0.71905487600E+02  0.75803499589E+02  0.17770000000E+01 0.  1.
        -15    1    5    5    0    0 -0.14945964517E+03 -0.23860483033E+03 -0.36280245431E+03  0.45923766088E+03  0.17770000000E+01 0. -1.
          1    1    6    6  503    0  0.33096224140E+03 -0.15037324738E+02 -0.30131759980E+03  0.44783302950E+03  0.00000000000E+00 0. -1.
         -1    1    6    6    0  503  0.34469440559E+02 -0.12726517731E+02 -0.32017561462E+01  0.36883029002E+02  0.00000000000E+00 0.  1.
<mgrwt>
<rscale>  0 0.52413223E+03</rscale>
<asrwt>0</asrwt>
<pdfrwt beam="1">  1        1 0.19772309E+00 0.52413223E+03</pdfrwt>
<pdfrwt beam="2">  1       -1 0.34978470E-01 0.52413223E+03</pdfrwt>
<totfact> 0.75578528E+01</totfact>
</mgrwt>
</event>
<event>
12    1  0.7781383E-008  0.1235138E+04  0.7818608E-02  0.9082645E-01
          2   -1    0    0  501    0  0.00000000000E+00  0.00000000000E+00  0.21448000002E+04  0.21448000002E+04  0.00000000000E+00 0. -1.
         -2   -1    0    0    0  501 -0.00000000000E+00 -0.00000000000E+00 -0.79302764550E+03  0.79302764550E+03  0.00000000000E+00 0.  1.
         23    2    1    2    0    0 -0.10157659280E+04  0.63274583569E+03  0.97734827949E+03  0.15477363888E+04  0.90169598676E+02 0.  0.
    5000000    2    1    2    0    0  0.10157659280E+04 -0.63274583569E+03  0.37442407518E+03  0.13900912569E+04  0.60001050101E+03 0.  0.
         23    2    4    4    0    0  0.57081302079E+03 -0.58475070640E+03  0.43507352672E+03  0.92961235850E+03  0.84435005024E+02 0.  0.
         23    2    4    4    0    0  0.44495290725E+03 -0.47995129297E+02 -0.60649451541E+02  0.46047889842E+03  0.89865665375E+02 0.  0.
          1    1    3    3  502    0 -0.92200342936E+03  0.58658775171E+03  0.86003862833E+03  0.13906264619E+04  0.00000000000E+00 0. -1.
         -1    1    3    3    0  502 -0.93762498676E+02  0.46158083986E+02  0.11730965117E+03  0.15710992691E+03  0.00000000000E+00 0.  1.
         15    1    5    5    0    0  0.99697873913E+02 -0.11442708570E+03  0.11803487236E+03  0.19227223623E+03  0.17770000000E+01 0.  1.
        -15    1    5    5    0    0  0.47111514688E+03 -0.47032362070E+03  0.31703865436E+03  0.73734012226E+03  0.17770000000E+01 0. -1.
          1    1    6    6  503    0  0.30879521071E+03 -0.72423441003E+02 -0.28441020884E+02  0.31844705782E+03  0.00000000000E+00 0. -1.
         -1    1    6    6    0  503  0.13615769654E+03  0.24428311706E+02 -0.32208430657E+02  0.14203184060E+03  0.00000000000E+00 0.  1.
<mgrwt>
<rscale>  0 0.12351378E+04</rscale>
<asrwt>0</asrwt>
<pdfrwt beam="1">  1        2 0.32996923E+00 0.12351378E+04</pdfrwt>
<pdfrwt beam="2">  1       -2 0.12200425E+00 0.12351378E+04</pdfrwt>
<totfact> 0.27504646E+00</totfact>
</mgrwt>
</event>
<event>
12    1  0.7781383E-008  0.1150373E+04  0.7818608E-02  0.9157439E-01
         -1   -1    0    0    0  501 -0.00000000000E+00  0.00000000000E+00  0.10412498043E+04  0.10412498043E+04  0.00000000000E+00 0.  1.
          1   -1    0    0  501    0  0.00000000000E+00 -0.00000000000E+00 -0.15872467149E+04  0.15872467149E+04  0.00000000000E+00 0. -1.
         23    2    1    2    0    0 -0.30646085653E+03 -0.10328092780E+04  0.31331813411E+03  0.11255149815E+04  0.89456465283E+02 0.  0.
    5000000    2    1    2    0    0  0.30646085653E+03  0.10328092780E+04 -0.85931504476E+03  0.15029815377E+04  0.59993157533E+03 0.  0.
         23    2    4    4    0    0  0.15063978534E+03  0.10369749231E+04 -0.71741948792E+03  0.12731721413E+04  0.90924384238E+02 0.  0.
         23    2    4    4    0    0  0.15582107118E+03 -0.41656451253E+01 -0.14189555684E+03  0.22980939634E+03  0.91544801995E+02 0.  0.
          4    1    3    3  502    0 -0.59042203206E+02 -0.33691141562E+03  0.11357735100E+03  0.36040962584E+03  0.00000000000E+00 0. -1.
         -4    1    3    3    0  502 -0.24741865332E+03 -0.69589786238E+03  0.19974078312E+03  0.76510535570E+03  0.00000000000E+00 0.  1.
         15    1    5    5    0    0  0.12722082282E+03  0.79780051353E+03 -0.50737004989E+03  0.95399073497E+03  0.17770000000E+01 0. -1.
        -15    1    5    5    0    0  0.23418962520E+02  0.23917440959E+03 -0.21004943803E+03  0.31918140634E+03  0.17770000000E+01 0.  1.
          4    1    6    6  503    0  0.15052776773E+03  0.15716754624E+02 -0.14427732631E+03  0.20909703996E+03  0.00000000000E+00 0. -1.
         -4    1    6    6    0  503  0.52933034549E+01 -0.19882399749E+02  0.23817694649E+01  0.20712356385E+02  0.00000000000E+00 0.  1.
<mgrwt>
<rscale>  0 0.11503734E+04</rscale>
<asrwt>0</asrwt>
<pdfrwt beam="1">  1        1 0.24419180E+00 0.11503734E+04</pdfrwt>
<pdfrwt beam="2">  1       -1 0.16019228E+00 0.11503734E+04</pdfrwt>
<totfact> 0.16362854E+00</totfact>
</mgrwt>
</event>
<event>
12    1  0.7781383E-008  0.5810282E+03  0.7818608E-02  0.9945568E-01
          2   -1    0    0  501    0  0.00000000000E+00  0.00000000000E+00  0.20938483952E+04  0.20938483952E+04  0.00000000000E+00 0. -1.
         -2   -1    0    0    0  501 -0.00000000000E+00 -0.00000000000E+00 -0.26498021185E+03  0.26498021185E+03  0.00000000000E+00 0.  1.
         23    2    1    2    0    0  0.62169235820E+02  0.55656511800E+03  0.11875657902E+04  0.13161655514E+04  0.91375643606E+02 0.  0.
    5000000    2    1    2    0    0 -0.62169235820E+02 -0.55656511800E+03  0.64130239315E+03  0.10426630556E+04  0.60187020499E+03 0.  0.
         23    2    4    4    0    0  0.51467272079E+02 -0.36691855823E+03  0.69889262972E+03  0.79593566972E+03  0.88230232875E+02 0.  0.
         23    2    4    4    0    0 -0.11363650790E+03 -0.18964655977E+03 -0.57590236565E+02  0.24672738591E+03  0.93159508629E+02 0.  0.
          1    1    3    3  502    0  0.30620678909E+02  0.15609019437E+03  0.25202546402E+03  0.29802451119E+03  0.00000000000E+00 0. -1.
         -1    1    3    3    0  502  0.31548556911E+02  0.40047492363E+03  0.93554032617E+03  0.10181410402E+04  0.00000000000E+00 0.  1.
         15    1    5    5    0    0  0.38823003156E+02 -0.35678591329E+03  0.62919135376E+03  0.72435373325E+03  0.17770000000E+01 0.  1.
        -15    1    5    5    0    0  0.12644268923E+02 -0.10132644939E+02  0.69701275957E+02  0.71581936472E+02  0.17770000000E+01 0. -1.
          3    1    6    6  503    0 -0.96332567865E+01 -0.55539905496E+02 -0.52363191091E+02  0.76937536483E+02  0.00000000000E+00 0. -1.
         -3    1    6    6    0  503 -0.10400325111E+03 -0.13410665428E+03 -0.52270454742E+01  0.16978984942E+03  0.00000000000E+00 0.  1.
<mgrwt>
<rscale>  0 0.58102815E+03</rscale>
<asrwt>0</asrwt>
<pdfrwt beam="1">  1        2 0.32213051E+00 0.58102815E+03</pdfrwt>
<pdfrwt beam="2">  1       -2 0.40766188E-01 0.58102815E+03</pdfrwt>
<totfact> 0.35766122E+01</totfact>
</mgrwt>
</event>
<event>
12    1  0.7781383E-008  0.5097706E+03  0.7818608E-02  0.1011260E+00
          1   -1    0    0  501    0  0.00000000000E+00  0.00000000000E+00  0.18319158022E+04  0.18319158022E+04  0.00000000000E+00 0. -1.
         -1   -1    0    0    0  501 -0.00000000000E+00 -0.00000000000E+00 -0.20605242774E+03  0.20605242774E+03  0.00000000000E+00 0.  1.
         23    2    1    2    0    0 -0.21479268970E+03 -0.26111509467E+03  0.11465348623E+04  0.11988591729E+04  0.91674062616E+02 0.  0.
    5000000    2    1    2    0    0  0.21479268970E+03  0.26111509467E+03  0.47932851221E+03  0.83910905709E+03  0.60002599515E+03 0.  0.
         23    2    4    4    0    0  0.31429863179E+03  0.38295403954E+03  0.38709784270E+03  0.63515138768E+03  0.90194895125E+02 0.  0.
         23    2    4    4    0    0 -0.99505942087E+02 -0.12183894487E+03  0.92230669506E+02  0.20395766940E+03  0.91356847099E+02 0.  0.
          3    1    3    3  502    0 -0.28329186115E+02 -0.94266739636E+02  0.27337696808E+03  0.29055761505E+03  0.00000000000E+00 0. -1.
         -3    1    3    3    0  502 -0.18646350358E+03 -0.16684835504E+03  0.87315789419E+03  0.90830155781E+03  0.00000000000E+00 0.  1.
         15    1    5    5    0    0  0.25166866145E+03  0.31248146457E+03  0.35442950305E+03  0.53535521966E+03  0.17770000000E+01 0. -1.
        -15    1    5    5    0    0  0.62629970338E+02  0.70472574971E+02  0.32668339653E+02  0.99796168024E+02  0.17770000000E+01 0.  1.
          1    1    6    6  503    0 -0.11132442365E+03 -0.11950229679E+03  0.68029097999E+02  0.17692338572E+03  0.00000000000E+00 0. -1.
         -1    1    6    6    0  503  0.11818481567E+02 -0.23366480835E+01  0.24201571507E+02  0.27034283683E+02  0.00000000000E+00 0.  1.
<mgrwt>
<rscale>  0 0.50977061E+03</rscale>
<asrwt>0</asrwt>
<pdfrwt beam="1">  1        1 0.28183319E+00 0.50977061E+03</pdfrwt>
<pdfrwt beam="2">  1       -1 0.31700375E-01 0.50977061E+03</pdfrwt>
<totfact> 0.38436031E+01</totfact>
</mgrwt>
</event>
<event>
12    1  0.7781383E-008  0.1188162E+04  0.7818608E-02  0.9123282E-01
          2   -1    0    0  501    0  0.00000000000E+00  0.00000000000E+00  0.23005103370E+04  0.23005103370E+04  0.00000000000E+00 0. -1.
         -2   -1    0    0    0  501 -0.00000000000E+00 -0.00000000000E+00 -0.86961312152E+03  0.86961312152E+03  0.00000000000E+00 0.  1.
         23    2    1    2    0    0 -0.53335939253E+03 -0.98585757329E+03 -0.15821800933E+03  0.11348016604E+04  0.79714952475E+02 0.  0.
    5000000    2    1    2    0    0  0.53335939253E+03  0.98585757329E+03  0.15891152248E+04  0.20353217981E+04  0.60071642862E+03 0.  0.
         23    2    4    4    0    0  0.54197797156E+03  0.43493104637E+03  0.73447762896E+03  0.10152961826E+04  0.91998990394E+02 0.  0.
         23    2    4    4    0    0 -0.86185790289E+01  0.55092652692E+03  0.85463759586E+03  0.10200256155E+04  0.80327566902E+02 0.  0.
          2    1    3    3  502    0 -0.26049643720E+03 -0.53773696988E+03 -0.11394612791E+03  0.60827885269E+03  0.00000000000E+00 0. -1.
         -2    1    3    3    0  502 -0.27286295533E+03 -0.44812060342E+03 -0.44271881417E+02  0.52652280775E+03  0.00000000000E+00 0.  1.
         15    1    5    5    0    0  0.30961877419E+03  0.19334988724E+03  0.40626091521E+03  0.54616760540E+03  0.17770000000E+01 0.  1.
        -15    1    5    5    0    0  0.23235919737E+03  0.24158115913E+03  0.32821671375E+03  0.46912857722E+03  0.17770000000E+01 0. -1.
          4    1    6    6  503    0  0.18280640784E+02  0.73443063819E+02  0.84112565581E+02  0.11315029447E+03  0.00000000000E+00 0. -1.
         -4    1    6    6    0  503 -0.26899219813E+02  0.47748346310E+03  0.77052503028E+03  0.90687532100E+03  0.00000000000E+00 0.  1.
<mgrwt>
<rscale>  0 0.11881621E+04</rscale>
<asrwt>0</asrwt>
<pdfrwt beam="1">  1        2 0.35392467E+00 0.11881621E+04</pdfrwt>
<pdfrwt beam="2">  1       -2 0.13378663E+00 0.11881621E+04</pdfrwt>
<totfact> 0.17897345E+00</totfact>
</mgrwt>
</event>
<event>
12    1  0.7781383E-008  0.1615516E+04  0.7818608E-02  0.8811072E-01
          1   -1    0    0  501    0  0.00000000000E+00  0.00000000000E+00  0.19865271182E+04  0.19865271182E+04  0.00000000000E+00 0. -1.
         -1   -1    0    0    0  501 -0.00000000000E+00 -0.00000000000E+00 -0.17193628696E+04  0.17193628696E+04  0.00000000000E+00 0.  1.
         23    2    1    2    0    0  0.97097690299E+03  0.12283641355E+04  0.10165647991E+04  0.18690652879E+04  0.91249459960E+02 0.  0.
    5000000    2    1    2    0    0 -0.97097690299E+03 -0.12283641355E+04 -0.74940055049E+03  0.18368246999E+04  0.60054075412E+03 0.  0.
         23    2    4    4    0    0 -0.18614286539E+03  0.15060050750E+00 -0.27544139200E+02  0.20770288917E+03  0.87935325962E+02 0.  0.
         23    2    4    4    0    0 -0.78483403760E+03 -0.12285147360E+04 -0.72185641129E+03  0.16291218107E+04  0.88024271086E+02 0.  0.
          1    1    3    3  502    0  0.88438610576E+03  0.10935020446E+04  0.93881112099E+03  0.16909322359E+04  0.00000000000E+00 0. -1.
         -1    1    3    3    0  502  0.86590797222E+02  0.13486209093E+03  0.77753678147E+02  0.17813305195E+03  0.00000000000E+00 0.  1.
         15    1    5    5    0    0 -0.17040320258E+03 -0.27088218124E+02 -0.33125721752E+02  0.17570285763E+03  0.17770000000E+01 0.  1.
        -15    1    5    5    0    0 -0.15739662806E+02  0.27238818631E+02  0.55815825520E+01  0.32000031538E+02  0.17770000000E+01 0. -1.
          3    1    6    6  503    0 -0.46958467119E+03 -0.65587156758E+03 -0.38764281956E+03  0.89495487715E+03  0.00000000000E+00 0. -1.
         -3    1    6    6    0  503 -0.31524936641E+03 -0.57264316847E+03 -0.33421359173E+03  0.73416693355E+03  0.00000000000E+00 0.  1.
<mgrwt>
<rscale>  0 0.16155159E+04</rscale>
<asrwt>0</asrwt>
<pdfrwt beam="1">  1        1 0.30561956E+00 0.16155159E+04</pdfrwt>
<pdfrwt beam="2">  1       -1 0.26451736E+00 0.16155159E+04</pdfrwt>
<totfact> 0.15881563E-01</totfact>
</mgrwt>
</event>
<event>
12    1  0.7781383E-008  0.9955430E+03  0.7818608E-02  0.9313447E-01
         -1   -1    0    0    0  501 -0.00000000000E+00  0.00000000000E+00  0.10204293586E+04  0.10204293586E+04  0.00000000000E+00 0.  1.
          1   -1    0    0  501    0  0.00000000000E+00 -0.00000000000E+00 -0.99865801232E+03  0.99865801232E+03  0.00000000000E+00 0. -1.
         23    2    1    2    0    0 -0.89396066745E+03  0.18368259841E+03  0.10751143745E+03  0.92354485227E+03  0.92040279584E+02 0.  0.
    5000000    2    1    2    0    0  0.89396066745E+03 -0.18368259841E+03 -0.85740091146E+02  0.10955425187E+04  0.59996422817E+03 0.  0.
         23    2    4    4    0    0  0.69990681371E+03  0.11763561413E+03 -0.12034799020E+03  0.72419130674E+03  0.79131058540E+02 0.  0.
         23    2    4    4    0    0  0.19405385374E+03 -0.30131821254E+03  0.34607899053E+02  0.37135121193E+03  0.90854017885E+02 0.  0.
          2    1    3    3  502    0 -0.30283106327E+03  0.69726704081E+02 -0.65383885139E+01  0.31082344935E+03  0.00000000000E+00 0. -1.
         -2    1    3    3    0  502 -0.59112960418E+03  0.11395589433E+03  0.11404982597E+03  0.61272140291E+03  0.00000000000E+00 0.  1.
         15    1    5    5    0    0  0.34029448391E+03  0.17156998662E+02 -0.57362995164E+02  0.34552622090E+03  0.17770000000E+01 0. -1.
        -15    1    5    5    0    0  0.35961232979E+03  0.10047861547E+03 -0.62984995035E+02  0.37866508584E+03  0.17770000000E+01 0.  1.
          4    1    6    6  503    0  0.16422845597E+02 -0.73500439694E+02 -0.18677838903E+02  0.77594369375E+02  0.00000000000E+00 0. -1.
         -4    1    6    6    0  503  0.17763100814E+03 -0.22781777285E+03  0.53285737956E+02  0.29375684256E+03  0.00000000000E+00 0.  1.
<mgrwt>
<rscale>  0 0.99554296E+03</rscale>
<asrwt>0</asrwt>
<pdfrwt beam="1">  1        1 0.15363969E+00 0.99554296E+03</pdfrwt>
<pdfrwt beam="2">  1       -1 0.15698913E+00 0.99554296E+03</pdfrwt>
<totfact> 0.46881748E+00</totfact>
</mgrwt>
</event>
<event>
12    1  0.7781383E-008  0.1105520E+04  0.7818608E-02  0.9199828E-01
         -1   -1    0    0    0  501 -0.00000000000E+00  0.00000000000E+00  0.61872939101E+03  0.61872939101E+03  0.00000000000E+00 0.  1.
          1   -1    0    0  501    0  0.00000000000E+00 -0.00000000000E+00 -0.25861678670E+04  0.25861678670E+04  0.00000000000E+00 0. -1.
         23    2    1    2    0    0 -0.71469849400E+03 -0.74146449731E+03 -0.17029534474E+03  0.10484300701E+04  0.98191493496E+02 0.  0.
    5000000    2    1    2    0    0  0.71469849400E+03  0.74146449731E+03 -0.17971431313E+04  0.21564671879E+04  0.60005313109E+03 0.  0.
         23    2    4    4    0    0  0.16965580562E+03  0.58106035935E+03 -0.83830281661E+03  0.10381743870E+04  0.92952740146E+02 0.  0.
         23    2    4    4    0    0  0.54504268838E+03  0.16040413796E+03 -0.95884031464E+03  0.11182928009E+04  0.91667987306E+02 0.  0.
          3    1    3    3  502    0 -0.29760418791E+03 -0.29270514607E+03 -0.11668813063E+03  0.43342897345E+03  0.00000000000E+00 0. -1.
         -3    1    3    3    0  502 -0.41709430609E+03 -0.44875935124E+03 -0.53607214106E+02  0.61500109667E+03  0.00000000000E+00 0.  1.
         15    1    5    5    0    0  0.25179597449E+02  0.14015100314E+03 -0.13938244546E+03  0.19926600222E+03  0.17770000000E+01 0.  1.
        -15    1    5    5    0    0  0.14447620817E+03  0.44090935621E+03 -0.69892037115E+03  0.83890838478E+03  0.17770000000E+01 0. -1.
          2    1    6    6  503    0  0.47348988581E+03  0.16845632588E+03 -0.85865509893E+03  0.99491647117E+03  0.00000000000E+00 0. -1.
         -2    1    6    6    0  503  0.71552802568E+02 -0.80521879205E+01 -0.10018521572E+03  0.12337632972E+03  0.00000000000E+00 0.  1.
<mgrwt>
<rscale>  0 0.11055203E+04</rscale>
<asrwt>0</asrwt>
<pdfrwt beam="1">  1        1 0.39787198E+00 0.11055203E+04</pdfrwt>
<pdfrwt beam="2">  1       -1 0.95189138E-01 0.11055203E+04</pdfrwt>
<totfact> 0.12630175E+00</totfact>
</mgrwt>
</event>
<event>
12    1  0.7781383E-008  0.1245965E+04  0.7818608E-02  0.9073549E-01
         -1   -1    0    0    0  501 -0.00000000000E+00  0.00000000000E+00  0.72768208949E+03  0.72768208949E+03  0.00000000000E+00 0.  1.
          1   -1    0    0  501    0  0.00000000000E+00 -0.00000000000E+00 -0.24324875985E+04  0.24324875985E+04  0.00000000000E+00 0. -1.
         23    2    1    2    0    0  0.11609400412E+04 -0.26951034599E+03 -0.12997256783E+04  0.17657045652E+04  0.89488361657E+02 0.  0.
    5000000    2    1    2    0    0 -0.11609400412E+04  0.26951034599E+03 -0.40507983076E+03  0.13944651228E+04  0.60002141932E+03 0.  0.
         23    2    4    4    0    0 -0.18614149623E+03  0.25894594052E+03 -0.21991789238E+03  0.39805154033E+03  0.91539568658E+02 0.  0.
         23    2    4    4    0    0 -0.97479854496E+03  0.10564405467E+02 -0.18516193837E+03  0.99641358250E+03  0.90616080528E+02 0.  0.
          4    1    3    3  502    0  0.15358062124E+03 -0.80113570519E+01 -0.18706829822E+03  0.24216881975E+03  0.00000000000E+00 0. -1.
         -4    1    3    3    0  502  0.10073594200E+04 -0.26149898894E+03 -0.11126573800E+04  0.15235357454E+04  0.00000000000E+00 0.  1.
         15    1    5    5    0    0 -0.24722208668E+02  0.45833125423E+02 -0.37043478134E+00  0.52107177417E+02  0.17770000000E+01 0. -1.
        -15    1    5    5    0    0 -0.16141928757E+03  0.21311281510E+03 -0.21954745760E+03  0.34594436291E+03  0.17770000000E+01 0.  1.
          4    1    6    6  503    0 -0.24436684401E+03 -0.30985597032E+02 -0.26032233538E+02  0.24769525401E+03  0.00000000000E+00 0. -1.
         -4    1    6    6    0  503 -0.73043170095E+03  0.41550002499E+02 -0.15912970483E+03  0.74871832849E+03  0.00000000000E+00 0.  1.
<mgrwt>
<rscale>  0 0.12459646E+04</rscale>
<asrwt>0</asrwt>
<pdfrwt beam="1">  1        1 0.37422886E+00 0.12459646E+04</pdfrwt>
<pdfrwt beam="2">  1       -1 0.11195109E+00 0.12459646E+04</pdfrwt>
<totfact> 0.10852976E+00</totfact>
</mgrwt>
</event>
<event>
12    1  0.7781383E-008  0.1208006E+04  0.7818608E-02  0.9105878E-01
          2   -1    0    0  501    0  0.00000000000E+00  0.00000000000E+00  0.40380913718E+04  0.40380913718E+04  0.00000000000E+00 0. -1.
         -2   -1    0    0    0  501 -0.00000000000E+00 -0.00000000000E+00 -0.40028042314E+03  0.40028042314E+03  0.00000000000E+00 0.  1.
         23    2    1    2    0    0  0.11738190712E+04 -0.16130354909E+02  0.12969055617E+04  0.17517303611E+04  0.92107663367E+02 0.  0.
    5000000    2    1    2    0    0 -0.11738190712E+04  0.16130354909E+02  0.23409053869E+04  0.26866414338E+04  0.60007729756E+03 0.  0.
         23    2    4    4    0    0 -0.58307913156E+02  0.60822777897E+02  0.47106110600E+02  0.13399614427E+03  0.92934159361E+02 0.  0.
         23    2    4    4    0    0 -0.11155111581E+04 -0.44692422987E+02  0.22937992763E+04  0.25526452895E+04  0.90112694567E+02 0.  0.
          2    1    3    3  502    0  0.65519448060E+03 -0.66074411665E+01  0.79135560314E+03  0.10274079795E+04  0.00000000000E+00 0.  1.
         -2    1    3    3    0  502  0.51862459062E+03 -0.95229137430E+01  0.50554995860E+03  0.72432238162E+03  0.00000000000E+00 0. -1.
         15    1    5    5    0    0  0.24470687251E+02  0.56048474607E+01  0.37661101746E+01  0.25447399954E+02  0.17770000000E+01 0.  1.
        -15    1    5    5    0    0 -0.82778600407E+02  0.55217930436E+02  0.43340000425E+02  0.10854874432E+03  0.17770000000E+01 0. -1.
          3    1    6    6  503    0 -0.45146464657E+03  0.48551327283E+01  0.10140606538E+04  0.11100283370E+04  0.00000000000E+00 0. -1.
         -3    1    6    6    0  503 -0.66404651150E+03 -0.49547555716E+02  0.12797386225E+04  0.14426169525E+04  0.00000000000E+00 0.  1.
<mgrwt>
<rscale>  0 0.12080057E+04</rscale>
<asrwt>0</asrwt>
<pdfrwt beam="1">  1        2 0.62124480E+00 0.12080057E+04</pdfrwt>
<pdfrwt beam="2">  1       -2 0.61581606E-01 0.12080057E+04</pdfrwt>
<totfact> 0.79570016E-01</totfact>
</mgrwt>
</event>
<event>
12    1  0.7781383E-008  0.4786520E+03  0.7818608E-02  0.1019506E+00
         -2   -1    0    0    0  501 -0.00000000000E+00  0.00000000000E+00  0.28177832315E+03  0.28177832315E+03  0.00000000000E+00 0.  1.
          2   -1    0    0  501    0  0.00000000000E+00 -0.00000000000E+00 -0.10558440173E+04  0.10558440173E+04  0.00000000000E+00 0. -1.
         23    2    1    2    0    0  0.11579820709E+03 -0.33453866650E+03 -0.41741195394E+03  0.55496829295E+03  0.91824412524E+02 0.  0.
    5000000    2    1    2    0    0 -0.11579820709E+03  0.33453866650E+03 -0.35665374023E+03  0.78265404752E+03  0.60001676937E+03 0.  0.
         23    2    4    4    0    0 -0.19693368068E+03  0.42030015324E+03 -0.40782119571E+03  0.62471399261E+03  0.92273243632E+02 0.  0.
         23    2    4    4    0    0  0.81135473588E+02 -0.85761486733E+02  0.51167455482E+02  0.15794005491E+03  0.91591237380E+02 0.  0.
          2    1    3    3  502    0  0.32728786185E+02 -0.22653588336E+03 -0.24629005286E+03  0.33622681338E+03  0.00000000000E+00 0. -1.
         -2    1    3    3    0  502  0.83069420907E+02 -0.10800278314E+03 -0.17112190108E+03  0.21874147957E+03  0.00000000000E+00 0.  1.
         15    1    5    5    0    0 -0.19972396849E+02  0.13850972266E+03 -0.13438433418E+03  0.19402615007E+03  0.17770000000E+01 0.  1.
        -15    1    5    5    0    0 -0.17696128383E+03  0.28179043058E+03 -0.27343686153E+03  0.43068784254E+03  0.17770000000E+01 0. -1.
          3    1    6    6  503    0  0.28098803562E+02 -0.17852731585E+02  0.62716180373E+02  0.71004098947E+02  0.00000000000E+00 0. -1.
         -3    1    6    6    0  503  0.53036670026E+02 -0.67908755149E+02 -0.11548724892E+02  0.86935955967E+02  0.00000000000E+00 0.  1.
<mgrwt>
<rscale>  0 0.47865202E+03</rscale>
<asrwt>0</asrwt>
<pdfrwt beam="1">  1        2 0.16243754E+00 0.47865202E+03</pdfrwt>
<pdfrwt beam="2">  1       -2 0.43350511E-01 0.47865202E+03</pdfrwt>
<totfact> 0.12154631E+02</totfact>
</mgrwt>
</event>
<event>
12    1  0.7781383E-008  0.1344629E+04  0.7818608E-02  0.8994904E-01
          2   -1    0    0  501    0  0.00000000000E+00  0.00000000000E+00  0.28476855826E+04  0.28476855826E+04  0.00000000000E+00 0. -1.
         -2   -1    0    0    0  501 -0.00000000000E+00 -0.00000000000E+00 -0.65711147174E+03  0.65711147174E+03  0.00000000000E+00 0.  1.
         23    2    1    2    0    0 -0.88341305238E+03  0.94094663144E+03  0.83901386151E+03  0.15420205883E+04  0.89911347916E+02 0.  0.
    5000000    2    1    2    0    0  0.88341305238E+03 -0.94094663144E+03  0.13515602493E+04  0.19627764661E+04  0.59998096957E+03 0.  0.
         23    2    4    4    0    0  0.94631892944E+03 -0.84983810810E+03  0.12548334202E+04  0.17890340382E+04  0.91057953576E+02 0.  0.
         23    2    4    4    0    0 -0.62905877058E+02 -0.91108523337E+02  0.96726829099E+02  0.17374242792E+03  0.92587468913E+02 0.  0.
          3    1    3    3  502    0 -0.47372965740E+03  0.52057392799E+03  0.50905883065E+03  0.86865292026E+03  0.00000000000E+00 0. -1.
         -3    1    3    3    0  502 -0.40968339497E+03  0.42037270345E+03  0.32995503086E+03  0.67336766800E+03  0.00000000000E+00 0.  1.
         15    1    5    5    0    0  0.45482381204E+03 -0.34801902296E+03  0.57080624832E+03  0.80858201266E+03  0.17770000000E+01 0.  1.
        -15    1    5    5    0    0  0.49149511739E+03 -0.50181908514E+03  0.68402717192E+03  0.98045202549E+03  0.17770000000E+01 0. -1.
          4    1    6    6  503    0 -0.51818206341E+02 -0.27380873955E+02  0.91743757952E+02  0.10886577006E+03  0.00000000000E+00 0. -1.
         -4    1    6    6    0  503 -0.11087670717E+02 -0.63727649382E+02  0.49830711465E+01  0.64876657865E+02  0.00000000000E+00 0.  1.
<mgrwt>
<rscale>  0 0.13446287E+04</rscale>
<asrwt>0</asrwt>
<pdfrwt beam="1">  1        2 0.43810547E+00 0.13446287E+04</pdfrwt>
<pdfrwt beam="2">  1       -2 0.10109407E+00 0.13446287E+04</pdfrwt>
<totfact> 0.16906914E+00</totfact>
</mgrwt>
</event>
<event>
12    1  0.7781383E-008  0.3126935E+03  0.7818608E-02  0.1079062E+00
         -2   -1    0    0    0  501 -0.00000000000E+00  0.00000000000E+00  0.30940295043E+03  0.30940295043E+03  0.00000000000E+00 0.  1.
          2   -1    0    0  501    0  0.00000000000E+00 -0.00000000000E+00 -0.76024271153E+03  0.76024271153E+03  0.00000000000E+00 0. -1.
         23    2    1    2    0    0 -0.91816471010E+02  0.24096659882E+03 -0.28560933633E+03  0.39591190296E+03  0.93157800577E+02 0.  0.
    5000000    2    1    2    0    0  0.91816471010E+02 -0.24096659882E+03 -0.16523042477E+03  0.67373375901E+03  0.60010075709E+03 0.  0.
         23    2    4    4    0    0 -0.44163396220E+02 -0.18976517579E+03  0.18665053939E+03  0.28448114425E+03  0.90165792134E+02 0.  0.
         23    2    4    4    0    0  0.13597986723E+03 -0.51201423033E+02 -0.35188096416E+03  0.38925261476E+03  0.81149708197E+02 0.  0.
          1    1    3    3  502    0 -0.83639409805E+02  0.13222120140E+03 -0.11806637317E+03  0.19600424854E+03  0.00000000000E+00 0. -1.
         -1    1    3    3    0  502 -0.81770612052E+01  0.10874539742E+03 -0.16754296316E+03  0.19990765442E+03  0.00000000000E+00 0.  1.
         15    1    5    5    0    0 -0.59195678543E+02 -0.63164280199E+02  0.86024478988E+02  0.12205418209E+03  0.17770000000E+01 0.  1.
        -15    1    5    5    0    0  0.15032282322E+02 -0.12660089559E+03  0.10062606041E+03  0.16242696216E+03  0.17770000000E+01 0. -1.
          2    1    6    6  503    0  0.11311339543E+03 -0.47256459537E+02 -0.19269170128E+03  0.22838105205E+03  0.00000000000E+00 0. -1.
         -2    1    6    6    0  503  0.22866471801E+02 -0.39449634954E+01 -0.15918926288E+03  0.16087156270E+03  0.00000000000E+00 0.  1.
<mgrwt>
<rscale>  0 0.31269350E+03</rscale>
<asrwt>0</asrwt>
<pdfrwt beam="1">  1        2 0.11696042E+00 0.31269350E+03</pdfrwt>
<pdfrwt beam="2">  1       -2 0.47600454E-01 0.31269350E+03</pdfrwt>
<totfact> 0.16129321E+02</totfact>
</mgrwt>
</event>
<event>
12    1  0.7781383E-008  0.7485419E+03  0.7818608E-02  0.9637641E-01
         -1   -1    0    0    0  501 -0.00000000000E+00  0.00000000000E+00  0.27172708665E+03  0.27172708665E+03  0.00000000000E+00 0.  1.
          1   -1    0    0  501    0  0.00000000000E+00 -0.00000000000E+00 -0.28077848645E+04  0.28077848645E+04  0.00000000000E+00 0. -1.
         23    2    1    2    0    0  0.48558034822E+03  0.53211069831E+03 -0.15885577938E+04  0.17465847187E+04  0.90068004181E+02 0.  0.
    5000000    2    1    2    0    0 -0.48558034822E+03 -0.53211069831E+03 -0.94749998403E+03  0.13329272325E+04  0.60000726456E+03 0.  0.
         23    2    4    4    0    0 -0.44340219241E+03 -0.34705332164E+03 -0.28183489683E+03  0.63498465262E+03  0.81994437012E+02 0.  0.
         23    2    4    4    0    0 -0.42178155808E+02 -0.18505737667E+03 -0.66566508720E+03  0.69794257986E+03  0.89379007491E+02 0.  0.
          4    1    3    3  502    0  0.23116708229E+03  0.25047416059E+03 -0.86037015671E+03  0.92542548679E+03  0.00000000000E+00 0. -1.
         -4    1    3    3    0  502  0.25441326593E+03  0.28163653772E+03 -0.72818763710E+03  0.82115923187E+03  0.00000000000E+00 0.  1.
         15    1    5    5    0    0 -0.31282649518E+03 -0.19753556223E+03 -0.19624931749E+03  0.41880504626E+03  0.17770000000E+01 0.  1.
        -15    1    5    5    0    0 -0.13057569723E+03 -0.14951775941E+03 -0.85585579347E+02  0.21617960636E+03  0.17770000000E+01 0. -1.
          4    1    6    6  503    0 -0.67169791259E+02 -0.10782267069E+03 -0.36326829230E+03  0.38483939684E+03  0.00000000000E+00 0.  1.
         -4    1    6    6    0  503  0.24991635452E+02 -0.77234705985E+02 -0.30239679490E+03  0.31310318302E+03  0.00000000000E+00 0. -1.
<mgrwt>
<rscale>  0 0.74854187E+03</rscale>
<asrwt>0</asrwt>
<pdfrwt beam="1">  1        1 0.43196688E+00 0.74854187E+03</pdfrwt>
<pdfrwt beam="2">  1       -1 0.41804169E-01 0.74854187E+03</pdfrwt>
<totfact> 0.49194769E+00</totfact>
</mgrwt>
</event>
<event>
12    1  0.7781383E-008  0.7190565E+03  0.7818608E-02  0.9685187E-01
          2   -1    0    0  501    0  0.00000000000E+00  0.00000000000E+00  0.49380476556E+03  0.49380476556E+03  0.00000000000E+00 0. -1.
         -2   -1    0    0    0  501 -0.00000000000E+00 -0.00000000000E+00 -0.10876098172E+04  0.10876098172E+04  0.00000000000E+00 0.  1.
         23    2    1    2    0    0  0.22030351205E+03  0.56462270017E+03 -0.25370731375E+03  0.66330408788E+03  0.90953180170E+02 0.  0.
    5000000    2    1    2    0    0 -0.22030351205E+03 -0.56462270017E+03 -0.34009773791E+03  0.91811049489E+03  0.59993997911E+03 0.  0.
         23    2    4    4    0    0 -0.38832472784E+03 -0.52036233359E+03 -0.25247791509E+03  0.70268419293E+03  0.91907153781E+02 0.  0.
         23    2    4    4    0    0  0.16802121579E+03 -0.44260366580E+02 -0.87619822816E+02  0.21542630196E+03  0.92418338117E+02 0.  0.
          4    1    3    3  502    0  0.13985178526E+03  0.37419209135E+03 -0.12000742001E+03  0.41710912712E+03  0.00000000000E+00 0. -1.
         -4    1    3    3    0  502  0.80451726787E+02  0.19043060882E+03 -0.13369989374E+03  0.24619496076E+03  0.00000000000E+00 0.  1.
         15    1    5    5    0    0 -0.16983830687E+03 -0.30281081710E+03 -0.14311443959E+03  0.37553207850E+03  0.17770000000E+01 0. -1.
        -15    1    5    5    0    0 -0.21848642097E+03 -0.21755151648E+03 -0.10936347550E+03  0.32715211443E+03  0.17770000000E+01 0.  1.
          2    1    6    6  503    0  0.89106494097E+02 -0.39095426652E+02 -0.95010875406E+02  0.13599811072E+03  0.00000000000E+00 0. -1.
         -2    1    6    6    0  503  0.78914721694E+02 -0.51649399287E+01  0.73910525902E+01  0.79428191235E+02  0.00000000000E+00 0.  1.
<mgrwt>
<rscale>  0 0.71905654E+03</rscale>
<asrwt>0</asrwt>
<pdfrwt beam="1">  1        2 0.75969965E-01 0.71905654E+03</pdfrwt>
<pdfrwt beam="2">  1       -2 0.16732459E+00 0.71905654E+03</pdfrwt>
<totfact> 0.14169599E+01</totfact>
</mgrwt>
</event>
<event>
12    1  0.7781383E-008  0.6511148E+03  0.7818608E-02  0.9804690E-01
          2   -1    0    0  501    0  0.00000000000E+00  0.00000000000E+00  0.17170632069E+04  0.17170632069E+04  0.00000000000E+00 0. -1.
         -2   -1    0    0    0  501 -0.00000000000E+00 -0.00000000000E+00 -0.31418039978E+03  0.31418039978E+03  0.00000000000E+00 0.  1.
         23    2    1    2    0    0  0.50524725936E+03  0.16749371453E+03  0.99343329412E+03  0.11307620423E+04  0.91564998943E+02 0.  0.
    5000000    2    1    2    0    0 -0.50524725936E+03 -0.16749371453E+03  0.40944951304E+03  0.90048156439E+03  0.59990766505E+03 0.  0.
         23    2    4    4    0    0 -0.47614552412E+03 -0.34183890024E+03  0.24181421494E+03  0.64059336037E+03  0.91199478891E+02 0.  0.
         23    2    4    4    0    0 -0.29101735246E+02  0.17434518571E+03  0.16763529811E+03  0.25988820402E+03  0.90538006629E+02 0.  0.
          3    1    3    3  502    0  0.40732822637E+02  0.40578491977E+02  0.85493555043E+02  0.10302875718E+03  0.00000000000E+00 0. -1.
         -3    1    3    3    0  502  0.46451443672E+03  0.12691522255E+03  0.90793973907E+03  0.10277332852E+04  0.00000000000E+00 0.  1.
         15    1    5    5    0    0 -0.24680499402E+03 -0.16613006472E+03  0.74404755706E+02  0.30667756500E+03  0.17770000000E+01 0.  1.
        -15    1    5    5    0    0 -0.22934053010E+03 -0.17570883552E+03  0.16740945923E+03  0.33391579537E+03  0.17770000000E+01 0. -1.
          4    1    6    6  503    0 -0.56967569586E+01  0.31774746000E+02  0.90548569022E+02  0.96130800866E+02  0.00000000000E+00 0. -1.
         -4    1    6    6    0  503 -0.23404978287E+02  0.14257043971E+03  0.77086729085E+02  0.16375740316E+03  0.00000000000E+00 0.  1.
<mgrwt>
<rscale>  0 0.65111482E+03</rscale>
<asrwt>0</asrwt>
<pdfrwt beam="1">  1        2 0.26416356E+00 0.65111482E+03</pdfrwt>
<pdfrwt beam="2">  1       -2 0.48335447E-01 0.65111482E+03</pdfrwt>
<totfact> 0.40409886E+01</totfact>
</mgrwt>
</event>
<event>
12    1  0.7781383E-008  0.8156333E+03  0.7818608E-02  0.9537660E-01
         -1   -1    0    0    0  501 -0.00000000000E+00  0.00000000000E+00  0.20455436733E+04  0.20455436733E+04  0.00000000000E+00 0.  1.
          1   -1    0    0  501    0  0.00000000000E+00 -0.00000000000E+00 -0.43475289627E+03  0.43475289627E+03  0.00000000000E+00 0. -1.
         23    2    1    2    0    0 -0.22027562271E+03  0.71083019652E+03  0.19984224998E+03  0.77597415421E+03  0.91640847230E+02 0.  0.
    5000000    2    1    2    0    0  0.22027562271E+03 -0.71083019652E+03  0.14109485271E+04  0.17043224154E+04  0.60011518168E+03 0.  0.
         23    2    4    4    0    0  0.72583433449E+02  0.35074990605E+02  0.49677385424E+03  0.51147315809E+03  0.91224554892E+02 0.  0.
         23    2    4    4    0    0  0.14769218926E+03 -0.74590518712E+03  0.91417467285E+03  0.11928492573E+04  0.94797084489E+02 0.  0.
          4    1    3    3  502    0 -0.14179340343E+03  0.33139199273E+03  0.68911552933E+02  0.36698068646E+03  0.00000000000E+00 0. -1.
         -4    1    3    3    0  502 -0.78482219272E+02  0.37943820378E+03  0.13093069705E+03  0.40899346775E+03  0.00000000000E+00 0.  1.
         15    1    5    5    0    0  0.94140803192E+02  0.28148748538E+02  0.37935207768E+03  0.39187497934E+03  0.17770000000E+01 0. -1.
        -15    1    5    5    0    0 -0.21557369743E+02  0.69262420672E+01  0.11742177656E+03  0.11959817874E+03  0.17770000000E+01 0.  1.
          2    1    6    6  503    0  0.51055001671E+02 -0.39864204731E+03  0.54181275096E+03  0.67459851185E+03  0.00000000000E+00 0. -1.
         -2    1    6    6    0  503  0.96637187585E+02 -0.34726313981E+03  0.37236192189E+03  0.51825074546E+03  0.00000000000E+00 0.  1.
<mgrwt>
<rscale>  0 0.81563326E+03</rscale>
<asrwt>0</asrwt>
<pdfrwt beam="1">  1        1 0.66885062E-01 0.81563326E+03</pdfrwt>
<pdfrwt beam="2">  1       -1 0.31469902E+00 0.81563326E+03</pdfrwt>
<totfact> 0.14841052E+00</totfact>
</mgrwt>
</event>
<event>
12    1  0.7781383E-008  0.1129302E+04  0.7818608E-02  0.9177094E-01
         -2   -1    0    0    0  501 -0.00000000000E+00  0.00000000000E+00  0.65177108796E+03  0.65177108796E+03  0.00000000000E+00 0.  1.
          2   -1    0    0  501    0  0.00000000000E+00 -0.00000000000E+00 -0.22962250904E+04  0.22962250904E+04  0.00000000000E+00 0. -1.
         23    2    1    2    0    0 -0.74548594567E+03 -0.82082556796E+03 -0.41828404358E+03  0.11892563160E+04  0.99323389670E+02 0.  0.
    5000000    2    1    2    0    0  0.74548594567E+03  0.82082556796E+03 -0.12261699588E+04  0.17587398624E+04  0.60014100621E+03 0.  0.
         23    2    4    4    0    0  0.38101726715E+03  0.60515130460E+03 -0.39442625799E+03  0.82123699200E+03  0.86463082880E+02 0.  0.
         23    2    4    4    0    0  0.36446867852E+03  0.21567426336E+03 -0.83174370084E+03  0.93750287038E+03  0.88097914705E+02 0.  0.
          4    1    3    3  502    0 -0.17887698262E+03 -0.22937392020E+03 -0.15067908864E+03  0.32758748134E+03  0.00000000000E+00 0. -1.
         -4    1    3    3    0  502 -0.56660896305E+03 -0.59145164777E+03 -0.26760495494E+03  0.86166883463E+03  0.00000000000E+00 0.  1.
         15    1    5    5    0    0  0.30481088179E+03  0.42209045173E+03 -0.30796807079E+03  0.60491116163E+03  0.17770000000E+01 0.  1.
        -15    1    5    5    0    0  0.76206385360E+02  0.18306085287E+03 -0.86458187199E+02  0.21632583037E+03  0.17770000000E+01 0. -1.
          1    1    6    6  503    0  0.27869542569E+03  0.19872361496E+03 -0.61591322106E+03  0.70463558761E+03  0.00000000000E+00 0. -1.
         -1    1    6    6    0  503  0.85773252831E+02  0.16950648400E+02 -0.21583047978E+03  0.23286728277E+03  0.00000000000E+00 0.  1.
<mgrwt>
<rscale>  0 0.11293019E+04</rscale>
<asrwt>0</asrwt>
<pdfrwt beam="1">  1        2 0.35326540E+00 0.11293019E+04</pdfrwt>
<pdfrwt beam="2">  1       -2 0.10027247E+00 0.11293019E+04</pdfrwt>
<totfact> 0.36979722E+00</totfact>
</mgrwt>
</event>
<event>
12    1  0.7781383E-008  0.5226842E+03  0.7818608E-02  0.1008022E+00
          1   -1    0    0  501    0  0.00000000000E+00  0.00000000000E+00  0.97946465296E+03  0.97946465296E+03  0.00000000000E+00 0. -1.
         -1   -1    0    0    0  501 -0.00000000000E+00 -0.00000000000E+00 -0.84642705059E+03  0.84642705059E+03  0.00000000000E+00 0.  1.
         23    2    1    2    0    0  0.46584002547E+02 -0.50111651245E+03 -0.57541855283E+03  0.76978162472E+03  0.90384791166E+02 0.  0.
    5000000    2    1    2    0    0 -0.46584002547E+02  0.50111651245E+03  0.70845615520E+03  0.10561100788E+04  0.60014210521E+03 0.  0.
         23    2    4    4    0    0  0.32677753176E+02  0.28712897070E+03  0.74780336926E+03  0.80713433720E+03  0.93515120926E+02 0.  0.
         23    2    4    4    0    0 -0.79261755723E+02  0.21398754176E+03 -0.39347214067E+02  0.24897574164E+03  0.91474710826E+02 0.  0.
          3    1    3    3  502    0  0.42686364255E+02 -0.84328909039E+02 -0.10493107029E+03  0.14122329873E+03  0.00000000000E+00 0. -1.
         -3    1    3    3    0  502  0.38976382920E+01 -0.41678760342E+03 -0.47048748254E+03  0.62855832599E+03  0.00000000000E+00 0.  1.
         15    1    5    5    0    0 -0.64400065210E+01  0.16202548562E+03  0.51540181225E+03  0.54031094517E+03  0.17770000000E+01 0.  1.
        -15    1    5    5    0    0  0.39117759697E+02  0.12510348508E+03  0.23240155702E+03  0.26682339203E+03  0.17770000000E+01 0. -1.
          1    1    6    6  503    0 -0.22432012870E+02  0.16271123850E+03 -0.30896875699E+01  0.16427930029E+03  0.00000000000E+00 0. -1.
         -1    1    6    6    0  503 -0.56829742853E+02  0.51276303259E+02 -0.36257526498E+02  0.84696441344E+02  0.00000000000E+00 0.  1.
<mgrwt>
<rscale>  0 0.52268418E+03</rscale>
<asrwt>0</asrwt>
<pdfrwt beam="1">  1        1 0.15068687E+00 0.52268418E+03</pdfrwt>
<pdfrwt beam="2">  1       -1 0.13021955E+00 0.52268418E+03</pdfrwt>
<totfact> 0.85215237E+00</totfact>
</mgrwt>
</event>
<event>
12    1  0.7781383E-008  0.3911867E+03  0.7818608E-02  0.1046875E+00
          2   -1    0    0  501    0  0.00000000000E+00  0.00000000000E+00  0.63893331470E+03  0.63893331470E+03  0.00000000000E+00 0.  1.
         -2   -1    0    0    0  501 -0.00000000000E+00 -0.00000000000E+00 -0.36817465693E+03  0.36817465693E+03  0.00000000000E+00 0. -1.
         23    2    1    2    0    0 -0.36071588492E+02 -0.16606228971E+03 -0.15835713919E+03  0.25012025572E+03  0.92764838305E+02 0.  0.
    5000000    2    1    2    0    0  0.36071588492E+02  0.16606228971E+03  0.42911579695E+03  0.75698771592E+03  0.60001015933E+03 0.  0.
         23    2    4    4    0    0  0.18001424839E+03 -0.15169318612E+03  0.11267506531E+03  0.27732914130E+03  0.93807408744E+02 0.  0.
         23    2    4    4    0    0 -0.14394265990E+03  0.31775547584E+03  0.31644073164E+03  0.47965857461E+03  0.90827197459E+02 0.  0.
          3    1    3    3  502    0 -0.22160118839E+02 -0.53160914982E+02 -0.11456378580E+03  0.12822641992E+03  0.00000000000E+00 0. -1.
         -3    1    3    3    0  502 -0.13911469652E+02 -0.11290137473E+03 -0.43793353392E+02  0.12189383580E+03  0.00000000000E+00 0.  1.
         15    1    5    5    0    0  0.14263346147E+03 -0.63475897854E+02  0.55273764598E+02  0.16562560406E+03  0.17770000000E+01 0.  1.
        -15    1    5    5    0    0  0.37380786919E+02 -0.88217288268E+02  0.57401300713E+02  0.11170353724E+03  0.17770000000E+01 0. -1.
          4    1    6    6  503    0 -0.35016897106E+02  0.18037894553E+03  0.18303118653E+03  0.25935142629E+03  0.00000000000E+00 0. -1.
         -4    1    6    6    0  503 -0.10892576279E+03  0.13737653031E+03  0.13340954510E+03  0.22030714833E+03  0.00000000000E+00 0.  1.
<mgrwt>
<rscale>  0 0.39118674E+03</rscale>
<asrwt>0</asrwt>
<pdfrwt beam="1">  1        2 0.98297433E-01 0.39118674E+03</pdfrwt>
<pdfrwt beam="2">  1       -2 0.56642255E-01 0.39118674E+03</pdfrwt>
<totfact> 0.13921887E+02</totfact>
</mgrwt>
</event>
<event>
12    1  0.7781383E-008  0.1191444E+04  0.7818608E-02  0.9120379E-01
         -2   -1    0    0    0  501 -0.00000000000E+00  0.00000000000E+00  0.36970802138E+03  0.36970802138E+03  0.00000000000E+00 0.  1.
          2   -1    0    0  501    0  0.00000000000E+00 -0.00000000000E+00 -0.49005782841E+04  0.49005782841E+04  0.00000000000E+00 0. -1.
         23    2    1    2    0    0  0.35567371107E+03 -0.11231644129E+04 -0.11887004049E+04  0.16761130818E+04  0.91347266695E+02 0.  0.
    5000000    2    1    2    0    0 -0.35567371107E+03  0.11231644129E+04 -0.33421698578E+04  0.35941732237E+04  0.59998309681E+03 0.  0.
         23    2    4    4    0    0 -0.21069747837E+02  0.26241596080E+03 -0.28172690829E+03  0.39618188760E+03  0.91016297718E+02 0.  0.
         23    2    4    4    0    0 -0.33460396323E+03  0.86074845209E+03 -0.30604429495E+04  0.31979913361E+04  0.89385841124E+02 0.  0.
          1    1    3    3  502    0  0.15995821198E+03 -0.64164103832E+03 -0.63866768739E+03  0.91934012561E+03  0.00000000000E+00 0. -1.
         -1    1    3    3    0  502  0.19571549909E+03 -0.48152337457E+03 -0.55003271755E+03  0.75677295619E+03  0.00000000000E+00 0.  1.
         15    1    5    5    0    0 -0.28840573637E+02  0.26709092848E+03 -0.27669874086E+03  0.38566137179E+03  0.17770000000E+01 0.  1.
        -15    1    5    5    0    0  0.77708258006E+01 -0.46749676733E+01 -0.50281674247E+01  0.10520515815E+02  0.17770000000E+01 0. -1.
          2    1    6    6  503    0 -0.29140161079E+03  0.72081875547E+03 -0.24596431122E+04  0.25796005149E+04  0.00000000000E+00 0.  1.
         -2    1    6    6    0  503 -0.43202352448E+02  0.13992969662E+03 -0.60079983731E+03  0.61839082122E+03  0.00000000000E+00 0. -1.
<mgrwt>
<rscale>  0 0.11914436E+04</rscale>
<asrwt>0</asrwt>
<pdfrwt beam="1">  1        2 0.75393505E+00 0.11914436E+04</pdfrwt>
<pdfrwt beam="2">  1       -2 0.56878162E-01 0.11914436E+04</pdfrwt>
<totfact> 0.13911942E-01</totfact>
</mgrwt>
</event>
<event>
12    1  0.7781383E-008  0.1023440E+04  0.7818608E-02  0.9283203E-01
         -1   -1    0    0    0  501 -0.00000000000E+00  0.00000000000E+00  0.61243698762E+03  0.61243698762E+03  0.00000000000E+00 0.  1.
          1   -1    0    0  501    0  0.00000000000E+00 -0.00000000000E+00 -0.17554342543E+04  0.17554342543E+04  0.00000000000E+00 0. -1.
         23    2    1    2    0    0 -0.61555982473E+03 -0.72086349712E+03 -0.51096692618E+03  0.10806750706E+04  0.90627420058E+02 0.  0.
    5000000    2    1    2    0    0  0.61555982473E+03  0.72086349712E+03 -0.63203034051E+03  0.12871961713E+04  0.59904386553E+03 0.  0.
         23    2    4    4    0    0  0.28829874701E+03 -0.13164043042E+01 -0.28874190515E+03  0.41831488584E+03  0.92182186340E+02 0.  0.
         23    2    4    4    0    0  0.32726107773E+03  0.72217990143E+03 -0.34328843535E+03  0.86888128548E+03  0.92000627128E+02 0.  0.
          4    1    3    3  502    0 -0.47004956317E+03 -0.49463317188E+03 -0.34507295687E+03  0.76464626601E+03  0.00000000000E+00 0. -1.
         -4    1    3    3    0  502 -0.14551026156E+03 -0.22623032524E+03 -0.16589396931E+03  0.31602880459E+03  0.00000000000E+00 0.  1.
         15    1    5    5    0    0  0.10440021023E+03  0.37249939998E+02 -0.75681048783E+02  0.13423017842E+03  0.17770000000E+01 0.  1.
        -15    1    5    5    0    0  0.18389853678E+03 -0.38566344303E+02 -0.21306085637E+03  0.28408470742E+03  0.17770000000E+01 0. -1.
          4    1    6    6  503    0  0.85377801433E+02  0.28036955190E+03 -0.15141108875E+03  0.32988145204E+03  0.00000000000E+00 0. -1.
         -4    1    6    6    0  503  0.24188327629E+03  0.44181034953E+03 -0.19187734661E+03  0.53899983343E+03  0.00000000000E+00 0.  1.
<mgrwt>
<rscale>  0 0.10234402E+04</rscale>
<asrwt>0</asrwt>
<pdfrwt beam="1">  1        1 0.27006680E+00 0.10234402E+04</pdfrwt>
<pdfrwt beam="2">  1       -1 0.94221077E-01 0.10234402E+04</pdfrwt>
<totfact> 0.47903194E+00</totfact>
</mgrwt>
</event>
<event>
12    1  0.7781383E-008  0.6371112E+03  0.7818608E-02  0.9831269E-01
         -1   -1    0    0    0  501 -0.00000000000E+00  0.00000000000E+00  0.84039082778E+03  0.84039082778E+03  0.00000000000E+00 0.  1.
          1   -1    0    0  501    0  0.00000000000E+00 -0.00000000000E+00 -0.57415376797E+03  0.57415376797E+03  0.00000000000E+00 0. -1.
         23    2    1    2    0    0  0.25561465968E+03  0.48884634740E+03  0.73371880342E+01  0.55945358911E+03  0.92870223553E+02 0.  0.
    5000000    2    1    2    0    0 -0.25561465968E+03 -0.48884634740E+03  0.25889987178E+03  0.85509100664E+03  0.59986821921E+03 0.  0.
         23    2    4    4    0    0  0.86515234729E+02 -0.30217403872E+03  0.31142680357E+03  0.45140894218E+03  0.89383128040E+02 0.  0.
         23    2    4    4    0    0 -0.34212989441E+03 -0.18667230868E+03 -0.52526931783E+02  0.40368206447E+03  0.91108260501E+02 0.  0.
          3    1    3    3  502    0  0.12916388064E+03  0.33868027006E+03  0.17288197933E+02  0.36288636675E+03  0.00000000000E+00 0. -1.
         -3    1    3    3    0  502  0.12645077904E+03  0.15016607735E+03 -0.99510098985E+01  0.19656722235E+03  0.00000000000E+00 0.  1.
         15    1    5    5    0    0  0.93631364160E+02 -0.30181592263E+03  0.29056006125E+03  0.42928777111E+03  0.17770000000E+01 0.  1.
        -15    1    5    5    0    0 -0.71161294305E+01 -0.35811609599E+00  0.20866742318E+02  0.22121171063E+02  0.17770000000E+01 0. -1.
          1    1    6    6  503    0 -0.16284099940E+03 -0.64647584073E+02  0.16771501010E+02  0.17600506941E+03  0.00000000000E+00 0. -1.
         -1    1    6    6    0  503 -0.17928889501E+03 -0.12202472461E+03 -0.69298432793E+02  0.22767699505E+03  0.00000000000E+00 0.  1.
<mgrwt>
<rscale>  0 0.63711118E+03</rscale>
<asrwt>0</asrwt>
<pdfrwt beam="1">  1        1 0.88331349E-01 0.63711118E+03</pdfrwt>
<pdfrwt beam="2">  1       -1 0.12929090E+00 0.63711118E+03</pdfrwt>
<totfact> 0.19521882E+01</totfact>
</mgrwt>
</event>
<event>
12    1  0.7781383E-008  0.3856242E+03  0.7818608E-02  0.1048874E+00
         -2   -1    0    0    0  501 -0.00000000000E+00  0.00000000000E+00  0.11528368425E+03  0.11528368425E+03  0.00000000000E+00 0.  1.
          2   -1    0    0  501    0  0.00000000000E+00 -0.00000000000E+00 -0.14522374642E+04  0.14522374642E+04  0.00000000000E+00 0. -1.
         23    2    1    2    0    0  0.16857604947E+03  0.78824727687E+01 -0.37338389937E+03  0.41966958207E+03  0.90702833315E+02 0.  0.
    5000000    2    1    2    0    0 -0.16857604947E+03 -0.78824727687E+01 -0.96356988054E+03  0.11478515663E+04  0.60051335193E+03 0.  0.
         23    2    4    4    0    0 -0.17891688336E+03  0.24150516729E+03 -0.72715250441E+03  0.79227469439E+03  0.92803177315E+02 0.  0.
         23    2    4    4    0    0  0.10340833892E+02 -0.24938764006E+03 -0.23641737613E+03  0.35557687195E+03  0.90777796156E+02 0.  0.
          1    1    3    3  502    0  0.15613391199E+03 -0.23407405405E+02 -0.31092544351E+03  0.34871239801E+03  0.00000000000E+00 0. -1.
         -1    1    3    3    0  502  0.12442137474E+02  0.31289878174E+02 -0.62458455857E+02  0.70957184055E+02  0.00000000000E+00 0.  1.
         15    1    5    5    0    0 -0.14575204012E+03  0.12068864107E+03 -0.44187229189E+03  0.48069084176E+03  0.17770000000E+01 0. -1.
        -15    1    5    5    0    0 -0.33164843241E+02  0.12081652622E+03 -0.28528021252E+03  0.31158385263E+03  0.17770000000E+01 0.  1.
          4    1    6    6  503    0  0.16262434038E+02 -0.57439069352E+00 -0.19793826552E+02  0.25624056179E+02  0.00000000000E+00 0.  1.
         -4    1    6    6    0  503 -0.59216001461E+01 -0.24881324936E+03 -0.21662354957E+03  0.32995281578E+03  0.00000000000E+00 0. -1.
<mgrwt>
<rscale>  0 0.38562422E+03</rscale>
<asrwt>0</asrwt>
<pdfrwt beam="1">  1        2 0.22342115E+00 0.38562422E+03</pdfrwt>
<pdfrwt beam="2">  1       -2 0.17735951E-01 0.38562422E+03</pdfrwt>
<totfact> 0.37046418E+02</totfact>
</mgrwt>
</event>
<event>
12    1  0.9241093E-008  0.8156084E+03  0.7818608E-02  0.9537695E-01
          2   -1    0    0  501    0  0.00000000000E+00  0.00000000000E+00  0.20050999046E+04  0.20050999046E+04  0.00000000000E+00 0.  1.
         -2   -1    0    0    0  501 -0.00000000000E+00 -0.00000000000E+00 -0.37117895508E+03  0.37117895508E+03  0.00000000000E+00 0. -1.
         23    2    1    2    0    0 -0.33282305280E+03 -0.64419754538E+03  0.10115162681E+04  0.12479075912E+04  0.91359364916E+02 0.  0.
    5000000    2    1    2    0    0  0.33282305280E+03  0.64419754538E+03  0.62240468138E+03  0.11283712685E+04  0.60006038874E+03 0.  0.
         23    2    4    4    0    0 -0.14328708094E+03  0.12479447978E+03  0.52004505441E+02  0.21712815125E+03  0.91297950321E+02 0.  0.
         23    2    4    4    0    0  0.47611013374E+03  0.51940306560E+03  0.57040017594E+03  0.91124311721E+03  0.92451359850E+02 0.  0.
          1    1    3    3  502    0 -0.26435771767E+03 -0.42981025643E+03  0.73154184315E+03  0.88869304470E+03  0.00000000000E+00 0. -1.
         -1    1    3    3    0  502 -0.68465335129E+02 -0.21438728896E+03  0.27997442494E+03  0.35921454648E+03  0.00000000000E+00 0.  1.
         15    1    5    5    0    0 -0.50798801931E+02  0.73146568139E+02  0.65166901171E+02  0.11036675879E+03  0.17770000000E+01 0.  1.
        -15    1    5    5    0    0 -0.92488279010E+02  0.51647911641E+02 -0.13162395729E+02  0.10676139247E+03  0.17770000000E+01 0. -1.
          1    1    6    6  503    0  0.84292068777E+02  0.12356093007E+03  0.82612484037E+02  0.17087211246E+03  0.00000000000E+00 0. -1.
         -1    1    6    6    0  503  0.39181806496E+03  0.39584213553E+03  0.48778769191E+03  0.74037100474E+03  0.00000000000E+00 0.  1.
<mgrwt>
<rscale>  0 0.81560839E+03</rscale>
<asrwt>0</asrwt>
<pdfrwt beam="1">  1        2 0.30847690E+00 0.81560839E+03</pdfrwt>
<pdfrwt beam="2">  1       -2 0.57104456E-01 0.81560839E+03</pdfrwt>
<totfact> 0.19560285E+01</totfact>
</mgrwt>
</event>
<event>
12    1  0.7781383E-008  0.5210666E+03  0.7818608E-02  0.1008422E+00
          2   -1    0    0  501    0  0.00000000000E+00  0.00000000000E+00  0.13523972117E+04  0.13523972117E+04  0.00000000000E+00 0. -1.
         -2   -1    0    0    0  501 -0.00000000000E+00 -0.00000000000E+00 -0.27847709712E+03  0.27847709712E+03  0.00000000000E+00 0.  1.
         23    2    1    2    0    0  0.32203552587E+03 -0.23849292683E+03  0.10962843621E+03  0.42646521412E+03  0.96272679158E+02 0.  0.
    5000000    2    1    2    0    0 -0.32203552587E+03  0.23849292683E+03  0.96429167832E+03  0.12044090947E+04  0.60013087770E+03 0.  0.
         23    2    4    4    0    0 -0.53199978956E+02 -0.15529058496E+03  0.49277589465E+03  0.52774060052E+03  0.93470078397E+02 0.  0.
         23    2    4    4    0    0 -0.26883554692E+03  0.39378351179E+03  0.47151578367E+03  0.67666849414E+03  0.90637251030E+02 0.  0.
          3    1    3    3  502    0  0.33686978750E+02 -0.25834509562E+02  0.45960443672E+02  0.62566738800E+02  0.00000000000E+00 0. -1.
         -3    1    3    3    0  502  0.28834854712E+03 -0.21265841727E+03  0.63667992541E+02  0.36389847532E+03  0.00000000000E+00 0.  1.
         15    1    5    5    0    0 -0.34476523075E+02 -0.98376804788E+02  0.16982716022E+03  0.19927631179E+03  0.17770000000E+01 0. -1.
        -15    1    5    5    0    0 -0.18723455881E+02 -0.56913780168E+02  0.32294873443E+03  0.32846428874E+03  0.17770000000E+01 0.  1.
          4    1    6    6  503    0 -0.95230548770E+02  0.15625356687E+03  0.24270822193E+03  0.30395939790E+03  0.00000000000E+00 0. -1.
         -4    1    6    6    0  503 -0.17360499815E+03  0.23752994491E+03  0.22880756174E+03  0.37270909624E+03  0.00000000000E+00 0.  1.
<mgrwt>
<rscale>  0 0.52106657E+03</rscale>
<asrwt>0</asrwt>
<pdfrwt beam="1">  1        2 0.20806111E+00 0.52106657E+03</pdfrwt>
<pdfrwt beam="2">  1       -2 0.42842631E-01 0.52106657E+03</pdfrwt>
<totfact> 0.83031273E+01</totfact>
</mgrwt>
</event>
<event>
12    1  0.7781383E-008  0.4722766E+03  0.7818608E-02  0.1021280E+00
         -2   -1    0    0    0  501 -0.00000000000E+00  0.00000000000E+00  0.12314150255E+03  0.12314150255E+03  0.00000000000E+00 0.  1.
          2   -1    0    0  501    0  0.00000000000E+00 -0.00000000000E+00 -0.19979552958E+04  0.19979552958E+04  0.00000000000E+00 0. -1.
         23    2    1    2    0    0  0.26874689678E+03  0.11822929945E+03 -0.77998489109E+03  0.83858316244E+03  0.92963585465E+02 0.  0.
    5000000    2    1    2    0    0 -0.26874689678E+03 -0.11822929945E+03 -0.10948289022E+04  0.12825136359E+04  0.59998986618E+03 0.  0.
         23    2    4    4    0    0 -0.13674377786E+03 -0.33643637118E+03 -0.47037370754E+03  0.60202072410E+03  0.96380676802E+02 0.  0.
         23    2    4    4    0    0 -0.13200311892E+03  0.21820707174E+03 -0.62445519461E+03  0.68049291181E+03  0.89928657163E+02 0.  0.
          3    1    3    3  502    0  0.52860186606E+02 -0.59164061040E+01 -0.20880865987E+03  0.21547681923E+03  0.00000000000E+00 0. -1.
         -3    1    3    3    0  502  0.21588671017E+03  0.12414570555E+03 -0.57117623122E+03  0.62310634320E+03  0.00000000000E+00 0.  1.
         15    1    5    5    0    0 -0.80637105777E+02 -0.94643826275E+02 -0.12150855627E+03  0.17385995414E+03  0.17770000000E+01 0.  1.
        -15    1    5    5    0    0 -0.56106672079E+02 -0.24179254491E+03 -0.34886515128E+03  0.42816076996E+03  0.17770000000E+01 0. -1.
          1    1    6    6  503    0 -0.43969617269E+02  0.15568931237E+03 -0.35081583562E+03  0.38632142026E+03  0.00000000000E+00 0. -1.
         -1    1    6    6    0  503 -0.88033501652E+02  0.62517759366E+02 -0.27363935899E+03  0.29417149154E+03  0.00000000000E+00 0.  1.
<mgrwt>
<rscale>  0 0.47227661E+03</rscale>
<asrwt>0</asrwt>
<pdfrwt beam="1">  1        2 0.30737771E+00 0.47227661E+03</pdfrwt>
<pdfrwt beam="2">  1       -2 0.18944848E-01 0.47227661E+03</pdfrwt>
<totfact> 0.16635081E+02</totfact>
</mgrwt>
</event>
<event>
12    1  0.7781383E-008  0.7283500E+03  0.7818608E-02  0.9669942E-01
         -1   -1    0    0    0  501 -0.00000000000E+00  0.00000000000E+00  0.40033769399E+03  0.40033769399E+03  0.00000000000E+00 0.  1.
          1   -1    0    0  501    0  0.00000000000E+00 -0.00000000000E+00 -0.14316897576E+04  0.14316897576E+04  0.00000000000E+00 0. -1.
         23    2    1    2    0    0 -0.59207320471E+03  0.14949264888E+03 -0.64443028751E+03  0.89251967933E+03  0.91663791750E+02 0.  0.
    5000000    2    1    2    0    0  0.59207320471E+03 -0.14949264888E+03 -0.38692177614E+03  0.93950777230E+03  0.60005638199E+03 0.  0.
         23    2    4    4    0    0  0.20684135066E+03  0.21655225280E+03 -0.93178804649E+02  0.32643611730E+03  0.90553997755E+02 0.  0.
         23    2    4    4    0    0  0.38523185406E+03 -0.36604490168E+03 -0.29374297149E+03  0.61307165500E+03  0.84731749896E+02 0.  0.
          1    1    3    3  502    0 -0.44051557370E+03  0.69360635197E+02 -0.45769826465E+03  0.63902470207E+03  0.00000000000E+00 0. -1.
         -1    1    3    3    0  502 -0.15155763102E+03  0.80132013686E+02 -0.18673202285E+03  0.25349497726E+03  0.00000000000E+00 0.  1.
         15    1    5    5    0    0  0.19407338262E+03  0.18955498752E+03 -0.10926555291E+03  0.29246827164E+03  0.17770000000E+01 0.  1.
        -15    1    5    5    0    0  0.12767968039E+02  0.26997265283E+02  0.16086748259E+02  0.33967845665E+02  0.17770000000E+01 0. -1.
          1    1    6    6  503    0  0.41456340010E+02 -0.83116016997E+02 -0.51893031848E+02  0.10639448840E+03  0.00000000000E+00 0. -1.
         -1    1    6    6    0  503  0.34377551404E+03 -0.28292888469E+03 -0.24184993964E+03  0.50667716660E+03  0.00000000000E+00 0.  1.
<mgrwt>
<rscale>  0 0.72835000E+03</rscale>
<asrwt>0</asrwt>
<pdfrwt beam="1">  1        1 0.22025996E+00 0.72835000E+03</pdfrwt>
<pdfrwt beam="2">  1       -1 0.61590416E-01 0.72835000E+03</pdfrwt>
<totfact> 0.20232290E+01</totfact>
</mgrwt>
</event>
<event>
12    1  0.7781383E-008  0.5356521E+03  0.7818608E-02  0.1004871E+00
         -2   -1    0    0    0  501 -0.00000000000E+00  0.00000000000E+00  0.31211307506E+03  0.31211307506E+03  0.00000000000E+00 0.  1.
          2   -1    0    0  501    0  0.00000000000E+00 -0.00000000000E+00 -0.31055626926E+04  0.31055626926E+04  0.00000000000E+00 0. -1.
         23    2    1    2    0    0 -0.30722513131E+03  0.22748036228E+03  0.12609113599E+03  0.41270325421E+03  0.91051660776E+02 0.  0.
    5000000    2    1    2    0    0  0.30722513131E+03 -0.22748036228E+03 -0.29195407535E+04  0.30049725135E+04  0.60000583208E+03 0.  0.
         23    2    4    4    0    0  0.33592426966E+03 -0.39035050916E+03 -0.21802225274E+04  0.22422677714E+04  0.95790682695E+02 0.  0.
         23    2    4    4    0    0 -0.28699138356E+02  0.16287014688E+03 -0.73931822618E+03  0.76270474206E+03  0.88185932610E+02 0.  0.
          3    1    3    3  502    0 -0.37658340973E+02  0.69804093862E+00  0.28289659338E+02  0.47105654984E+02  0.00000000000E+00 0. -1.
         -3    1    3    3    0  502 -0.26956679033E+03  0.22678232134E+03  0.97801476652E+02  0.36559759922E+03  0.00000000000E+00 0.  1.
         15    1    5    5    0    0  0.10664376599E+03 -0.13678100185E+03 -0.55471351291E+03  0.58119891124E+03  0.17770000000E+01 0. -1.
        -15    1    5    5    0    0  0.22928050368E+03 -0.25356950731E+03 -0.16255090145E+04  0.16610688602E+04  0.17770000000E+01 0.  1.
          3    1    6    6  503    0 -0.90779235831E+01  0.94137018416E+02 -0.58550931855E+03  0.59309809395E+03  0.00000000000E+00 0. -1.
         -3    1    6    6    0  503 -0.19621214773E+02  0.68733128467E+02 -0.15380890762E+03  0.16960664811E+03  0.00000000000E+00 0.  1.
<mgrwt>
<rscale>  0 0.53565206E+03</rscale>
<asrwt>0</asrwt>
<pdfrwt beam="1">  1        2 0.47777887E+00 0.53565206E+03</pdfrwt>
<pdfrwt beam="2">  1       -2 0.48017397E-01 0.53565206E+03</pdfrwt>
<totfact> 0.68811802E+00</totfact>
</mgrwt>
</event>
<event>
12    1  0.7799109E-008  0.7931174E+03  0.7818608E-02  0.9570033E-01
          1   -1    0    0  501    0  0.00000000000E+00  0.00000000000E+00  0.15966638372E+04  0.15966638372E+04  0.00000000000E+00 0. -1.
         -1   -1    0    0    0  501 -0.00000000000E+00 -0.00000000000E+00 -0.63069766002E+03  0.63069766002E+03  0.00000000000E+00 0.  1.
         23    2    1    2    0    0 -0.73828753672E+03 -0.26874851176E+03 -0.71668899704E+02  0.79420823861E+03  0.91301947599E+02 0.  0.
    5000000    2    1    2    0    0  0.73828753672E+03  0.26874851176E+03  0.10376350769E+04  0.14331532587E+04  0.59995621546E+03 0.  0.
         23    2    4    4    0    0  0.15405112988E+03  0.11296558375E+03  0.70719125616E+03  0.73787505990E+03  0.88584183184E+02 0.  0.
         23    2    4    4    0    0  0.58423640685E+03  0.15578292801E+03  0.33044382077E+03  0.69527819875E+03  0.92834019794E+02 0.  0.
          1    1    3    3  502    0 -0.59256764949E+03 -0.19705024507E+03 -0.23916726323E+02  0.62492977854E+03  0.00000000000E+00 0. -1.
         -1    1    3    3    0  502 -0.14571988723E+03 -0.71698266692E+02 -0.47752173381E+02  0.16927846007E+03  0.00000000000E+00 0.  1.
         15    1    5    5    0    0  0.11289005792E+02  0.19941322444E+02  0.23047397347E+03  0.23161715863E+03  0.17770000000E+01 0. -1.
        -15    1    5    5    0    0  0.14276212408E+03  0.93024261305E+02  0.47671728269E+03  0.50625790128E+03  0.17770000000E+01 0.  1.
          4    1    6    6  503    0  0.22830930571E+03  0.40756534112E+02  0.80891129046E+02  0.24562086415E+03  0.00000000000E+00 0. -1.
         -4    1    6    6    0  503  0.35592710114E+03  0.11502639390E+03  0.24955269172E+03  0.44965733461E+03  0.00000000000E+00 0.  1.
<mgrwt>
<rscale>  0 0.79311741E+03</rscale>
<asrwt>0</asrwt>
<pdfrwt beam="1">  1        1 0.24564059E+00 0.79311741E+03</pdfrwt>
<pdfrwt beam="2">  1       -1 0.97030410E-01 0.79311741E+03</pdfrwt>
<totfact> 0.59289808E+00</totfact>
</mgrwt>
</event>
<event>
12    1  0.7781383E-008  0.9523011E+03  0.7818608E-02  0.9362465E-01
          2   -1    0    0  501    0  0.00000000000E+00  0.00000000000E+00  0.16422182245E+04  0.16422182245E+04  0.00000000000E+00 0. -1.
         -2   -1    0    0    0  501 -0.00000000000E+00 -0.00000000000E+00 -0.84912153945E+03  0.84912153945E+03  0.00000000000E+00 0.  1.
         23    2    1    2    0    0 -0.13347130090E+03  0.84850249187E+03 -0.35783735399E+03  0.93498248042E+03  0.91507376183E+02 0.  0.
    5000000    2    1    2    0    0  0.13347130090E+03 -0.84850249187E+03  0.11509340391E+04  0.15563572836E+04  0.59985645363E+03 0.  0.
         23    2    4    4    0    0 -0.22166533641E+03 -0.40383986632E+03  0.56321157329E+03  0.73334381514E+03  0.91453353752E+02 0.  0.
         23    2    4    4    0    0  0.35513663731E+03 -0.44466262555E+03  0.58772246578E+03  0.82301346843E+03  0.89925473185E+02 0.  0.
          4    1    3    3  502    0 -0.94192542036E+02  0.41709576273E+03 -0.21673244457E+03  0.47938926019E+03  0.00000000000E+00 0. -1.
         -4    1    3    3    0  502 -0.39278758859E+02  0.43140672914E+03 -0.14110490943E+03  0.45559322022E+03  0.00000000000E+00 0.  1.
         15    1    5    5    0    0 -0.22498669984E+02 -0.66361378218E+01  0.16020359107E+02  0.28461168479E+02  0.17770000000E+01 0.  1.
        -15    1    5    5    0    0 -0.19916666643E+03 -0.39720372850E+03  0.54719121419E+03  0.70488264666E+03  0.17770000000E+01 0. -1.
          1    1    6    6  503    0  0.29314663261E+03 -0.41264783866E+03  0.52332519944E+03  0.72806761453E+03  0.00000000000E+00 0. -1.
         -1    1    6    6    0  503  0.61990004694E+02 -0.32014786893E+02  0.64397266335E+02  0.94945853902E+02  0.00000000000E+00 0.  1.
<mgrwt>
<rscale>  0 0.95230114E+03</rscale>
<asrwt>0</asrwt>
<pdfrwt beam="1">  1        2 0.25264896E+00 0.95230114E+03</pdfrwt>
<pdfrwt beam="2">  1       -2 0.13063408E+00 0.95230114E+03</pdfrwt>
<totfact> 0.45316105E+00</totfact>
</mgrwt>
</event>
<event>
12    1  0.7781383E-008  0.8716146E+03  0.7818608E-02  0.9461777E-01
          2   -1    0    0  501    0  0.00000000000E+00  0.00000000000E+00  0.31144099846E+04  0.31144099846E+04  0.00000000000E+00 0.  1.
         -2   -1    0    0    0  501 -0.00000000000E+00 -0.00000000000E+00 -0.35770921791E+03  0.35770921791E+03  0.00000000000E+00 0. -1.
         23    2    1    2    0    0  0.36942967522E+03 -0.70606092472E+03  0.21730452551E+04  0.23163930576E+04  0.92470547934E+02 0.  0.
    5000000    2    1    2    0    0 -0.36942967522E+03  0.70606092472E+03  0.58365551158E+03  0.11557261449E+04  0.60004070818E+03 0.  0.
         23    2    4    4    0    0  0.11083311916E+03  0.60201357509E+02 -0.49844023874E+01  0.15448810344E+03  0.89070455749E+02 0.  0.
         23    2    4    4    0    0 -0.48026279438E+03  0.64585956721E+03  0.58863991396E+03  0.10012380415E+04  0.90519252897E+02 0.  0.
          4    1    3    3  502    0  0.11930019268E+03 -0.21304566334E+03  0.79276530685E+03  0.82951661972E+03  0.00000000000E+00 0. -1.
         -4    1    3    3    0  502  0.25012948254E+03 -0.49301526138E+03  0.13802799482E+04  0.14868764378E+04  0.00000000000E+00 0.  1.
         15    1    5    5    0    0  0.56548411386E+02  0.17058937334E+01 -0.37927631518E+02  0.68134395611E+02  0.17770000000E+01 0.  1.
        -15    1    5    5    0    0  0.54284707774E+02  0.58495463776E+02  0.32943229131E+02  0.86353707824E+02  0.17770000000E+01 0. -1.
          1    1    6    6  503    0 -0.26527291408E+03  0.42924956781E+03  0.35797180166E+03  0.61868305391E+03  0.00000000000E+00 0. -1.
         -1    1    6    6    0  503 -0.21498988030E+03  0.21660999940E+03  0.23066811231E+03  0.38255498756E+03  0.00000000000E+00 0.  1.
<mgrwt>
<rscale>  0 0.87161461E+03</rscale>
<asrwt>0</asrwt>
<pdfrwt beam="1">  1        2 0.47913998E+00 0.87161461E+03</pdfrwt>
<pdfrwt beam="2">  1       -2 0.55032189E-01 0.87161461E+03</pdfrwt>
<totfact> 0.47876240E+00</totfact>
</mgrwt>
</event>
<event>
12    1  0.7781383E-008  0.5705298E+03  0.7818608E-02  0.9968507E-01
          2   -1    0    0  501    0  0.00000000000E+00  0.00000000000E+00  0.86052298863E+03  0.86052298863E+03  0.00000000000E+00 0. -1.
         -2   -1    0    0    0  501 -0.00000000000E+00 -0.00000000000E+00 -0.40672630414E+03  0.40672630414E+03  0.00000000000E+00 0.  1.
         23    2    1    2    0    0  0.30503128667E+03 -0.30893996208E+03  0.12796893697E+03  0.45818745171E+03  0.71215911562E+02 0.  0.
    5000000    2    1    2    0    0 -0.30503128667E+03  0.30893996208E+03  0.32582774753E+03  0.80906184106E+03  0.59994112676E+03 0.  0.
         23    2    4    4    0    0  0.12064475193E+03  0.23454545814E+03  0.21839594948E+03  0.35477697833E+03  0.92753358405E+02 0.  0.
         23    2    4    4    0    0 -0.42567603861E+03  0.74394503931E+02  0.10743179805E+03  0.45428486273E+03  0.89991739709E+02 0.  0.
          2    1    3    3  502    0  0.15954754537E+03 -0.14244623982E+03  0.28616370090E+02  0.21578982161E+03  0.00000000000E+00 0. -1.
         -2    1    3    3    0  502  0.14548374130E+03 -0.16649372226E+03  0.99352566876E+02  0.24239763010E+03  0.00000000000E+00 0.  1.
         15    1    5    5    0    0  0.12532928665E+03  0.20282358657E+03  0.15696406826E+03  0.28545702622E+03  0.17770000000E+01 0.  1.
        -15    1    5    5    0    0 -0.46845347128E+01  0.31721871571E+02  0.61431881219E+02  0.69319952110E+02  0.17770000000E+01 0. -1.
          2    1    6    6  503    0 -0.10972255533E+03  0.43647205015E+02  0.62711348865E+02  0.13370426669E+03  0.00000000000E+00 0. -1.
         -2    1    6    6    0  503 -0.31595348327E+03  0.30747298916E+02  0.44720449181E+02  0.32058059604E+03  0.00000000000E+00 0.  1.
<mgrwt>
<rscale>  0 0.57052979E+03</rscale>
<asrwt>0</asrwt>
<pdfrwt beam="1">  1        2 0.13238815E+00 0.57052979E+03</pdfrwt>
<pdfrwt beam="2">  1       -2 0.62573278E-01 0.57052979E+03</pdfrwt>
<totfact> 0.76053686E+01</totfact>
</mgrwt>
</event>
<event>
12    1  0.7781383E-008  0.7503377E+03  0.7818608E-02  0.9634821E-01
          2   -1    0    0  501    0  0.00000000000E+00  0.00000000000E+00  0.16857013928E+04  0.16857013928E+04  0.00000000000E+00 0. -1.
         -2   -1    0    0    0  501 -0.00000000000E+00 -0.00000000000E+00 -0.45034565859E+03  0.45034565859E+03  0.00000000000E+00 0.  1.
         23    2    1    2    0    0 -0.29868141677E+03 -0.67303722807E+03  0.29204813543E+03  0.79736349797E+03  0.91141293636E+02 0.  0.
    5000000    2    1    2    0    0  0.29868141677E+03  0.67303722807E+03  0.94330759879E+03  0.13386835534E+04  0.60004560760E+03 0.  0.
         23    2    4    4    0    0  0.16786692307E+03  0.15992365832E+03 -0.37196705123E+01  0.24955827747E+03  0.92253008361E+02 0.  0.
         23    2    4    4    0    0  0.13081449369E+03  0.51311356974E+03  0.94702726930E+03  0.10891252760E+04  0.94526455096E+02 0.  0.
          1    1    3    3  502    0 -0.22600156182E+03 -0.52685565797E+03  0.18604881219E+03  0.60271697403E+03  0.00000000000E+00 0. -1.
         -1    1    3    3    0  502 -0.72679854949E+02 -0.14618157010E+03  0.10599932325E+03  0.19464652394E+03  0.00000000000E+00 0.  1.
         15    1    5    5    0    0  0.40177601109E+02  0.54034414285E+02  0.39556438070E+02  0.78114192563E+02  0.17770000000E+01 0. -1.
        -15    1    5    5    0    0  0.12768932197E+03  0.10588924404E+03 -0.43276108582E+02  0.17144408491E+03  0.17770000000E+01 0.  1.
          4    1    6    6  503    0  0.78362380476E+02  0.23068588912E+03  0.52293834218E+03  0.57690653649E+03  0.00000000000E+00 0. -1.
         -4    1    6    6    0  503  0.52452113215E+02  0.28242768062E+03  0.42408892712E+03  0.51221873947E+03  0.00000000000E+00 0.  1.
<mgrwt>
<rscale>  0 0.75033771E+03</rscale>
<asrwt>0</asrwt>
<pdfrwt beam="1">  1        2 0.25933867E+00 0.75033771E+03</pdfrwt>
<pdfrwt beam="2">  1       -2 0.69283948E-01 0.75033771E+03</pdfrwt>
<totfact> 0.19510783E+01</totfact>
</mgrwt>
</event>
<event>
12    1  0.7781383E-008  0.1412314E+04  0.7818608E-02  0.8944953E-01
         -1   -1    0    0    0  501 -0.00000000000E+00  0.00000000000E+00  0.89611039243E+03  0.89611039243E+03  0.00000000000E+00 0.  1.
          1   -1    0    0  501    0  0.00000000000E+00 -0.00000000000E+00 -0.24083149945E+04  0.24083149945E+04  0.00000000000E+00 0. -1.
         23    2    1    2    0    0 -0.13584634298E+04  0.23761850308E+03 -0.10365278793E+04  0.17271821415E+04  0.82961812109E+02 0.  0.
    5000000    2    1    2    0    0  0.13584634298E+04 -0.23761850308E+03 -0.47567672273E+03  0.15772432454E+04  0.59961860179E+03 0.  0.
         23    2    4    4    0    0  0.15399499338E+03  0.10373957357E+03 -0.20900316359E+03  0.29399390641E+03  0.90960087414E+02 0.  0.
         23    2    4    4    0    0  0.12044684364E+04 -0.34135807665E+03 -0.26667355914E+03  0.12832493390E+04  0.91348388845E+02 0.  0.
          1    1    3    3  502    0 -0.80280467264E+03  0.16319371576E+03 -0.65767819908E+03  0.10505561122E+04  0.00000000000E+00 0. -1.
         -1    1    3    3    0  502 -0.55565875714E+03  0.74424787312E+02 -0.37884968027E+03  0.67662602935E+03  0.00000000000E+00 0.  1.
         15    1    5    5    0    0  0.93424194608E+02  0.92040228005E+02 -0.18712782137E+03  0.22851578276E+03  0.17770000000E+01 0. -1.
        -15    1    5    5    0    0  0.60570798768E+02  0.11699345566E+02 -0.21875342221E+02  0.65478123647E+02  0.17770000000E+01 0.  1.
          1    1    6    6  503    0  0.86865521545E+03 -0.24720666172E+03 -0.23395057850E+03  0.93295545987E+03  0.00000000000E+00 0. -1.
         -1    1    6    6    0  503  0.33581322096E+03 -0.94151414930E+02 -0.32722980643E+02  0.35029387914E+03  0.00000000000E+00 0.  1.
<mgrwt>
<rscale>  0 0.14123138E+04</rscale>
<asrwt>0</asrwt>
<pdfrwt beam="1">  1        1 0.37051000E+00 0.14123138E+04</pdfrwt>
<pdfrwt beam="2">  1       -1 0.13786314E+00 0.14123138E+04</pdfrwt>
<totfact> 0.65717916E-01</totfact>
</mgrwt>
</event>
<event>
12    1  0.7781383E-008  0.1980319E+04  0.7818608E-02  0.8615878E-01
          2   -1    0    0  501    0  0.00000000000E+00  0.00000000000E+00  0.16280081158E+04  0.16280081158E+04  0.00000000000E+00 0.  1.
         -2   -1    0    0    0  501 -0.00000000000E+00 -0.00000000000E+00 -0.25893692946E+04  0.25893692946E+04  0.00000000000E+00 0. -1.
         23    2    1    2    0    0  0.53468307380E+03  0.19034678442E+04 -0.83260844336E+03  0.21471983155E+04  0.90266067214E+02 0.  0.
    5000000    2    1    2    0    0 -0.53468307380E+03 -0.19034678442E+04 -0.12875273540E+03  0.20701790949E+04  0.59999032888E+03 0.  0.
         23    2    4    4    0    0 -0.37687550296E+03 -0.11969687588E+04 -0.35242948348E+03  0.13068269836E+04  0.93919487275E+02 0.  0.
         23    2    4    4    0    0 -0.15780757083E+03 -0.70649908539E+03  0.22367674808E+03  0.76335211124E+03  0.92903019472E+02 0.  0.
          2    1    3    3  502    0  0.33759718054E+03  0.10474632950E+04 -0.48078831134E+03  0.12009615360E+04  0.00000000000E+00 0. -1.
         -2    1    3    3    0  502  0.19708589326E+03  0.85600454923E+03 -0.35182013202E+03  0.94623677952E+03  0.00000000000E+00 0.  1.
         15    1    5    5    0    0 -0.34200092960E+03 -0.10103508712E+04 -0.27316760850E+03  0.11010891058E+04  0.17770000000E+01 0. -1.
        -15    1    5    5    0    0 -0.34874573358E+02 -0.18661788760E+03 -0.79261874981E+02  0.20573787787E+03  0.17770000000E+01 0.  1.
          3    1    6    6  503    0 -0.31479199950E+02 -0.23352848618E+03  0.11352668408E+03  0.26156223329E+03  0.00000000000E+00 0. -1.
         -3    1    6    6    0  503 -0.12632837088E+03 -0.47297059921E+03  0.11015006400E+03  0.50178987795E+03  0.00000000000E+00 0.  1.
<mgrwt>
<rscale>  0 0.19803188E+04</rscale>
<asrwt>0</asrwt>
<pdfrwt beam="1">  1        2 0.25046279E+00 0.19803188E+04</pdfrwt>
<pdfrwt beam="2">  1       -2 0.39836451E+00 0.19803188E+04</pdfrwt>
<totfact> 0.73101413E-02</totfact>
</mgrwt>
</event>
<event>
12    1  0.7781383E-008  0.1538167E+04  0.7818608E-02  0.8859462E-01
         -2   -1    0    0    0  501 -0.00000000000E+00  0.00000000000E+00  0.15934294807E+04  0.15934294807E+04  0.00000000000E+00 0. -1.
          2   -1    0    0  501    0  0.00000000000E+00 -0.00000000000E+00 -0.19880271531E+04  0.19880271531E+04  0.00000000000E+00 0.  1.
         23    2    1    2    0    0 -0.14238712833E+04  0.55330412580E+03  0.62081847524E+03  0.16515170136E+04  0.92401190608E+02 0.  0.
    5000000    2    1    2    0    0  0.14238712833E+04 -0.55330412580E+03 -0.10154161477E+04  0.19299396202E+04  0.60003508034E+03 0.  0.
         23    2    4    4    0    0  0.19588130784E+03 -0.16623890540E+03 -0.43599546933E+03  0.51504248386E+03  0.95769778479E+02 0.  0.
         23    2    4    4    0    0  0.12279899754E+04 -0.38706522039E+03 -0.57942067838E+03  0.14148971363E+04  0.91797163876E+02 0.  0.
          1    1    3    3  502    0 -0.63204626350E+03  0.22826494774E+03  0.31947991159E+03  0.74407982064E+03  0.00000000000E+00 0. -1.
         -1    1    3    3    0  502 -0.79182501976E+03  0.32503917806E+03  0.30133856365E+03  0.90743719294E+03  0.00000000000E+00 0.  1.
         15    1    5    5    0    0  0.18428964891E+03 -0.15047201355E+03 -0.43444900936E+03  0.49533180901E+03  0.17770000000E+01 0.  1.
        -15    1    5    5    0    0  0.11591658929E+02 -0.15766891854E+02 -0.15464599741E+01  0.19710674847E+02  0.17770000000E+01 0. -1.
          2    1    6    6  503    0  0.62895778647E+03 -0.15012625483E+03 -0.29070657733E+03  0.70896833755E+03  0.00000000000E+00 0.  1.
         -2    1    6    6    0  503  0.59903218896E+03 -0.23693896556E+03 -0.28871410105E+03  0.70592879878E+03  0.00000000000E+00 0. -1.
<mgrwt>
<rscale>  0 0.15381670E+04</rscale>
<asrwt>0</asrwt>
<pdfrwt beam="1">  1        2 0.30585033E+00 0.15381670E+04</pdfrwt>
<pdfrwt beam="2">  1       -2 0.24514300E+00 0.15381670E+04</pdfrwt>
<totfact> 0.43617050E-01</totfact>
</mgrwt>
</event>
<event>
12    1  0.7781383E-008  0.1857923E+04  0.7818608E-02  0.8676089E-01
          2   -1    0    0  501    0  0.00000000000E+00  0.00000000000E+00  0.21131980119E+04  0.21131980119E+04  0.00000000000E+00 0. -1.
         -2   -1    0    0    0  501 -0.00000000000E+00 -0.00000000000E+00 -0.16847889893E+04  0.16847889893E+04  0.00000000000E+00 0.  1.
         23    2    1    2    0    0  0.27323673305E+03  0.18059727470E+04  0.18228298402E+01  0.18287336618E+04  0.89819864670E+02 0.  0.
    5000000    2    1    2    0    0 -0.27323673305E+03 -0.18059727470E+04  0.42658619272E+03  0.19692533394E+04  0.59982252341E+03 0.  0.
         23    2    4    4    0    0 -0.35814273293E+03 -0.81880716792E+03  0.37291205956E+03  0.97270875488E+03  0.91583417041E+02 0.  0.
         23    2    4    4    0    0  0.84905999884E+02 -0.98716557907E+03  0.53674133163E+02  0.99654458447E+03  0.92278312469E+02 0.  0.
          4    1    3    3  502    0  0.70650854042E+02  0.25591656759E+03  0.16563033215E+01  0.26549496433E+03  0.00000000000E+00 0. -1.
         -4    1    3    3    0  502  0.20258587901E+03  0.15500561794E+04  0.16652651878E+00  0.15632386975E+04  0.00000000000E+00 0.  1.
         15    1    5    5    0    0 -0.19794255744E+03 -0.39649260416E+03  0.22785319205E+03  0.49830500304E+03  0.17770000000E+01 0.  1.
        -15    1    5    5    0    0 -0.16020017549E+03 -0.42231456376E+03  0.14505886751E+03  0.47440375184E+03  0.17770000000E+01 0. -1.
          3    1    6    6  503    0 -0.49985113953E+01 -0.18837632881E+03 -0.19184555508E+02  0.18941666648E+03  0.00000000000E+00 0. -1.
         -3    1    6    6    0  503  0.89904511280E+02 -0.79878925026E+03  0.72858688671E+02  0.80712791799E+03  0.00000000000E+00 0.  1.
<mgrwt>
<rscale>  0 0.18579231E+04</rscale>
<asrwt>0</asrwt>
<pdfrwt beam="1">  1        2 0.32510739E+00 0.18579231E+04</pdfrwt>
<pdfrwt beam="2">  1       -2 0.25919831E+00 0.18579231E+04</pdfrwt>
<totfact> 0.29456000E-01</totfact>
</mgrwt>
</event>
<event>
12    1  0.7781383E-008  0.4028801E+03  0.7818608E-02  0.1042787E+00
          1   -1    0    0  501    0  0.00000000000E+00  0.00000000000E+00  0.18120632861E+04  0.18120632861E+04  0.00000000000E+00 0. -1.
         -1   -1    0    0    0  501 -0.00000000000E+00 -0.00000000000E+00 -0.98270426488E+02  0.98270426488E+02  0.00000000000E+00 0.  1.
         23    2    1    2    0    0 -0.18233178729E+03  0.45431933480E+02  0.32900214770E+03  0.38949280395E+03  0.90295569684E+02 0.  0.
    5000000    2    1    2    0    0  0.18233178729E+03 -0.45431933480E+02  0.13847907119E+04  0.15208409086E+04  0.60000234360E+03 0.  0.
         23    2    4    4    0    0  0.18265546344E+03  0.24476791810E+03  0.62174305134E+03  0.69911412164E+03  0.94455180496E+02 0.  0.
         23    2    4    4    0    0 -0.32367614808E+00 -0.29019985158E+03  0.76304766054E+03  0.82172678697E+03  0.93686293219E+02 0.  0.
          1    1    3    3  502    0 -0.14865791788E+03  0.53147007071E+01  0.28330677306E+03  0.31998460940E+03  0.00000000000E+00 0. -1.
         -1    1    3    3    0  502 -0.33673869417E+02  0.40117232773E+02  0.45695374639E+02  0.69508194555E+02  0.00000000000E+00 0.  1.
         15    1    5    5    0    0  0.97783936477E+02  0.16402480478E+03  0.28943628262E+03  0.34675979329E+03  0.17770000000E+01 0. -1.
        -15    1    5    5    0    0  0.84871526965E+02  0.80743113323E+02  0.33230676872E+03  0.35235432834E+03  0.17770000000E+01 0.  1.
          2    1    6    6  503    0  0.28820001311E+02 -0.18927425195E+03  0.39456001111E+03  0.43855779242E+03  0.00000000000E+00 0. -1.
         -2    1    6    6    0  503 -0.29143677459E+02 -0.10092559963E+03  0.36848764943E+03  0.38316899454E+03  0.00000000000E+00 0.  1.
<mgrwt>
<rscale>  0 0.40288014E+03</rscale>
<asrwt>0</asrwt>
<pdfrwt beam="1">  1        1 0.27877894E+00 0.40288014E+03</pdfrwt>
<pdfrwt beam="2">  1       -1 0.15118528E-01 0.40288014E+03</pdfrwt>
<totfact> 0.13884311E+02</totfact>
</mgrwt>
</event>
<event>
12    1  0.7781383E-008  0.1281319E+04  0.7818608E-02  0.9044512E-01
          1   -1    0    0  501    0  0.00000000000E+00  0.00000000000E+00  0.13747251588E+04  0.13747251588E+04  0.00000000000E+00 0. -1.
         -1   -1    0    0    0  501 -0.00000000000E+00 -0.00000000000E+00 -0.12627506445E+04  0.12627506445E+04  0.00000000000E+00 0.  1.
         23    2    1    2    0    0  0.12108729440E+04 -0.19435958188E+03  0.28197828912E+03  0.12616250363E+04  0.90537524134E+02 0.  0.
    5000000    2    1    2    0    0 -0.12108729440E+04  0.19435958188E+03 -0.17000377474E+03  0.13758507670E+04  0.60006259343E+03 0.  0.
         23    2    4    4    0    0  0.37525156505E+02  0.91361040710E+01 -0.29609565238E+02  0.10272646594E+03  0.90467644396E+02 0.  0.
         23    2    4    4    0    0 -0.12483981005E+04  0.18522347781E+03 -0.14039420950E+03  0.12731243010E+04  0.91265534610E+02 0.  0.
          4    1    3    3  502    0  0.83738542630E+03 -0.11753931729E+03  0.23356053961E+03  0.87725729917E+03  0.00000000000E+00 0.  1.
         -4    1    3    3    0  502  0.37348751766E+03 -0.76820264588E+02  0.48417749505E+02  0.38436773715E+03  0.00000000000E+00 0. -1.
         15    1    5    5    0    0  0.19496185243E+02 -0.25039501354E+02  0.21688975467E+02  0.38479179473E+02  0.17770000000E+01 0. -1.
        -15    1    5    5    0    0  0.18028971262E+02  0.34175605425E+02 -0.51298540706E+02  0.64247286468E+02  0.17770000000E+01 0.  1.
          4    1    6    6  503    0 -0.68675201046E+03  0.14713819421E+03 -0.70544494288E+02  0.70587144562E+03  0.00000000000E+00 0.  1.
         -4    1    6    6    0  503 -0.56164609000E+03  0.38085283603E+02 -0.69849715210E+02  0.56725285539E+03  0.00000000000E+00 0. -1.
<mgrwt>
<rscale>  0 0.12813192E+04</rscale>
<asrwt>0</asrwt>
<pdfrwt beam="1">  1        1 0.21149618E+00 0.12813192E+04</pdfrwt>
<pdfrwt beam="2">  1       -1 0.19426933E+00 0.12813192E+04</pdfrwt>
<totfact> 0.12815700E+00</totfact>
</mgrwt>
</event>
<event>
12    1  0.8306767E-008  0.8014056E+03  0.7818608E-02  0.9557985E-01
         -2   -1    0    0    0  501 -0.00000000000E+00  0.00000000000E+00  0.48512557651E+03  0.48512557651E+03  0.00000000000E+00 0.  1.
          2   -1    0    0  501    0  0.00000000000E+00 -0.00000000000E+00 -0.13610907725E+04  0.13610907725E+04  0.00000000000E+00 0. -1.
         23    2    1    2    0    0 -0.69815944839E+03 -0.18905691360E+02 -0.38587183150E+03  0.80313069208E+03  0.91311541794E+02 0.  0.
    5000000    2    1    2    0    0  0.69815944839E+03  0.18905691360E+02 -0.49009336451E+03  0.10430856570E+04  0.60004344948E+03 0.  0.
         23    2    4    4    0    0  0.76797799639E+03  0.90248645973E+02 -0.36317804825E+03  0.85847596915E+03  0.84543916630E+02 0.  0.
         23    2    4    4    0    0 -0.69818548000E+02 -0.71342954614E+02 -0.12691531627E+03  0.18460968781E+03  0.89491857231E+02 0.  0.
          4    1    3    3  502    0 -0.46826986503E+03 -0.32408453177E+02 -0.21450963796E+03  0.51608270569E+03  0.00000000000E+00 0. -1.
         -4    1    3    3    0  502 -0.22988958336E+03  0.13502761818E+02 -0.17136219354E+03  0.28704798639E+03  0.00000000000E+00 0.  1.
         15    1    5    5    0    0  0.42220612164E+03  0.36308823029E+02 -0.15467942986E+03  0.45111553235E+03  0.17770000000E+01 0. -1.
        -15    1    5    5    0    0  0.34577187475E+03  0.53939822944E+02 -0.20849861839E+03  0.40736043680E+03  0.17770000000E+01 0.  1.
          1    1    6    6  503    0 -0.39140336003E+02  0.11723531930E+02 -0.19131056478E+02  0.45115456612E+02  0.00000000000E+00 0. -1.
         -1    1    6    6    0  503 -0.30678211997E+02 -0.83066486544E+02 -0.10778425979E+03  0.13949423119E+03  0.00000000000E+00 0.  1.
<mgrwt>
<rscale>  0 0.80140563E+03</rscale>
<asrwt>0</asrwt>
<pdfrwt beam="1">  1        2 0.20939858E+00 0.80140563E+03</pdfrwt>
<pdfrwt beam="2">  1       -2 0.74634703E-01 0.80140563E+03</pdfrwt>
<totfact> 0.24976680E+01</totfact>
</mgrwt>
</event>
<event>
12    1  0.7781383E-008  0.6816385E+03  0.7818608E-02  0.9749158E-01
         -1   -1    0    0    0  501 -0.00000000000E+00  0.00000000000E+00  0.61311268575E+03  0.61311268575E+03  0.00000000000E+00 0.  1.
          1   -1    0    0  501    0  0.00000000000E+00 -0.00000000000E+00 -0.96599110575E+03  0.96599110575E+03  0.00000000000E+00 0. -1.
         23    2    1    2    0    0  0.50103118204E+03 -0.26912932568E+03  0.17040829413E+03  0.60068007194E+03  0.91185101840E+02 0.  0.
    5000000    2    1    2    0    0 -0.50103118204E+03  0.26912932568E+03 -0.52328671414E+03  0.97842371957E+03  0.60001762516E+03 0.  0.
         23    2    4    4    0    0  0.95356760931E+02  0.11184991297E+03 -0.12581264154E+02  0.17247418443E+03  0.89362974430E+02 0.  0.
         23    2    4    4    0    0 -0.59638794297E+03  0.15727941271E+03 -0.51070544998E+03  0.80594953514E+03  0.91209672545E+02 0.  0.
          2    1    3    3  502    0  0.47993414231E+02 -0.60429608747E+02  0.20593725114E+02  0.79869937630E+02  0.00000000000E+00 0. -1.
         -2    1    3    3    0  502  0.45303776780E+03 -0.20869971694E+03  0.14981456902E+03  0.52081013431E+03  0.00000000000E+00 0.  1.
         15    1    5    5    0    0  0.32471735481E+02 -0.35707276946E+01  0.18240566958E+02  0.37457171721E+02  0.17770000000E+01 0.  1.
        -15    1    5    5    0    0  0.62885025450E+02  0.11542064067E+03 -0.30821831112E+02  0.13501701271E+03  0.17770000000E+01 0. -1.
          3    1    6    6  503    0 -0.35948425596E+03  0.13939639281E+03 -0.32891644437E+03  0.50680007103E+03  0.00000000000E+00 0. -1.
         -3    1    6    6    0  503 -0.23690368700E+03  0.17883019902E+02 -0.18178900561E+03  0.29914946411E+03  0.00000000000E+00 0.  1.
<mgrwt>
<rscale>  0 0.68163847E+03</rscale>
<asrwt>0</asrwt>
<pdfrwt beam="1">  1        1 0.14861402E+00 0.68163847E+03</pdfrwt>
<pdfrwt beam="2">  1       -1 0.94325029E-01 0.68163847E+03</pdfrwt>
<totfact> 0.18185448E+01</totfact>
</mgrwt>
</event>
<event>
12    1  0.7781383E-008  0.1950402E+04  0.7818608E-02  0.8630167E-01
          1   -1    0    0  501    0  0.00000000000E+00  0.00000000000E+00  0.31047897062E+04  0.31047897062E+04  0.00000000000E+00 0. -1.
         -1   -1    0    0    0  501 -0.00000000000E+00 -0.00000000000E+00 -0.13274722984E+04  0.13274722984E+04  0.00000000000E+00 0.  1.
         23    2    1    2    0    0 -0.70784703991E+03  0.18093814067E+04  0.42713678766E+03  0.19913651688E+04  0.90448292376E+02 0.  0.
    5000000    2    1    2    0    0  0.70784703991E+03 -0.18093814067E+04  0.13501806201E+04  0.24408968358E+04  0.60006762046E+03 0.  0.
         23    2    4    4    0    0  0.52590126014E+03 -0.14932349065E+04  0.80364436913E+03  0.17776719495E+04  0.89166510655E+02 0.  0.
         23    2    4    4    0    0  0.18194577977E+03 -0.31614650019E+03  0.54653625099E+03  0.66322488626E+03  0.90069416290E+02 0.  0.
          2    1    3    3  502    0 -0.13130004992E+03  0.30446672223E+03  0.10601988246E+03  0.34810903971E+03  0.00000000000E+00 0.  1.
         -2    1    3    3    0  502 -0.57654698999E+03  0.15049146844E+04  0.32111690520E+03  0.16432561291E+04  0.00000000000E+00 0. -1.
         15    1    5    5    0    0  0.34977025140E+03 -0.86981362745E+03  0.49257913752E+03  0.10590336821E+04  0.17770000000E+01 0. -1.
        -15    1    5    5    0    0  0.17613100874E+03 -0.62342127902E+03  0.31106523161E+03  0.71863826744E+03  0.17770000000E+01 0.  1.
          3    1    6    6  503    0  0.18852755407E+03 -0.29429838618E+03  0.48675297228E+03  0.59923504135E+03  0.00000000000E+00 0. -1.
         -3    1    6    6    0  503 -0.65817743072E+01 -0.21848114012E+02  0.59783278712E+02  0.63989844917E+02  0.00000000000E+00 0.  1.
<mgrwt>
<rscale>  0 0.19504017E+04</rscale>
<asrwt>0</asrwt>
<pdfrwt beam="1">  1        1 0.47765995E+00 0.19504017E+04</pdfrwt>
<pdfrwt beam="2">  1       -1 0.20422651E+00 0.19504017E+04</pdfrwt>
<totfact> 0.63319786E-02</totfact>
</mgrwt>
</event>
<event>
12    1  0.8095261E-008  0.7017393E+03  0.7818608E-02  0.9714262E-01
         -2   -1    0    0    0  501 -0.00000000000E+00  0.00000000000E+00  0.26105042135E+03  0.26105042135E+03  0.00000000000E+00 0.  1.
          2   -1    0    0  501    0  0.00000000000E+00 -0.00000000000E+00 -0.25553040653E+04  0.25553040653E+04  0.00000000000E+00 0. -1.
         23    2    1    2    0    0  0.14323518211E+03  0.57248661362E+03 -0.34248564245E+03  0.69089520557E+03  0.10854736128E+03 0.  0.
    5000000    2    1    2    0    0 -0.14323518211E+03 -0.57248661362E+03 -0.19517680015E+04  0.21254592810E+04  0.59993464946E+03 0.  0.
         23    2    4    4    0    0  0.10313559740E+03 -0.54456698935E+03 -0.11169543184E+04  0.12502475041E+04  0.91332987976E+02 0.  0.
         23    2    4    4    0    0 -0.24637077951E+03 -0.27919624269E+02 -0.83481368305E+03  0.87521177695E+03  0.87199212720E+02 0.  0.
          1    1    3    3  502    0  0.87533118153E+02  0.45137564825E+03 -0.30729893618E+03  0.55302319914E+03  0.00000000000E+00 0. -1.
         -1    1    3    3    0  502  0.55702063959E+02  0.12111096537E+03 -0.35186706265E+02  0.13787200644E+03  0.00000000000E+00 0.  1.
         15    1    5    5    0    0  0.39958865465E+02 -0.28632343875E+03 -0.48474252423E+03  0.56440791545E+03  0.17770000000E+01 0. -1.
        -15    1    5    5    0    0  0.63176731931E+02 -0.25824355060E+03 -0.63221179420E+03  0.68583958864E+03  0.17770000000E+01 0.  1.
          2    1    6    6  503    0 -0.15019597839E+03 -0.46982601280E+02 -0.40841486916E+03  0.43768584864E+03  0.00000000000E+00 0. -1.
         -2    1    6    6    0  503 -0.96174801118E+02  0.19062977011E+02 -0.42639881389E+03  0.43752592831E+03  0.00000000000E+00 0.  1.
<mgrwt>
<rscale>  0 0.70173925E+03</rscale>
<asrwt>0</asrwt>
<pdfrwt beam="1">  1        2 0.39312371E+00 0.70173925E+03</pdfrwt>
<pdfrwt beam="2">  1       -2 0.40161602E-01 0.70173925E+03</pdfrwt>
<totfact> 0.20014450E+01</totfact>
</mgrwt>
</event>
<event>
12    1  0.8950995E-008  0.8370569E+03  0.7818608E-02  0.9507875E-01
         -2   -1    0    0    0  501 -0.00000000000E+00  0.00000000000E+00  0.70198893864E+03  0.70198893864E+03  0.00000000000E+00 0.  1.
          2   -1    0    0  501    0  0.00000000000E+00 -0.00000000000E+00 -0.10374582050E+04  0.10374582050E+04  0.00000000000E+00 0. -1.
         23    2    1    2    0    0 -0.14279022042E+03 -0.72345191207E+03 -0.40392655453E+02  0.74403171412E+03  0.90442848705E+02 0.  0.
    5000000    2    1    2    0    0  0.14279022042E+03  0.72345191207E+03 -0.29507661088E+03  0.99541542950E+03  0.60000829567E+03 0.  0.
         23    2    4    4    0    0  0.24344122221E+03  0.76157601482E+03 -0.28641127594E+03  0.85420260920E+03  0.91482367470E+02 0.  0.
         23    2    4    4    0    0 -0.10065100179E+03 -0.38124102751E+02 -0.86653349380E+01  0.14121282030E+03  0.91004951599E+02 0.  0.
          2    1    3    3  502    0 -0.10798241300E+03 -0.32665730281E+03 -0.41447720807E+01  0.34406739766E+03  0.00000000000E+00 0. -1.
         -2    1    3    3    0  502 -0.34807807415E+02 -0.39679460926E+03 -0.36247883373E+02  0.39996431646E+03  0.00000000000E+00 0.  1.
         15    1    5    5    0    0  0.16352046337E+03  0.50484722054E+03 -0.23531028039E+03  0.58050300930E+03  0.17770000000E+01 0.  1.
        -15    1    5    5    0    0  0.79920758838E+02  0.25672879428E+03 -0.51100995546E+02  0.27369959990E+03  0.17770000000E+01 0. -1.
          1    1    6    6  503    0 -0.99122449476E+02 -0.52256328623E+01  0.15367224011E+02  0.10044261448E+03  0.00000000000E+00 0. -1.
         -1    1    6    6    0  503 -0.15285523120E+01 -0.32898469889E+02 -0.24032558949E+02  0.40770205822E+02  0.00000000000E+00 0.  1.
<mgrwt>
<rscale>  0 0.83705691E+03</rscale>
<asrwt>0</asrwt>
<pdfrwt beam="1">  1        2 0.15960895E+00 0.83705691E+03</pdfrwt>
<pdfrwt beam="2">  1       -2 0.10799830E+00 0.83705691E+03</pdfrwt>
<totfact> 0.16505636E+01</totfact>
</mgrwt>
</event>
<event>
12    1  0.7781383E-008  0.9564422E+03  0.7818608E-02  0.9357652E-01
         -1   -1    0    0    0  501 -0.00000000000E+00  0.00000000000E+00  0.11530218696E+04  0.11530218696E+04  0.00000000000E+00 0.  1.
          1   -1    0    0  501    0  0.00000000000E+00 -0.00000000000E+00 -0.94494606166E+03  0.94494606166E+03  0.00000000000E+00 0. -1.
         23    2    1    2    0    0  0.90378000385E+03 -0.27826759558E+02 -0.21315841207E+03  0.93389212461E+03  0.95526791347E+02 0.  0.
    5000000    2    1    2    0    0 -0.90378000385E+03  0.27826759558E+02  0.42123422001E+03  0.11640758066E+04  0.60003465867E+03 0.  0.
         23    2    4    4    0    0 -0.48214491150E+02  0.11872880878E+03 -0.67180046619E+02  0.17060451784E+03  0.90396767936E+02 0.  0.
         23    2    4    4    0    0 -0.85556551270E+03 -0.90902049226E+02  0.48841426663E+03  0.99347128880E+03  0.90449857661E+02 0.  0.
          2    1    3    3  502    0  0.25841453938E+03  0.63714031036E+01 -0.10320616236E+03  0.27833465629E+03  0.00000000000E+00 0. -1.
         -2    1    3    3    0  502  0.64536546447E+03 -0.34198162661E+02 -0.10995224971E+03  0.65555746833E+03  0.00000000000E+00 0.  1.
         15    1    5    5    0    0  0.19209318743E+02  0.22561019031E+02 -0.40391820208E+02  0.50126384021E+02  0.17770000000E+01 0. -1.
        -15    1    5    5    0    0 -0.67423809893E+02  0.96167789753E+02 -0.26788226411E+02  0.12047813382E+03  0.17770000000E+01 0.  1.
          3    1    6    6  503    0 -0.68248085614E+03 -0.59563458202E+02  0.34796809063E+03  0.76838123133E+03  0.00000000000E+00 0. -1.
         -3    1    6    6    0  503 -0.17308465656E+03 -0.31338591024E+02  0.14044617599E+03  0.22509005748E+03  0.00000000000E+00 0.  1.
<mgrwt>
<rscale>  0 0.95644222E+03</rscale>
<asrwt>0</asrwt>
<pdfrwt beam="1">  1        1 0.14537632E+00 0.95644222E+03</pdfrwt>
<pdfrwt beam="2">  1       -1 0.17738798E+00 0.95644222E+03</pdfrwt>
<totfact> 0.36669650E+00</totfact>
</mgrwt>
</event>
<event>
12    1  0.7781383E-008  0.5696790E+03  0.7818608E-02  0.9970389E-01
         -2   -1    0    0    0  501 -0.00000000000E+00  0.00000000000E+00  0.46099545334E+03  0.46099545334E+03  0.00000000000E+00 0.  1.
          2   -1    0    0  501    0  0.00000000000E+00 -0.00000000000E+00 -0.74536234196E+03  0.74536234196E+03  0.00000000000E+00 0. -1.
         23    2    1    2    0    0 -0.42247481977E+03  0.59563686103E+02 -0.10316054779E+03  0.44815165475E+03  0.90360395012E+02 0.  0.
    5000000    2    1    2    0    0  0.42247481977E+03 -0.59563686103E+02 -0.18120634083E+03  0.75820614055E+03  0.60000667293E+03 0.  0.
         23    2    4    4    0    0  0.18986204533E+03  0.24535758727E+03  0.77592851123E+01  0.32314870236E+03  0.90094036690E+02 0.  0.
         23    2    4    4    0    0  0.23261277444E+03 -0.30492127337E+03 -0.18896562594E+03  0.43505743819E+03  0.80506403152E+02 0.  0.
          1    1    3    3  502    0 -0.33227927181E+03  0.17703765015E+02 -0.10428487943E+03  0.34870944043E+03  0.00000000000E+00 0. -1.
         -1    1    3    3    0  502 -0.90195547965E+02  0.41859921088E+02  0.11243316356E+01  0.99442214315E+02  0.00000000000E+00 0.  1.
         15    1    5    5    0    0  0.67385187438E+02  0.32465330328E+02 -0.15589613495E+02  0.76426140405E+02  0.17770000000E+01 0. -1.
        -15    1    5    5    0    0  0.12247685789E+03  0.21289225694E+03  0.23348898607E+02  0.24672256196E+03  0.17770000000E+01 0.  1.
          4    1    6    6  503    0  0.12576594380E+03 -0.12396573327E+03 -0.51514483465E+02  0.18395194387E+03  0.00000000000E+00 0.  1.
         -4    1    6    6    0  503  0.10684683064E+03 -0.18095554010E+03 -0.13745114248E+03  0.25110549432E+03  0.00000000000E+00 0. -1.
<mgrwt>
<rscale>  0 0.56967901E+03</rscale>
<asrwt>0</asrwt>
<pdfrwt beam="1">  1        2 0.11467113E+00 0.56967901E+03</pdfrwt>
<pdfrwt beam="2">  1       -2 0.70922378E-01 0.56967901E+03</pdfrwt>
<totfact> 0.70174765E+01</totfact>
</mgrwt>
</event>
<event>
12    1  0.7781383E-008  0.1104205E+04  0.7818608E-02  0.9201103E-01
          2   -1    0    0  501    0  0.00000000000E+00  0.00000000000E+00  0.22325273851E+04  0.22325273851E+04  0.00000000000E+00 0.  1.
         -2   -1    0    0    0  501 -0.00000000000E+00 -0.00000000000E+00 -0.84448664773E+03  0.84448664773E+03  0.00000000000E+00 0. -1.
         23    2    1    2    0    0  0.92996194716E+03 -0.54314706991E+03 -0.16572787101E+03  0.10935772212E+04  0.92776337689E+02 0.  0.
    5000000    2    1    2    0    0 -0.92996194716E+03  0.54314706991E+03  0.15537686084E+04  0.19834368116E+04  0.59998894531E+03 0.  0.
         23    2    4    4    0    0 -0.48722841068E+03  0.12074030704E+03  0.11116408196E+04  0.12230464930E+04  0.90153571115E+02 0.  0.
         23    2    4    4    0    0 -0.44273353648E+03  0.42240676287E+03  0.44212778879E+03  0.76039031858E+03  0.90972508642E+02 0.  0.
          1    1    3    3  502    0  0.31896924850E+03 -0.13660810986E+03 -0.59049241099E+02  0.35198007052E+03  0.00000000000E+00 0. -1.
         -1    1    3    3    0  502  0.61099269866E+03 -0.40653896005E+03 -0.10667862991E+03  0.74159715070E+03  0.00000000000E+00 0.  1.
         15    1    5    5    0    0 -0.17266137961E+03  0.87616043091E+02  0.41313512813E+03  0.45625904357E+03  0.17770000000E+01 0. -1.
        -15    1    5    5    0    0 -0.31456703106E+03  0.33124263949E+02  0.69850569144E+03  0.76678744942E+03  0.17770000000E+01 0.  1.
          3    1    6    6  503    0 -0.17354922514E+03  0.11117818491E+03  0.16863263421E+03  0.26630224871E+03  0.00000000000E+00 0. -1.
         -3    1    6    6    0  503 -0.26918431134E+03  0.31122857797E+03  0.27349515458E+03  0.49408806988E+03  0.00000000000E+00 0.  1.
<mgrwt>
<rscale>  0 0.11042053E+04</rscale>
<asrwt>0</asrwt>
<pdfrwt beam="1">  1        2 0.34346575E+00 0.11042053E+04</pdfrwt>
<pdfrwt beam="2">  1       -2 0.12992102E+00 0.11042053E+04</pdfrwt>
<totfact> 0.21278089E+00</totfact>
</mgrwt>
</event>
<event>
12    1  0.7781383E-008  0.6992391E+03  0.7818608E-02  0.9718534E-01
         -2   -1    0    0    0  501 -0.00000000000E+00  0.00000000000E+00  0.37658913290E+03  0.37658913290E+03  0.00000000000E+00 0.  1.
          2   -1    0    0  501    0  0.00000000000E+00 -0.00000000000E+00 -0.17369424865E+04  0.17369424865E+04  0.00000000000E+00 0. -1.
         23    2    1    2    0    0 -0.65180417935E+03 -0.23936387507E+03 -0.57583016672E+03  0.90634789086E+03  0.87990712378E+02 0.  0.
    5000000    2    1    2    0    0  0.65180417935E+03  0.23936387507E+03 -0.78452318690E+03  0.12071837285E+04  0.59972674677E+03 0.  0.
         23    2    4    4    0    0  0.51665681545E+03  0.21298252742E+03 -0.85726985467E+03  0.10274526234E+04  0.91931864154E+02 0.  0.
         23    2    4    4    0    0  0.13514736390E+03  0.26381347649E+02  0.72746667774E+02  0.17973110516E+03  0.89724060414E+02 0.  0.
          2    1    3    3  502    0 -0.47562766620E+03 -0.17497033463E+03 -0.36748422906E+03  0.62600395643E+03  0.00000000000E+00 0. -1.
         -2    1    3    3    0  502 -0.17617651315E+03 -0.64393540432E+02 -0.20834593766E+03  0.28034393444E+03  0.00000000000E+00 0.  1.
         15    1    5    5    0    0  0.41300707106E+03  0.20828243392E+03 -0.70320114358E+03  0.84169556199E+03  0.17770000000E+01 0.  1.
        -15    1    5    5    0    0  0.10364974440E+03  0.47000935011E+01 -0.15406871109E+03  0.18575706140E+03  0.17770000000E+01 0. -1.
          4    1    6    6  503    0  0.87322971981E+02  0.19395928622E+02 -0.34284718149E+01  0.89516802342E+02  0.00000000000E+00 0. -1.
         -4    1    6    6    0  503  0.47824391916E+02  0.69854190267E+01  0.76175139589E+02  0.90214302816E+02  0.00000000000E+00 0.  1.
<mgrwt>
<rscale>  0 0.69923906E+03</rscale>
<asrwt>0</asrwt>
<pdfrwt beam="1">  1        2 0.26722192E+00 0.69923906E+03</pdfrwt>
<pdfrwt beam="2">  1       -2 0.57936789E-01 0.69923906E+03</pdfrwt>
<totfact> 0.26982000E+01</totfact>
</mgrwt>
</event>
<event>
12    1  0.7781383E-008  0.1200117E+04  0.7818608E-02  0.9112754E-01
         -1   -1    0    0    0  501 -0.00000000000E+00  0.00000000000E+00  0.17249089216E+04  0.17249089216E+04  0.00000000000E+00 0.  1.
          1   -1    0    0  501    0  0.00000000000E+00 -0.00000000000E+00 -0.10137752975E+04  0.10137752975E+04  0.00000000000E+00 0. -1.
         23    2    1    2    0    0  0.10796428819E+04  0.49014819294E+03 -0.80499245011E+02  0.11918952303E+04  0.90885137729E+02 0.  0.
    5000000    2    1    2    0    0 -0.10796428819E+04 -0.49014819294E+03  0.79163286908E+03  0.15467889887E+04  0.59999964398E+03 0.  0.
         23    2    4    4    0    0 -0.79350895327E+03 -0.44897302324E+03  0.28793922149E+03  0.96048091266E+03  0.91549734037E+02 0.  0.
         23    2    4    4    0    0 -0.28613392859E+03 -0.41175169705E+02  0.50369364760E+03  0.58630807605E+03  0.80509935510E+02 0.  0.
          4    1    3    3  502    0  0.62350224385E+03  0.32444794050E+03 -0.23558848393E+02  0.70326135506E+03  0.00000000000E+00 0. -1.
         -4    1    3    3    0  502  0.45614063802E+03  0.16570025244E+03 -0.56940396617E+02  0.48863387528E+03  0.00000000000E+00 0.  1.
         15    1    5    5    0    0 -0.66112361973E+03 -0.35440241406E+03  0.26798385787E+03  0.79655760461E+03  0.17770000000E+01 0. -1.
        -15    1    5    5    0    0 -0.13238533354E+03 -0.94570609173E+02  0.19955363623E+02  0.16392330805E+03  0.17770000000E+01 0.  1.
          2    1    6    6  503    0 -0.12320074684E+03 -0.56580359854E+02  0.20637177246E+03  0.24691915602E+03  0.00000000000E+00 0. -1.
         -2    1    6    6    0  503 -0.16293318176E+03  0.15405190149E+02  0.29732187513E+03  0.33938892002E+03  0.00000000000E+00 0.  1.
<mgrwt>
<rscale>  0 0.12001166E+04</rscale>
<asrwt>0</asrwt>
<pdfrwt beam="1">  1        1 0.15596543E+00 0.12001166E+04</pdfrwt>
<pdfrwt beam="2">  1       -1 0.26537060E+00 0.12001166E+04</pdfrwt>
<totfact> 0.80336617E-01</totfact>
</mgrwt>
</event>
<event>
12    1  0.7781383E-008  0.1313651E+04  0.7818608E-02  0.9018809E-01
          2   -1    0    0  501    0  0.00000000000E+00  0.00000000000E+00  0.31324102980E+04  0.31324102980E+04  0.00000000000E+00 0. -1.
         -2   -1    0    0    0  501 -0.00000000000E+00 -0.00000000000E+00 -0.71868013037E+03  0.71868013037E+03  0.00000000000E+00 0.  1.
         23    2    1    2    0    0 -0.11614612915E+04  0.60467713981E+03  0.19253196691E+04  0.23301638384E+04  0.90448387088E+02 0.  0.
    5000000    2    1    2    0    0  0.11614612915E+04 -0.60467713981E+03  0.48841049855E+03  0.15209265899E+04  0.60003841699E+03 0.  0.
         23    2    4    4    0    0  0.46869419349E+03 -0.26867513937E+03  0.50605771294E+03  0.74587054818E+03  0.91476162400E+02 0.  0.
         23    2    4    4    0    0  0.69276709800E+03 -0.33600200045E+03 -0.17647214384E+02  0.77505604177E+03  0.87045087929E+02 0.  0.
          4    1    3    3  502    0 -0.33961043365E+03  0.18491893374E+03  0.64250114625E+03  0.74989197998E+03  0.00000000000E+00 0.  1.
         -4    1    3    3    0  502 -0.82185085785E+03  0.41975820607E+03  0.12828185228E+04  0.15802718585E+04  0.00000000000E+00 0. -1.
         15    1    5    5    0    0  0.40324477043E+03 -0.19094548893E+03  0.40581295384E+03  0.60312008411E+03  0.17770000000E+01 0. -1.
        -15    1    5    5    0    0  0.65449423063E+02 -0.77729650439E+02  0.10024475910E+03  0.14275046407E+03  0.17770000000E+01 0.  1.
          4    1    6    6  503    0  0.52062949459E+03 -0.25006417248E+03  0.24527579075E+02  0.57809061844E+03  0.00000000000E+00 0. -1.
         -4    1    6    6    0  503  0.17213760341E+03 -0.85937827972E+02 -0.42174793459E+02  0.19696542333E+03  0.00000000000E+00 0.  1.
<mgrwt>
<rscale>  0 0.13136511E+04</rscale>
<asrwt>0</asrwt>
<pdfrwt beam="1">  1        2 0.48190927E+00 0.13136511E+04</pdfrwt>
<pdfrwt beam="2">  1       -2 0.11056618E+00 0.13136511E+04</pdfrwt>
<totfact> 0.90914147E-01</totfact>
</mgrwt>
</event>
<event>
12    1  0.7781383E-008  0.8063574E+03  0.7818608E-02  0.9550860E-01
          2   -1    0    0  501    0  0.00000000000E+00  0.00000000000E+00  0.58388412500E+03  0.58388412500E+03  0.00000000000E+00 0. -1.
         -2   -1    0    0    0  501 -0.00000000000E+00 -0.00000000000E+00 -0.12028762891E+04  0.12028762891E+04  0.00000000000E+00 0.  1.
         23    2    1    2    0    0  0.72448336568E+03 -0.34002101133E+02 -0.33165801985E+03  0.80269810382E+03  0.91076416924E+02 0.  0.
    5000000    2    1    2    0    0 -0.72448336568E+03  0.34002101133E+02 -0.28733414422E+03  0.98406231025E+03  0.59982116501E+03 0.  0.
         23    2    4    4    0    0 -0.31626679204E+02  0.16706587643E+03  0.46188653424E+02  0.19823349817E+03  0.90839827086E+02 0.  0.
         23    2    4    4    0    0 -0.69285668647E+03 -0.13306377530E+03 -0.33352279764E+03  0.78582881209E+03  0.92374829202E+02 0.  0.
          3    1    3    3  502    0  0.50290521063E+03 -0.64159328175E+00 -0.18999938910E+03  0.53760006545E+03  0.00000000000E+00 0. -1.
         -3    1    3    3    0  502  0.22157815505E+03 -0.33360507852E+02 -0.14165863074E+03  0.26509803836E+03  0.00000000000E+00 0.  1.
         15    1    5    5    0    0 -0.44519577172E+02  0.15847618212E+03  0.17457571596E+02  0.16554340091E+03  0.17770000000E+01 0.  1.
        -15    1    5    5    0    0  0.12892897968E+02  0.85896943106E+01  0.28731081828E+02  0.32690097252E+02  0.17770000000E+01 0. -1.
          2    1    6    6  503    0 -0.57340532377E+03 -0.11058105245E+03 -0.23545514185E+03  0.62965145780E+03  0.00000000000E+00 0.  1.
         -2    1    6    6    0  503 -0.11945136271E+03 -0.22482722844E+02 -0.98067655797E+02  0.15617735429E+03  0.00000000000E+00 0. -1.
<mgrwt>
<rscale>  0 0.80635736E+03</rscale>
<asrwt>0</asrwt>
<pdfrwt beam="1">  1        2 0.89828327E-01 0.80635736E+03</pdfrwt>
<pdfrwt beam="2">  1       -2 0.18505789E+00 0.80635736E+03</pdfrwt>
<totfact> 0.86807969E+00</totfact>
</mgrwt>
</event>
<event>
12    1  0.7781383E-008  0.1350495E+04  0.7818608E-02  0.8990453E-01
          1   -1    0    0  501    0  0.00000000000E+00  0.00000000000E+00  0.11799492722E+04  0.11799492722E+04  0.00000000000E+00 0. -1.
         -1   -1    0    0    0  501 -0.00000000000E+00 -0.00000000000E+00 -0.20107579660E+04  0.20107579660E+04  0.00000000000E+00 0.  1.
         23    2    1    2    0    0 -0.64307698941E+03  0.11746075616E+04  0.25339087824E+03  0.13658430150E+04  0.89829095836E+02 0.  0.
    5000000    2    1    2    0    0  0.64307698941E+03 -0.11746075616E+04 -0.10841995720E+04  0.18248642232E+04  0.60115703692E+03 0.  0.
         23    2    4    4    0    0 -0.60569192036E+01 -0.30446708749E+02  0.25773084572E+02  0.10113195032E+03  0.92734735362E+02 0.  0.
         23    2    4    4    0    0  0.64913390862E+03 -0.11441608528E+04 -0.11099726566E+04  0.17237322728E+04  0.93459946868E+02 0.  0.
          3    1    3    3  502    0 -0.23925568614E+03  0.48739184474E+03  0.65220165474E+02  0.54685259774E+03  0.00000000000E+00 0. -1.
         -3    1    3    3    0  502 -0.40382130327E+03  0.68721571685E+03  0.18817071277E+03  0.81899041728E+03  0.00000000000E+00 0.  1.
         15    1    5    5    0    0 -0.16904328480E+02 -0.11893041860E+02 -0.32746886612E+02  0.38764894916E+02  0.17770000000E+01 0. -1.
        -15    1    5    5    0    0  0.10847409276E+02 -0.18553666889E+02  0.58519971184E+02  0.62367055401E+02  0.17770000000E+01 0.  1.
          3    1    6    6  503    0  0.32589090722E+02 -0.10923479332E+03 -0.10317734764E+03  0.15375257387E+03  0.00000000000E+00 0. -1.
         -3    1    6    6    0  503  0.61654481789E+03 -0.10349260595E+04 -0.10067953089E+04  0.15699796990E+04  0.00000000000E+00 0.  1.
<mgrwt>
<rscale>  0 0.13504950E+04</rscale>
<asrwt>0</asrwt>
<pdfrwt beam="1">  1        1 0.18153066E+00 0.13504950E+04</pdfrwt>
<pdfrwt beam="2">  1       -1 0.30934738E+00 0.13504950E+04</pdfrwt>
<totfact> 0.30658533E-01</totfact>
</mgrwt>
</event>
<event>
12    1  0.7781383E-008  0.8438873E+03  0.7818608E-02  0.9498578E-01
          1   -1    0    0  501    0  0.00000000000E+00  0.00000000000E+00  0.53565974860E+03  0.53565974860E+03  0.00000000000E+00 0. -1.
         -1   -1    0    0    0  501 -0.00000000000E+00 -0.00000000000E+00 -0.16870469883E+04  0.16870469883E+04  0.00000000000E+00 0.  1.
         23    2    1    2    0    0  0.16169981228E+03  0.76683683769E+03 -0.12514309493E+03  0.79898612120E+03  0.92371330740E+02 0.  0.
    5000000    2    1    2    0    0 -0.16169981228E+03 -0.76683683769E+03 -0.10262441448E+04  0.14237206157E+04  0.59968140042E+03 0.  0.
         23    2    4    4    0    0  0.13206058861E+03 -0.14085031451E+03 -0.52018385795E+03  0.56202574664E+03  0.89458837800E+02 0.  0.
         23    2    4    4    0    0 -0.29376040089E+03 -0.62598652317E+03 -0.50606028687E+03  0.86169486910E+03  0.90921577022E+02 0.  0.
          3    1    3    3  502    0  0.72176747497E+02  0.31068468703E+03 -0.96560771309E+02  0.33325431758E+03  0.00000000000E+00 0. -1.
         -3    1    3    3    0  502  0.89523064782E+02  0.45615215066E+03 -0.28582323622E+02  0.46573180362E+03  0.00000000000E+00 0.  1.
         15    1    5    5    0    0  0.87684678704E+02 -0.14220258179E+03 -0.38383389765E+03  0.41861891484E+03  0.17770000000E+01 0. -1.
        -15    1    5    5    0    0  0.44375909904E+02  0.13522672738E+01 -0.13634996030E+03  0.14340683180E+03  0.17770000000E+01 0.  1.
          3    1    6    6  503    0 -0.24992014750E+03 -0.55997054603E+03 -0.47843594956E+03  0.77777120696E+03  0.00000000000E+00 0. -1.
         -3    1    6    6    0  503 -0.43840253384E+02 -0.66015977146E+02 -0.27624337304E+02  0.83923662139E+02  0.00000000000E+00 0.  1.
<mgrwt>
<rscale>  0 0.84388731E+03</rscale>
<asrwt>0</asrwt>
<pdfrwt beam="1">  1        1 0.82409193E-01 0.84388731E+03</pdfrwt>
<pdfrwt beam="2">  1       -1 0.25954569E+00 0.84388731E+03</pdfrwt>
<totfact> 0.25061007E+00</totfact>
</mgrwt>
</event>
<event>
12    1  0.7781383E-008  0.4805834E+03  0.7818608E-02  0.1018975E+00
          2   -1    0    0  501    0  0.00000000000E+00  0.00000000000E+00  0.42005684603E+04  0.42005684603E+04  0.00000000000E+00 0. -1.
         -2   -1    0    0    0  501 -0.00000000000E+00 -0.00000000000E+00 -0.93927759411E+02  0.93927759411E+02  0.00000000000E+00 0.  1.
         23    2    1    2    0    0  0.35840328100E+03 -0.15633404113E+03  0.25421025800E+04  0.25737954840E+04  0.96147918103E+02 0.  0.
    5000000    2    1    2    0    0 -0.35840328100E+03  0.15633404113E+03  0.15645381209E+04  0.17207007357E+04  0.60011519377E+03 0.  0.
         23    2    4    4    0    0 -0.16754768613E+03 -0.13077045886E+03  0.11531601537E+04  0.11761241681E+04  0.91195277936E+02 0.  0.
         23    2    4    4    0    0 -0.19085559486E+03  0.28710449998E+03  0.41137796721E+03  0.54457656758E+03  0.92070375511E+02 0.  0.
          2    1    3    3  502    0  0.10243426378E+03 -0.41894992152E+02  0.10289393756E+04  0.10348740056E+04  0.00000000000E+00 0.  1.
         -2    1    3    3    0  502  0.25596901722E+03 -0.11443904897E+03  0.15131632044E+04  0.15389214785E+04  0.00000000000E+00 0. -1.
         15    1    5    5    0    0 -0.10517281974E+03 -0.45754256882E+02  0.77847337609E+03  0.78687910701E+03  0.17770000000E+01 0. -1.
        -15    1    5    5    0    0 -0.62374866390E+02 -0.85016201974E+02  0.37468677757E+03  0.38924506107E+03  0.17770000000E+01 0.  1.
          1    1    6    6  503    0 -0.13877908392E+03  0.15556842734E+03  0.19125370176E+03  0.28291190883E+03  0.00000000000E+00 0.  1.
         -1    1    6    6    0  503 -0.52076510940E+02  0.13153607264E+03  0.22012426545E+03  0.26166465875E+03  0.00000000000E+00 0. -1.
<mgrwt>
<rscale>  0 0.48058335E+03</rscale>
<asrwt>0</asrwt>
<pdfrwt beam="1">  1        2 0.64624116E+00 0.48058335E+03</pdfrwt>
<pdfrwt beam="2">  1       -2 0.14450428E-01 0.48058335E+03</pdfrwt>
<totfact> 0.10342864E+01</totfact>
</mgrwt>
</event>
<event>
12    1  0.7781383E-008  0.9525304E+03  0.7818608E-02  0.9362198E-01
          2   -1    0    0  501    0  0.00000000000E+00  0.00000000000E+00  0.18428720919E+04  0.18428720919E+04  0.00000000000E+00 0. -1.
         -2   -1    0    0    0  501 -0.00000000000E+00 -0.00000000000E+00 -0.54080328320E+03  0.54080328320E+03  0.00000000000E+00 0.  1.
         23    2    1    2    0    0  0.13961672337E+03  0.88564115617E+03  0.43997872465E+03  0.10026972175E+04  0.89259985290E+02 0.  0.
    5000000    2    1    2    0    0 -0.13961672337E+03 -0.88564115617E+03  0.86209008405E+03  0.13809781576E+04  0.60004022507E+03 0.  0.
         23    2    4    4    0    0  0.54944500271E+02  0.18434849672E+02 -0.11636037677E+02  0.10549335392E+03  0.87376819333E+02 0.  0.
         23    2    4    4    0    0 -0.19456122365E+03 -0.90407600584E+03  0.87372612173E+03  0.12754848036E+04  0.90866134736E+02 0.  0.
          3    1    3    3  502    0  0.60871074099E+02  0.58447400515E+03  0.25486944962E+03  0.64052602344E+03  0.00000000000E+00 0. -1.
         -3    1    3    3    0  502  0.78745649276E+02  0.30116715102E+03  0.18510927503E+03  0.36217119410E+03  0.00000000000E+00 0.  1.
         15    1    5    5    0    0  0.10542725421E+00  0.22084823109E+02  0.29447428815E+02  0.36851856391E+02  0.17770000000E+01 0. -1.
        -15    1    5    5    0    0  0.54839073017E+02 -0.36499734373E+01 -0.41083466493E+02  0.68641497532E+02  0.17770000000E+01 0.  1.
          2    1    6    6  503    0 -0.12121343050E+03 -0.35698914002E+03  0.36883674825E+03  0.52742249543E+03  0.00000000000E+00 0. -1.
         -2    1    6    6    0  503 -0.73347793144E+02 -0.54708686582E+03  0.50488937348E+03  0.74806230821E+03  0.00000000000E+00 0.  1.
<mgrwt>
<rscale>  0 0.95253044E+03</rscale>
<asrwt>0</asrwt>
<pdfrwt beam="1">  1        2 0.28351878E+00 0.95253044E+03</pdfrwt>
<pdfrwt beam="2">  1       -2 0.83200506E-01 0.95253044E+03</pdfrwt>
<totfact> 0.10387325E+01</totfact>
</mgrwt>
</event>
<event>
12    1  0.7781383E-008  0.1193659E+04  0.7818608E-02  0.9118425E-01
          2   -1    0    0  501    0  0.00000000000E+00  0.00000000000E+00  0.23008202179E+04  0.23008202179E+04  0.00000000000E+00 0. -1.
         -2   -1    0    0    0  501 -0.00000000000E+00 -0.00000000000E+00 -0.68649262324E+03  0.68649262324E+03  0.00000000000E+00 0.  1.
         23    2    1    2    0    0  0.11490923601E+04  0.27859888039E+03  0.82084356007E+03  0.14420760518E+04  0.88139666230E+02 0.  0.
    5000000    2    1    2    0    0 -0.11490923601E+04 -0.27859888039E+03  0.79348403460E+03  0.15452367894E+04  0.60009102134E+03 0.  0.
         23    2    4    4    0    0 -0.39176433556E+03 -0.39913452585E+02 -0.20770538515E+02  0.40492172714E+03  0.91966360824E+02 0.  0.
         23    2    4    4    0    0 -0.75732802454E+03 -0.23868542780E+03  0.81425457312E+03  0.11403150622E+04  0.82410321780E+02 0.  0.
          1    1    3    3  502    0  0.29041561004E+03  0.10981191029E+03  0.22198715338E+03  0.38167810844E+03  0.00000000000E+00 0. -1.
         -1    1    3    3    0  502  0.85867675006E+03  0.16878697010E+03  0.59885640668E+03  0.10603979433E+04  0.00000000000E+00 0.  1.
         15    1    5    5    0    0 -0.15470288333E+03 -0.60996430752E+02 -0.45350719128E+01  0.16636487394E+03  0.17770000000E+01 0.  1.
        -15    1    5    5    0    0 -0.23706145223E+03  0.21082978168E+02 -0.16235466603E+02  0.23855685320E+03  0.17770000000E+01 0. -1.
          1    1    6    6  503    0 -0.56924600699E+03 -0.14564770020E+03  0.62335942608E+03  0.85663950593E+03  0.00000000000E+00 0. -1.
         -1    1    6    6    0  503 -0.18808201756E+03 -0.93037727606E+02  0.19089514704E+03  0.28367555631E+03  0.00000000000E+00 0.  1.
<mgrwt>
<rscale>  0 0.11936586E+04</rscale>
<asrwt>0</asrwt>
<pdfrwt beam="1">  1        2 0.35397234E+00 0.11936586E+04</pdfrwt>
<pdfrwt beam="2">  1       -2 0.10561425E+00 0.11936586E+04</pdfrwt>
<totfact> 0.32208768E+00</totfact>
</mgrwt>
</event>
<event>
12    1  0.7781383E-008  0.6625536E+03  0.7818608E-02  0.9783504E-01
         -2   -1    0    0    0  501 -0.00000000000E+00  0.00000000000E+00  0.18106267989E+04  0.18106267989E+04  0.00000000000E+00 0.  1.
          2   -1    0    0  501    0  0.00000000000E+00 -0.00000000000E+00 -0.48048743311E+03  0.48048743311E+03  0.00000000000E+00 0. -1.
         23    2    1    2    0    0 -0.37596389687E+03  0.49411347254E+03  0.12777360984E+04  0.14260931604E+04  0.12504075156E+03 0.  0.
    5000000    2    1    2    0    0  0.37596389687E+03 -0.49411347254E+03  0.52403267449E+02  0.86502107165E+03  0.60001531352E+03 0.  0.
         23    2    4    4    0    0 -0.16813947632E+02 -0.78984642936E+02  0.22946940084E+03  0.25970981359E+03  0.90948879594E+02 0.  0.
         23    2    4    4    0    0  0.39277784450E+03 -0.41512882961E+03 -0.17706613339E+03  0.60531125806E+03  0.91885381017E+02 0.  0.
          3    1    3    3  502    0 -0.20289263533E+03  0.18155285270E+03  0.47624837348E+03  0.54857941361E+03  0.00000000000E+00 0. -1.
         -3    1    3    3    0  502 -0.17307126153E+03  0.31256061985E+03  0.80148772487E+03  0.87751374677E+03  0.00000000000E+00 0.  1.
         15    1    5    5    0    0 -0.50847511392E+02 -0.57060559625E+02  0.18131873406E+03  0.19677656855E+03  0.17770000000E+01 0.  1.
        -15    1    5    5    0    0  0.34033563760E+02 -0.21924083311E+02  0.48150666771E+02  0.62933245036E+02  0.17770000000E+01 0. -1.
          4    1    6    6  503    0  0.19332730844E+03 -0.13964083145E+03 -0.81585678492E+02  0.25205402780E+03  0.00000000000E+00 0. -1.
         -4    1    6    6    0  503  0.19945053605E+03 -0.27548799816E+03 -0.95480454894E+02  0.35325723026E+03  0.00000000000E+00 0.  1.
<mgrwt>
<rscale>  0 0.66255357E+03</rscale>
<asrwt>0</asrwt>
<pdfrwt beam="1">  1        2 0.73921145E-01 0.66255357E+03</pdfrwt>
<pdfrwt beam="2">  1       -2 0.27855797E+00 0.66255357E+03</pdfrwt>
<totfact> 0.29101955E+00</totfact>
</mgrwt>
</event>
<event>
12    1  0.7781383E-008  0.7426795E+03  0.7818608E-02  0.9646905E-01
         -3   -1    0    0    0  501 -0.00000000000E+00  0.00000000000E+00  0.35673776999E+03  0.35673776999E+03  0.00000000000E+00 0.  1.
          3   -1    0    0  501    0  0.00000000000E+00 -0.00000000000E+00 -0.22270475608E+04  0.22270475608E+04  0.00000000000E+00 0. -1.
         23    2    1    2    0    0  0.57262421961E+03 -0.30490657796E+03 -0.14789603306E+04  0.16173883342E+04  0.88061603394E+02 0.  0.
    5000000    2    1    2    0    0 -0.57262421961E+03  0.30490657796E+03 -0.39134946022E+03  0.96639699659E+03  0.59991852517E+03 0.  0.
         23    2    4    4    0    0 -0.16467830305E+03  0.37628426645E+03 -0.53097307967E+02  0.42346551532E+03  0.88288877459E+02 0.  0.
         23    2    4    4    0    0 -0.40794591656E+03 -0.71377688490E+02 -0.33825215225E+03  0.54293148127E+03  0.94050144051E+02 0.  0.
          3    1    3    3  502    0  0.27287786263E+03 -0.16228203806E+03 -0.82552742084E+03  0.88447346503E+03  0.00000000000E+00 0. -1.
         -3    1    3    3    0  502  0.29974635698E+03 -0.14262453990E+03 -0.65343290972E+03  0.73291486914E+03  0.00000000000E+00 0.  1.
         15    1    5    5    0    0 -0.77394210324E+02  0.22969516178E+03 -0.69244028056E+02  0.25208654126E+03  0.17770000000E+01 0.  1.
        -15    1    5    5    0    0 -0.87284092729E+02  0.14658910467E+03  0.16146720089E+02  0.17137897406E+03  0.17770000000E+01 0. -1.
          2    1    6    6  503    0 -0.82147420735E+02 -0.50548594032E+02 -0.57092932647E+02  0.11208462004E+03  0.00000000000E+00 0. -1.
         -2    1    6    6    0  503 -0.32579849583E+03 -0.20829094458E+02 -0.28115921960E+03  0.43084686122E+03  0.00000000000E+00 0.  1.
<mgrwt>
<rscale>  0 0.74267954E+03</rscale>
<asrwt>0</asrwt>
<pdfrwt beam="1">  1        3 0.34262270E+00 0.74267954E+03</pdfrwt>
<pdfrwt beam="2">  1       -3 0.54882734E-01 0.74267954E+03</pdfrwt>
<totfact> 0.19788067E-01</totfact>
</mgrwt>
</event>
<event>
12    1  0.1022016E-007  0.1050320E+04  0.7818608E-02  0.9255014E-01
         -2   -1    0    0    0  501 -0.00000000000E+00  0.00000000000E+00  0.47414520572E+03  0.47414520572E+03  0.00000000000E+00 0.  1.
          2   -1    0    0  501    0  0.00000000000E+00 -0.00000000000E+00 -0.25916605260E+04  0.25916605260E+04  0.00000000000E+00 0. -1.
         23    2    1    2    0    0 -0.10208980980E+04  0.94498736326E+02 -0.95323177817E+03  0.14024969335E+04  0.84757819251E+02 0.  0.
    5000000    2    1    2    0    0  0.10208980980E+04 -0.94498736326E+02 -0.11642835421E+04  0.16633087981E+04  0.59989753614E+03 0.  0.
         23    2    4    4    0    0  0.96051041927E+03 -0.11226246238E+03 -0.72910984263E+03  0.12145508276E+04  0.91375183868E+02 0.  0.
         23    2    4    4    0    0  0.60387678778E+02  0.17763726053E+02 -0.43517369942E+03  0.44875797053E+03  0.89695851230E+02 0.  0.
          1    1    3    3  502    0 -0.52631743403E+03  0.24585804767E+02 -0.53684227109E+03  0.75220617333E+03  0.00000000000E+00 0. -1.
         -1    1    3    3    0  502 -0.49458066402E+03  0.69912931559E+02 -0.41638950708E+03  0.65029076022E+03  0.00000000000E+00 0.  1.
         15    1    5    5    0    0  0.47290513430E+03 -0.14917426683E+02 -0.38281388577E+03  0.60861434795E+03  0.17770000000E+01 0. -1.
        -15    1    5    5    0    0  0.48760528497E+03 -0.97345035696E+02 -0.34629595686E+03  0.60593647965E+03  0.17770000000E+01 0.  1.
          1    1    6    6  503    0  0.67771813984E+02 -0.15733863482E+02 -0.21634011605E+03  0.22725232462E+03  0.00000000000E+00 0. -1.
         -1    1    6    6    0  503 -0.73841352057E+01  0.33497589535E+02 -0.21883358337E+03  0.22150564591E+03  0.00000000000E+00 0.  1.
<mgrwt>
<rscale>  0 0.10503196E+04</rscale>
<asrwt>0</asrwt>
<pdfrwt beam="1">  1        2 0.39871700E+00 0.10503196E+04</pdfrwt>
<pdfrwt beam="2">  1       -2 0.72945417E-01 0.10503196E+04</pdfrwt>
<totfact> 0.52574951E+00</totfact>
</mgrwt>
</event>
<event>
12    1  0.7781383E-008  0.8545266E+03  0.7818608E-02  0.9484282E-01
         -2   -1    0    0    0  501 -0.00000000000E+00  0.00000000000E+00  0.49280321379E+03  0.49280321379E+03  0.00000000000E+00 0.  1.
          2   -1    0    0  501    0  0.00000000000E+00 -0.00000000000E+00 -0.17702978850E+04  0.17702978850E+04  0.00000000000E+00 0. -1.
         23    2    1    2    0    0 -0.72034130710E+03 -0.21639991905E+03 -0.13584684736E+03  0.77015556654E+03  0.94682136877E+02 0.  0.
    5000000    2    1    2    0    0  0.72034130710E+03  0.21639991905E+03 -0.11416478238E+04  0.14929455323E+04  0.59983838233E+03 0.  0.
         23    2    4    4    0    0  0.53009603453E+03  0.40868577179E+03 -0.76095001480E+03  0.10175673818E+04  0.91501833411E+02 0.  0.
         23    2    4    4    0    0  0.19024527258E+03 -0.19228585273E+03 -0.38069780904E+03  0.47537815049E+03  0.88805693841E+02 0.  0.
          3    1    3    3  502    0 -0.54009368041E+03 -0.18138472336E+03 -0.13924372844E+03  0.58650696278E+03  0.00000000000E+00 0. -1.
         -3    1    3    3    0  502 -0.18024762670E+03 -0.35015195694E+02  0.33968810809E+01  0.18364860375E+03  0.00000000000E+00 0.  1.
         15    1    5    5    0    0  0.37595630051E+03  0.32872467128E+03 -0.52484982001E+03  0.72448156685E+03  0.17770000000E+01 0. -1.
        -15    1    5    5    0    0  0.15413973401E+03  0.79961100502E+02 -0.23610019479E+03  0.29308581491E+03  0.17770000000E+01 0.  1.
          2    1    6    6  503    0  0.10773207386E+03 -0.51397495455E+02 -0.13299200431E+03  0.17870303715E+03  0.00000000000E+00 0.  1.
         -2    1    6    6    0  503  0.82513198719E+02 -0.14088835728E+03 -0.24770580472E+03  0.29667511334E+03  0.00000000000E+00 0. -1.
<mgrwt>
<rscale>  0 0.85452663E+03</rscale>
<asrwt>0</asrwt>
<pdfrwt beam="1">  1        2 0.27235352E+00 0.85452663E+03</pdfrwt>
<pdfrwt beam="2">  1       -2 0.75815881E-01 0.85452663E+03</pdfrwt>
<totfact> 0.14194946E+01</totfact>
</mgrwt>
</event>
<event>
12    1  0.7781383E-008  0.1058376E+04  0.7818608E-02  0.9246739E-01
         -1   -1    0    0    0  501 -0.00000000000E+00  0.00000000000E+00  0.32943038086E+03  0.32943038086E+03  0.00000000000E+00 0.  1.
          1   -1    0    0  501    0  0.00000000000E+00 -0.00000000000E+00 -0.44583401461E+04  0.44583401461E+04  0.00000000000E+00 0. -1.
         23    2    1    2    0    0  0.42540615632E+03  0.94077265672E+03 -0.28749984716E+04  0.30561129919E+04  0.90481035870E+02 0.  0.
    5000000    2    1    2    0    0 -0.42540615632E+03 -0.94077265672E+03 -0.12539112936E+04  0.17316575351E+04  0.60026718810E+03 0.  0.
         23    2    4    4    0    0 -0.43601088504E+03 -0.63778934203E+03 -0.53310151557E+03  0.94295893848E+03  0.89964421186E+02 0.  0.
         23    2    4    4    0    0  0.10604728719E+02 -0.30298331469E+03 -0.72080977808E+03  0.78869859663E+03  0.10279781565E+03 0.  0.
          3    1    3    3  502    0  0.28295520935E+03  0.72101669376E+03 -0.21452040172E+04  0.22807518494E+04  0.00000000000E+00 0. -1.
         -3    1    3    3    0  502  0.14245094697E+03  0.21975596296E+03 -0.72979445441E+03  0.77536114246E+03  0.00000000000E+00 0.  1.
         15    1    5    5    0    0 -0.19605770988E+03 -0.25617231717E+03 -0.17337470913E+03  0.36623056833E+03  0.17770000000E+01 0. -1.
        -15    1    5    5    0    0 -0.23995317516E+03 -0.38161702486E+03 -0.35972680644E+03  0.57672837015E+03  0.17770000000E+01 0.  1.
          3    1    6    6  503    0  0.12162175302E+02 -0.16786101323E+02 -0.13645675363E+03  0.13802223486E+03  0.00000000000E+00 0. -1.
         -3    1    6    6    0  503 -0.15574465831E+01 -0.28619721337E+03 -0.58435302445E+03  0.65067636176E+03  0.00000000000E+00 0.  1.
<mgrwt>
<rscale>  0 0.10583759E+04</rscale>
<asrwt>0</asrwt>
<pdfrwt beam="1">  1        1 0.68589845E+00 0.10583759E+04</pdfrwt>
<pdfrwt beam="2">  1       -1 0.50681599E-01 0.10583759E+04</pdfrwt>
<totfact> 0.14713731E-01</totfact>
</mgrwt>
</event>
<event>
12    1  0.7781383E-008  0.1545953E+04  0.7818608E-02  0.8854457E-01
         -2   -1    0    0    0  501 -0.00000000000E+00  0.00000000000E+00  0.15823957778E+04  0.15823957778E+04  0.00000000000E+00 0.  1.
          2   -1    0    0  501    0  0.00000000000E+00 -0.00000000000E+00 -0.19479185343E+04  0.19479185343E+04  0.00000000000E+00 0. -1.
         23    2    1    2    0    0  0.57842245404E+03 -0.13984641103E+04 -0.96371267537E+03  0.17958751102E+04  0.78427595902E+02 0.  0.
    5000000    2    1    2    0    0 -0.57842245404E+03  0.13984641103E+04  0.59818991889E+03  0.17344392019E+04  0.60014478519E+03 0.  0.
         23    2    4    4    0    0  0.73194511963E+02  0.16155252819E+03 -0.24206002919E+02  0.20162543146E+03  0.92791314732E+02 0.  0.
         23    2    4    4    0    0 -0.65161696600E+03  0.12369115821E+04  0.62239592181E+03  0.15328137705E+04  0.87100168070E+02 0.  0.
          3    1    3    3  502    0  0.46712756556E+03 -0.11449827838E+04 -0.82190512398E+03  0.14848305528E+04  0.00000000000E+00 0. -1.
         -3    1    3    3    0  502  0.11129488847E+03 -0.25348132648E+03 -0.14180755138E+03  0.31104455742E+03  0.00000000000E+00 0.  1.
         15    1    5    5    0    0  0.73529864062E+02  0.15680100153E+03 -0.46038272708E+02  0.17920902676E+03  0.17770000000E+01 0. -1.
        -15    1    5    5    0    0 -0.33535209941E+00  0.47515266583E+01  0.21832269789E+02  0.22416404701E+02  0.17770000000E+01 0.  1.
          3    1    6    6  503    0 -0.50050871086E+03  0.10151958682E+04  0.48558640905E+03  0.12316354092E+04  0.00000000000E+00 0. -1.
         -3    1    6    6    0  503 -0.15110825513E+03  0.22171571387E+03  0.13680951276E+03  0.30117836132E+03  0.00000000000E+00 0.  1.
<mgrwt>
<rscale>  0 0.15459528E+04</rscale>
<asrwt>0</asrwt>
<pdfrwt beam="1">  1        2 0.29967977E+00 0.15459528E+04</pdfrwt>
<pdfrwt beam="2">  1       -2 0.24344550E+00 0.15459528E+04</pdfrwt>
<totfact> 0.47008432E-01</totfact>
</mgrwt>
</event>
<event>
12    1  0.7781383E-008  0.7063386E+03  0.7818608E-02  0.9706453E-01
         -2   -1    0    0    0  501 -0.00000000000E+00  0.00000000000E+00  0.19616683742E+03  0.19616683742E+03  0.00000000000E+00 0.  1.
          2   -1    0    0  501    0  0.00000000000E+00 -0.00000000000E+00 -0.30357120400E+04  0.30357120400E+04  0.00000000000E+00 0. -1.
         23    2    1    2    0    0 -0.32427878672E+03  0.49737132507E+03 -0.66047199474E+03  0.89525376810E+03  0.11278779603E+03 0.  0.
    5000000    2    1    2    0    0  0.32427878672E+03 -0.49737132507E+03 -0.21790732079E+04  0.23366251094E+04  0.59910090126E+03 0.  0.
         23    2    4    4    0    0  0.32237054838E+03 -0.49170927389E+01 -0.10366801428E+04  0.10894130647E+04  0.90377866594E+02 0.  0.
         23    2    4    4    0    0  0.19082383378E+01 -0.49245423233E+03 -0.11423930651E+04  0.12472120447E+04  0.89225315499E+02 0.  0.
          4    1    3    3  502    0 -0.16685620185E+03  0.23261407682E+03 -0.39987324038E+03  0.49178136322E+03  0.00000000000E+00 0.  1.
         -4    1    3    3    0  502 -0.15742258487E+03  0.26475724825E+03 -0.26059875436E+03  0.40347240488E+03  0.00000000000E+00 0. -1.
         15    1    5    5    0    0  0.57813824626E+02  0.16834307254E+02 -0.30920735097E+03  0.31502091334E+03  0.17770000000E+01 0. -1.
        -15    1    5    5    0    0  0.26455672376E+03 -0.21751399993E+02 -0.72747279182E+03  0.77439215134E+03  0.17770000000E+01 0.  1.
          1    1    6    6  503    0 -0.45206661843E+01 -0.54716739691E+02 -0.21158185220E+03  0.21858919965E+03  0.00000000000E+00 0. -1.
         -1    1    6    6    0  503  0.64289045222E+01 -0.43773749264E+03 -0.93081121289E+03  0.10286228450E+04  0.00000000000E+00 0.  1.
<mgrwt>
<rscale>  0 0.70633856E+03</rscale>
<asrwt>0</asrwt>
<pdfrwt beam="1">  1        2 0.46703262E+00 0.70633856E+03</pdfrwt>
<pdfrwt beam="2">  1       -2 0.30179513E-01 0.70633856E+03</pdfrwt>
<totfact> 0.17918728E+01</totfact>
</mgrwt>
</event>
<event>
12    1  0.7781383E-008  0.1396779E+04  0.7818608E-02  0.8956154E-01
         -1   -1    0    0    0  501 -0.00000000000E+00  0.00000000000E+00  0.13419353214E+04  0.13419353214E+04  0.00000000000E+00 0.  1.
          1   -1    0    0  501    0  0.00000000000E+00 -0.00000000000E+00 -0.15245733863E+04  0.15245733863E+04  0.00000000000E+00 0. -1.
         23    2    1    2    0    0  0.12193773084E+04 -0.55646458160E+03  0.17566024235E+03  0.13548788200E+04  0.91138605101E+02 0.  0.
    5000000    2    1    2    0    0 -0.12193773084E+04  0.55646458160E+03 -0.35829830730E+03  0.15116298876E+04  0.60009448357E+03 0.  0.
         23    2    4    4    0    0 -0.50298167382E+03 -0.42792021579E+02 -0.23733839667E+03  0.56521993456E+03  0.91226852304E+02 0.  0.
         23    2    4    4    0    0 -0.71639563463E+03  0.59925660318E+03 -0.12095991063E+03  0.94640995306E+03  0.93430816701E+02 0.  0.
          2    1    3    3  502    0  0.37010111712E+03 -0.12344496428E+03  0.51509114893E+02  0.39353104708E+03  0.00000000000E+00 0. -1.
         -2    1    3    3    0  502  0.84927619133E+03 -0.43301961732E+03  0.12415112746E+03  0.96134777297E+03  0.00000000000E+00 0.  1.
         15    1    5    5    0    0 -0.32637888540E+03  0.15295055736E+02 -0.14170515832E+03  0.35614691518E+03  0.17770000000E+01 0. -1.
        -15    1    5    5    0    0 -0.17660278841E+03 -0.58087077315E+02 -0.95633238350E+02  0.20907301938E+03  0.17770000000E+01 0.  1.
          2    1    6    6  503    0 -0.19112319937E+03  0.20802207004E+03 -0.14602528233E+02  0.28286833119E+03  0.00000000000E+00 0.  1.
         -2    1    6    6    0  503 -0.52527243526E+03  0.39123453314E+03 -0.10635738240E+03  0.66354162187E+03  0.00000000000E+00 0. -1.
<mgrwt>
<rscale>  0 0.13967786E+04</rscale>
<asrwt>0</asrwt>
<pdfrwt beam="1">  1        1 0.23454975E+00 0.13967786E+04</pdfrwt>
<pdfrwt beam="2">  1       -1 0.20645159E+00 0.13967786E+04</pdfrwt>
<totfact> 0.81860631E-01</totfact>
</mgrwt>
</event>
<event>
12    1  0.7781383E-008  0.5734053E+03  0.7818608E-02  0.9962171E-01
          2   -1    0    0  501    0  0.00000000000E+00  0.00000000000E+00  0.45004903004E+03  0.45004903004E+03  0.00000000000E+00 0. -1.
         -2   -1    0    0    0  501 -0.00000000000E+00 -0.00000000000E+00 -0.80425529956E+03  0.80425529956E+03  0.00000000000E+00 0.  1.
         23    2    1    2    0    0 -0.42542565161E+03 -0.37339394165E+02  0.12729765378E+01  0.43659596642E+03  0.90736993691E+02 0.  0.
    5000000    2    1    2    0    0  0.42542565161E+03  0.37339394165E+02 -0.35547924606E+03  0.81770836317E+03  0.59991687543E+03 0.  0.
         23    2    4    4    0    0  0.40694970592E+03 -0.21197720797E+03 -0.22050369033E+03  0.51741954679E+03  0.92513296876E+02 0.  0.
         23    2    4    4    0    0  0.18475945688E+02  0.24931660213E+03 -0.13497555572E+03  0.30028881639E+03  0.97236021812E+02 0.  0.
          4    1    3    3  502    0 -0.60523211435E+02 -0.31096769940E+02 -0.20285293492E+02  0.71003953095E+02  0.00000000000E+00 0. -1.
         -4    1    3    3    0  502 -0.36490244017E+03 -0.62426242247E+01  0.21558270030E+02  0.36559201333E+03  0.00000000000E+00 0.  1.
         15    1    5    5    0    0  0.16269590116E+02 -0.18284074953E+02  0.70800300901E+01  0.25539998326E+02  0.17770000000E+01 0.  1.
        -15    1    5    5    0    0  0.39068011581E+03 -0.19369313301E+03 -0.22758372042E+03  0.49187954846E+03  0.17770000000E+01 0. -1.
          4    1    6    6  503    0  0.29158465815E+02  0.12167455829E+03 -0.17222815799E+02  0.12629940478E+03  0.00000000000E+00 0. -1.
         -4    1    6    6    0  503 -0.10682520127E+02  0.12764204384E+03 -0.11775273992E+03  0.17398941161E+03  0.00000000000E+00 0.  1.
<mgrwt>
<rscale>  0 0.57340530E+03</rscale>
<asrwt>0</asrwt>
<pdfrwt beam="1">  1        2 0.69238313E-01 0.57340530E+03</pdfrwt>
<pdfrwt beam="2">  1       -2 0.12373158E+00 0.57340530E+03</pdfrwt>
<totfact> 0.35121227E+01</totfact>
</mgrwt>
</event>
<event>
12    1  0.7781383E-008  0.8521979E+03  0.7818608E-02  0.9487392E-01
          1   -1    0    0  501    0  0.00000000000E+00  0.00000000000E+00  0.85131811007E+03  0.85131811007E+03  0.00000000000E+00 0. -1.
         -1   -1    0    0    0  501 -0.00000000000E+00 -0.00000000000E+00 -0.93961193457E+03  0.93961193457E+03  0.00000000000E+00 0.  1.
         23    2    1    2    0    0 -0.66898107530E+03 -0.37694815074E+03  0.15048932898E+03  0.78747978232E+03  0.88610281377E+02 0.  0.
    5000000    2    1    2    0    0  0.66898107530E+03  0.37694815074E+03 -0.23878315348E+03  0.10034502623E+04  0.60022449726E+03 0.  0.
         23    2    4    4    0    0  0.11364807759E+03  0.35561523996E+03 -0.21461349987E+03  0.44026980925E+03  0.91654057068E+02 0.  0.
         23    2    4    4    0    0  0.55533299770E+03  0.21332910789E+02 -0.24169653610E+02  0.56318045307E+03  0.87967148121E+02 0.  0.
          3    1    3    3  502    0 -0.49431227534E+03 -0.25611538904E+03  0.14375361127E+03  0.57498245087E+03  0.00000000000E+00 0. -1.
         -3    1    3    3    0  502 -0.17466879995E+03 -0.12083276170E+03  0.67357177145E+01  0.21249733144E+03  0.00000000000E+00 0.  1.
         15    1    5    5    0    0  0.10189882307E+03  0.31898210191E+03 -0.15429379413E+03  0.36870406035E+03  0.17770000000E+01 0. -1.
        -15    1    5    5    0    0  0.11749254522E+02  0.36633138042E+02 -0.60319705746E+02  0.71565748895E+02  0.17770000000E+01 0.  1.
          4    1    6    6  503    0  0.48600435770E+03  0.46326370799E+02 -0.30856721794E+02  0.48918146491E+03  0.00000000000E+00 0. -1.
         -4    1    6    6    0  503  0.69328640003E+02 -0.24993460010E+02  0.66870681835E+01  0.73998988160E+02  0.00000000000E+00 0.  1.
<mgrwt>
<rscale>  0 0.85219794E+03</rscale>
<asrwt>0</asrwt>
<pdfrwt beam="1">  1        1 0.13097202E+00 0.85219794E+03</pdfrwt>
<pdfrwt beam="2">  1       -1 0.14455568E+00 0.85219794E+03</pdfrwt>
<totfact> 0.78419143E+00</totfact>
</mgrwt>
</event>
<event>
12    1  0.7781383E-008  0.1362511E+04  0.7818608E-02  0.8981411E-01
         -2   -1    0    0    0  501 -0.00000000000E+00  0.00000000000E+00  0.12972673671E+04  0.12972673671E+04  0.00000000000E+00 0.  1.
          2   -1    0    0  501    0  0.00000000000E+00 -0.00000000000E+00 -0.30603162687E+04  0.30603162687E+04  0.00000000000E+00 0. -1.
         23    2    1    2    0    0  0.47794318013E+03 -0.12548564735E+04  0.67861511764E+03  0.15072733402E+04  0.90884496571E+02 0.  0.
    5000000    2    1    2    0    0 -0.47794318013E+03  0.12548564735E+04 -0.24416640193E+04  0.28503102955E+04  0.59954244668E+03 0.  0.
         23    2    4    4    0    0 -0.26045168741E+03  0.32265962149E+03 -0.35333988207E+03  0.55120159839E+03  0.83844003908E+02 0.  0.
         23    2    4    4    0    0 -0.21749149272E+03  0.93219685200E+03 -0.20883241372E+04  0.22991086972E+04  0.92247379394E+02 0.  0.
          4    1    3    3  502    0  0.16506802317E+03 -0.54569500045E+03  0.26472159323E+03  0.62857617495E+03  0.00000000000E+00 0.  1.
         -4    1    3    3    0  502  0.31287515695E+03 -0.70916147303E+03  0.41389352441E+03  0.87869716525E+03  0.00000000000E+00 0. -1.
         15    1    5    5    0    0 -0.55666427837E+02  0.11442015728E+03 -0.14208127175E+03  0.19073795923E+03  0.17770000000E+01 0. -1.
        -15    1    5    5    0    0 -0.20478525957E+03  0.20823946421E+03 -0.21125861032E+03  0.36046363916E+03  0.17770000000E+01 0.  1.
          1    1    6    6  503    0 -0.16059937930E+03  0.51631522498E+03 -0.12321965111E+04  0.13456157751E+04  0.00000000000E+00 0. -1.
         -1    1    6    6    0  503 -0.56892113411E+02  0.41588162702E+03 -0.85612762614E+03  0.95349292210E+03  0.00000000000E+00 0.  1.
<mgrwt>
<rscale>  0 0.13625110E+04</rscale>
<asrwt>0</asrwt>
<pdfrwt beam="1">  1        2 0.47081789E+00 0.13625110E+04</pdfrwt>
<pdfrwt beam="2">  1       -2 0.19957959E+00 0.13625110E+04</pdfrwt>
<totfact> 0.20505758E-01</totfact>
</mgrwt>
</event>
<event>
12    1  0.7781383E-008  0.9393668E+03  0.7818608E-02  0.9377666E-01
          2   -1    0    0  501    0  0.00000000000E+00  0.00000000000E+00  0.94373745121E+03  0.94373745121E+03  0.00000000000E+00 0. -1.
         -2   -1    0    0    0  501 -0.00000000000E+00 -0.00000000000E+00 -0.11213453488E+04  0.11213453488E+04  0.00000000000E+00 0.  1.
         23    2    1    2    0    0 -0.86231678396E+03  0.20412059623E+03 -0.39123827621E+03  0.97378868910E+03  0.99707414758E+02 0.  0.
    5000000    2    1    2    0    0  0.86231678396E+03 -0.20412059623E+03  0.21363037863E+03  0.10912941109E+04  0.60002453625E+03 0.  0.
         23    2    4    4    0    0  0.34790177341E+03 -0.29170514227E+03 -0.99158368769E+02  0.47609911374E+03  0.10349130415E+03 0.  0.
         23    2    4    4    0    0  0.51441501055E+03  0.87584546044E+02  0.31278874740E+03  0.61519499716E+03  0.91291994433E+02 0.  0.
          2    1    3    3  502    0 -0.40662236938E+03  0.12513930063E+03 -0.14262303342E+03  0.44871251989E+03  0.00000000000E+00 0. -1.
         -2    1    3    3    0  502 -0.45569441458E+03  0.78981295597E+02 -0.24861524279E+03  0.52507616922E+03  0.00000000000E+00 0.  1.
         15    1    5    5    0    0  0.19885699809E+03 -0.11126360671E+03 -0.79034494421E+02  0.24119142792E+03  0.17770000000E+01 0. -1.
        -15    1    5    5    0    0  0.14904477532E+03 -0.18044153556E+03 -0.20123874347E+02  0.23490768581E+03  0.17770000000E+01 0.  1.
          4    1    6    6  503    0  0.16722045657E+03  0.69890839080E+02  0.90715535341E+02  0.20267392243E+03  0.00000000000E+00 0. -1.
         -4    1    6    6    0  503  0.34719455398E+03  0.17693706963E+02  0.22207321206E+03  0.41252107473E+03  0.00000000000E+00 0.  1.
<mgrwt>
<rscale>  0 0.93936678E+03</rscale>
<asrwt>0</asrwt>
<pdfrwt beam="1">  1        2 0.14519038E+00 0.93936678E+03</pdfrwt>
<pdfrwt beam="2">  1       -2 0.17251467E+00 0.93936678E+03</pdfrwt>
<totfact> 0.55925215E+00</totfact>
</mgrwt>
</event>
<event>
12    1  0.7781383E-008  0.2094494E+04  0.7818608E-02  0.8563672E-01
         -1   -1    0    0    0  501 -0.00000000000E+00  0.00000000000E+00  0.23723771206E+04  0.23723771206E+04  0.00000000000E+00 0.  1.
          1   -1    0    0  501    0  0.00000000000E+00 -0.00000000000E+00 -0.28300862879E+04  0.28300862879E+04  0.00000000000E+00 0. -1.
         23    2    1    2    0    0 -0.77190085302E+03  0.19395919011E+04 -0.17057620555E+04  0.26973649507E+04  0.91136258531E+02 0.  0.
    5000000    2    1    2    0    0  0.77190085302E+03 -0.19395919011E+04  0.12480528883E+04  0.25050984578E+04  0.60002883425E+03 0.  0.
         23    2    4    4    0    0  0.22688264431E+02 -0.22394349018E+03 -0.19397492316E+02  0.24247283349E+03  0.88041854438E+02 0.  0.
         23    2    4    4    0    0  0.74921258859E+03 -0.17156484109E+04  0.12674503806E+04  0.22626256243E+04  0.90968544142E+02 0.  0.
          3    1    3    3  502    0 -0.61878766218E+03  0.14745400152E+04 -0.12737300750E+04  0.20443959331E+04  0.00000000000E+00 0. -1.
         -3    1    3    3    0  502 -0.15311319084E+03  0.46505188590E+03 -0.43203198052E+03  0.65296901763E+03  0.00000000000E+00 0.  1.
         15    1    5    5    0    0  0.27853717403E+02 -0.21159288653E+03  0.62170869581E+01  0.21351625020E+03  0.17770000000E+01 0. -1.
        -15    1    5    5    0    0 -0.51654529719E+01 -0.12350603658E+02 -0.25614579274E+02  0.28956583284E+02  0.17770000000E+01 0.  1.
          3    1    6    6  503    0  0.16309312532E+03 -0.44737721350E+03  0.35429365741E+03  0.59352315402E+03  0.00000000000E+00 0. -1.
         -3    1    6    6    0  503  0.58611946327E+03 -0.12682711974E+04  0.91315672317E+03  0.16691024703E+04  0.00000000000E+00 0.  1.
<mgrwt>
<rscale>  0 0.20944945E+04</rscale>
<asrwt>0</asrwt>
<pdfrwt beam="1">  1        1 0.43539789E+00 0.20944945E+04</pdfrwt>
<pdfrwt beam="2">  1       -1 0.36498110E+00 0.20944945E+04</pdfrwt>
<totfact> 0.85539423E-03</totfact>
</mgrwt>
</event>
<event>
12    1  0.7781383E-008  0.1457493E+04  0.7818608E-02  0.8913222E-01
          2   -1    0    0  501    0  0.00000000000E+00  0.00000000000E+00  0.20022721454E+04  0.20022721454E+04  0.00000000000E+00 0. -1.
         -2   -1    0    0    0  501 -0.00000000000E+00 -0.00000000000E+00 -0.11599200023E+04  0.11599200023E+04  0.00000000000E+00 0.  1.
         23    2    1    2    0    0 -0.13640730790E+04 -0.31523483968E+03  0.84738011345E+03  0.16390173660E+04  0.90865286657E+02 0.  0.
    5000000    2    1    2    0    0  0.13640730790E+04  0.31523483968E+03 -0.50279704168E+01  0.15231747817E+04  0.59997313800E+03 0.  0.
         23    2    4    4    0    0  0.89276153060E+03 -0.75674698115E+02 -0.52543783188E+02  0.90216807889E+03  0.91632870537E+02 0.  0.
         23    2    4    4    0    0  0.47131154838E+03  0.39090953779E+03  0.47515812771E+02  0.62100670285E+03  0.91906094218E+02 0.  0.
          2    1    3    3  502    0 -0.40032329426E+03 -0.55184030594E+02  0.22188587289E+03  0.46101774125E+03  0.00000000000E+00 0. -1.
         -2    1    3    3    0  502 -0.96374978472E+03 -0.26005080909E+03  0.62549424056E+03  0.11779996247E+04  0.00000000000E+00 0.  1.
         15    1    5    5    0    0  0.69435826208E+03 -0.32331700719E+02 -0.68341635776E+02  0.69846436695E+03  0.17770000000E+01 0. -1.
        -15    1    5    5    0    0  0.19840326852E+03 -0.43342997396E+02  0.15797852587E+02  0.20370371194E+03  0.17770000000E+01 0.  1.
          4    1    6    6  503    0  0.14451287511E+03  0.90169678729E+02 -0.21026756690E+02  0.17162944541E+03  0.00000000000E+00 0. -1.
         -4    1    6    6    0  503  0.32679867326E+03  0.30073985907E+03  0.68542569461E+02  0.44937725744E+03  0.00000000000E+00 0.  1.
<mgrwt>
<rscale>  0 0.14574931E+04</rscale>
<asrwt>0</asrwt>
<pdfrwt beam="1">  1        2 0.30804187E+00 0.14574931E+04</pdfrwt>
<pdfrwt beam="2">  1       -2 0.17844923E+00 0.14574931E+04</pdfrwt>
<totfact> 0.11702442E+00</totfact>
</mgrwt>
</event>
<event>
12    1  0.7781383E-008  0.6983602E+03  0.7818608E-02  0.9720041E-01
         -2   -1    0    0    0  501 -0.00000000000E+00  0.00000000000E+00  0.37183720650E+03  0.37183720650E+03  0.00000000000E+00 0.  1.
          2   -1    0    0  501    0  0.00000000000E+00 -0.00000000000E+00 -0.17264188672E+04  0.17264188672E+04  0.00000000000E+00 0. -1.
         23    2    1    2    0    0  0.29025205761E+03  0.53310275171E+03 -0.16710417368E+03  0.63626793968E+03  0.92023287098E+02 0.  0.
    5000000    2    1    2    0    0 -0.29025205761E+03 -0.53310275171E+03 -0.11874774870E+04  0.14619881340E+04  0.59905068318E+03 0.  0.
         23    2    4    4    0    0  0.11629231191E+03 -0.26066844809E+03 -0.21150567276E+03  0.36634814805E+03  0.89467169006E+02 0.  0.
         23    2    4    4    0    0 -0.40654436951E+03 -0.27243430362E+03 -0.97597181420E+03  0.10956399859E+04  0.91690907260E+02 0.  0.
          4    1    3    3  502    0  0.26960407522E+03  0.52137863210E+03 -0.14683191169E+03  0.60504681280E+03  0.00000000000E+00 0. -1.
         -4    1    3    3    0  502  0.20647982392E+02  0.11724119614E+02 -0.20272261988E+02  0.31221126880E+02  0.00000000000E+00 0.  1.
         15    1    5    5    0    0  0.94699860551E+02 -0.11357962764E+03 -0.81565545175E+02  0.16889195153E+03  0.17770000000E+01 0. -1.
        -15    1    5    5    0    0  0.21592451355E+02 -0.14708882045E+03 -0.12994012759E+03  0.19745619652E+03  0.17770000000E+01 0.  1.
          2    1    6    6  503    0 -0.34436603440E+03 -0.23415636414E+03 -0.74607673452E+03  0.85442826633E+03  0.00000000000E+00 0. -1.
         -2    1    6    6    0  503 -0.62178335117E+02 -0.38277939484E+02 -0.22989507968E+03  0.24121171960E+03  0.00000000000E+00 0.  1.
<mgrwt>
<rscale>  0 0.69836024E+03</rscale>
<asrwt>0</asrwt>
<pdfrwt beam="1">  1        2 0.26560290E+00 0.69836024E+03</pdfrwt>
<pdfrwt beam="2">  1       -2 0.57205724E-01 0.69836024E+03</pdfrwt>
<totfact> 0.28080060E+01</totfact>
</mgrwt>
</event>
<event>
12    1  0.7781383E-008  0.6287333E+03  0.7818608E-02  0.9847524E-01
         -2   -1    0    0    0  501 -0.00000000000E+00  0.00000000000E+00  0.22716779735E+03  0.22716779735E+03  0.00000000000E+00 0.  1.
          2   -1    0    0  501    0  0.00000000000E+00 -0.00000000000E+00 -0.18149417675E+04  0.18149417675E+04  0.00000000000E+00 0. -1.
         23    2    1    2    0    0 -0.48287370895E+03  0.59856279006E+02 -0.46587378499E+03  0.67996713153E+03  0.92558756967E+02 0.  0.
    5000000    2    1    2    0    0  0.48287370895E+03 -0.59856279006E+02 -0.11219001852E+04  0.13621424334E+04  0.60001849160E+03 0.  0.
         23    2    4    4    0    0  0.19274889997E+03 -0.31103512802E+03 -0.55495214958E+03  0.67093701361E+03  0.91047232835E+02 0.  0.
         23    2    4    4    0    0  0.29012480899E+03  0.25117884901E+03 -0.56694803563E+03  0.69120541975E+03  0.95245148008E+02 0.  0.
          3    1    3    3  502    0 -0.34394826047E+03  0.77841042244E+02 -0.36358954037E+03  0.50651454827E+03  0.00000000000E+00 0. -1.
         -3    1    3    3    0  502 -0.13892544848E+03 -0.17984763238E+02 -0.10228424462E+03  0.17345258327E+03  0.00000000000E+00 0.  1.
         15    1    5    5    0    0  0.14129909460E+03 -0.15496726093E+03 -0.35261475764E+03  0.41026894975E+03  0.17770000000E+01 0.  1.
        -15    1    5    5    0    0  0.51449805365E+02 -0.15606786708E+03 -0.20233739194E+03  0.26066806386E+03  0.17770000000E+01 0. -1.
          4    1    6    6  503    0  0.99397803328E+02  0.13394713467E+03 -0.19036699928E+03  0.25310344251E+03  0.00000000000E+00 0. -1.
         -4    1    6    6    0  503  0.19072700566E+03  0.11723171433E+03 -0.37658103634E+03  0.43810197724E+03  0.00000000000E+00 0.  1.
<mgrwt>
<rscale>  0 0.62873333E+03</rscale>
<asrwt>0</asrwt>
<pdfrwt beam="1">  1        2 0.27922181E+00 0.62873333E+03</pdfrwt>
<pdfrwt beam="2">  1       -2 0.34948892E-01 0.62873333E+03</pdfrwt>
<totfact> 0.67625681E+01</totfact>
</mgrwt>
</event>
<event>
12    1  0.7781383E-008  0.1069373E+04  0.7818608E-02  0.9235568E-01
          2   -1    0    0  501    0  0.00000000000E+00  0.00000000000E+00  0.22139525764E+04  0.22139525764E+04  0.00000000000E+00 0. -1.
         -2   -1    0    0    0  501 -0.00000000000E+00 -0.00000000000E+00 -0.64602344650E+03  0.64602344650E+03  0.00000000000E+00 0.  1.
         23    2    1    2    0    0  0.10023915938E+04 -0.36357622819E+03  0.33243246419E+03  0.11212255270E+04  0.98278980763E+02 0.  0.
    5000000    2    1    2    0    0 -0.10023915938E+04  0.36357622819E+03  0.12354966657E+04  0.17387504959E+04  0.59985389458E+03 0.  0.
         23    2    4    4    0    0 -0.52861817663E+03  0.21247617674E+03  0.10541372484E+04  0.12015938849E+04  0.89661716687E+02 0.  0.
         23    2    4    4    0    0 -0.47377341721E+03  0.15110005145E+03  0.18135941730E+03  0.53715661097E+03  0.91397538603E+02 0.  0.
          2    1    3    3  502    0  0.51081477773E+03 -0.15279351003E+03  0.20626709308E+03  0.57168497230E+03  0.00000000000E+00 0.  1.
         -2    1    3    3    0  502  0.49157681611E+03 -0.21078271816E+03  0.12616537111E+03  0.54954055472E+03  0.00000000000E+00 0. -1.
         15    1    5    5    0    0 -0.51887440525E+03  0.20627465067E+03  0.99186918489E+03  0.11382387788E+04  0.17770000000E+01 0.  1.
        -15    1    5    5    0    0 -0.97437713840E+01  0.62015260758E+01  0.62268063499E+02  0.63355106087E+02  0.17770000000E+01 0. -1.
          2    1    6    6  503    0 -0.30868562494E+03  0.12707500476E+03  0.15578833269E+03  0.36838142798E+03  0.00000000000E+00 0.  1.
         -2    1    6    6    0  503 -0.16508779227E+03  0.24025046695E+02  0.25571084612E+02  0.16877518299E+03  0.00000000000E+00 0. -1.
<mgrwt>
<rscale>  0 0.10693726E+04</rscale>
<asrwt>0</asrwt>
<pdfrwt beam="1">  1        2 0.34060808E+00 0.10693726E+04</pdfrwt>
<pdfrwt beam="2">  1       -2 0.99388224E-01 0.10693726E+04</pdfrwt>
<totfact> 0.42290952E+00</totfact>
</mgrwt>
</event>
<event>
12    1  0.7781383E-008  0.4541525E+03  0.7818608E-02  0.1026491E+00
         -1   -1    0    0    0  501 -0.00000000000E+00  0.00000000000E+00  0.40946858270E+03  0.40946858270E+03  0.00000000000E+00 0.  1.
          1   -1    0    0  501    0  0.00000000000E+00 -0.00000000000E+00 -0.81152100194E+03  0.81152100194E+03  0.00000000000E+00 0. -1.
         23    2    1    2    0    0  0.64473856201E+02  0.40625293342E+03 -0.12827144215E+03  0.44383353653E+03  0.10647216177E+03 0.  0.
    5000000    2    1    2    0    0 -0.64473856201E+02 -0.40625293342E+03 -0.27378097710E+03  0.77715604811E+03  0.59984762703E+03 0.  0.
         23    2    4    4    0    0 -0.10184212725E+03 -0.39065607398E+03  0.68723842983E+02  0.41987497191E+03  0.92671670003E+02 0.  0.
         23    2    4    4    0    0  0.37368271053E+02 -0.15596859440E+02 -0.34250482008E+03  0.35728107620E+03  0.93276824181E+02 0.  0.
          4    1    3    3  502    0  0.21307397924E+02  0.22484067249E+03 -0.16557294436E+02  0.22645413931E+03  0.00000000000E+00 0. -1.
         -4    1    3    3    0  502  0.43166458277E+02  0.18141226093E+03 -0.11171414771E+03  0.21737939721E+03  0.00000000000E+00 0.  1.
         15    1    5    5    0    0 -0.57289227978E+02 -0.33877434208E+03  0.73271615417E+02  0.35131467070E+03  0.17770000000E+01 0. -1.
        -15    1    5    5    0    0 -0.44552899277E+02 -0.51881731897E+02 -0.45477724335E+01  0.68560301208E+02  0.17770000000E+01 0.  1.
          1    1    6    6  503    0 -0.20791648191E+02 -0.15311261812E+02 -0.22176651655E+03  0.22326467530E+03  0.00000000000E+00 0. -1.
         -1    1    6    6    0  503  0.58159919245E+02 -0.28559762777E+00 -0.12073830353E+03  0.13401640090E+03  0.00000000000E+00 0.  1.
<mgrwt>
<rscale>  0 0.45415252E+03</rscale>
<asrwt>0</asrwt>
<pdfrwt beam="1">  1        1 0.12484938E+00 0.45415252E+03</pdfrwt>
<pdfrwt beam="2">  1       -1 0.62995167E-01 0.45415252E+03</pdfrwt>
<totfact> 0.58395058E+01</totfact>
</mgrwt>
</event>
<event>
12    1  0.7781383E-008  0.1113052E+04  0.7818608E-02  0.9192563E-01
         -2   -1    0    0    0  501 -0.00000000000E+00  0.00000000000E+00  0.17845730907E+04  0.17845730907E+04  0.00000000000E+00 0.  1.
          2   -1    0    0  501    0  0.00000000000E+00 -0.00000000000E+00 -0.71416387749E+03  0.71416387749E+03  0.00000000000E+00 0. -1.
         23    2    1    2    0    0  0.93896731689E+03  0.46325613642E+03  0.52246880725E+03  0.11734372094E+04  0.87837120384E+02 0.  0.
    5000000    2    1    2    0    0 -0.93896731689E+03 -0.46325613642E+03  0.54794040602E+03  0.13252997588E+04  0.59992907259E+03 0.  0.
         23    2    4    4    0    0 -0.78396845004E+03 -0.13014115541E+03  0.23305865100E+03  0.83303636225E+03  0.89944399668E+02 0.  0.
         23    2    4    4    0    0 -0.15499886685E+03 -0.33311498101E+03  0.31488175501E+03  0.49226339660E+03  0.90457131786E+02 0.  0.
          1    1    3    3  502    0  0.72958322042E+03  0.33456756451E+03  0.36649352893E+03  0.88235176516E+03  0.00000000000E+00 0. -1.
         -1    1    3    3    0  502  0.20938409647E+03  0.12868857191E+03  0.15597527831E+03  0.29108544423E+03  0.00000000000E+00 0.  1.
         15    1    5    5    0    0 -0.40598188024E+03 -0.11284966002E+03  0.12448484093E+03  0.43938134485E+03  0.17770000000E+01 0.  1.
        -15    1    5    5    0    0 -0.37798656980E+03 -0.17291495387E+02  0.10857381007E+03  0.39365501740E+03  0.17770000000E+01 0. -1.
          2    1    6    6  503    0 -0.95066782424E+02 -0.10310600830E+03  0.10536946473E+03  0.17541740554E+03  0.00000000000E+00 0. -1.
         -2    1    6    6    0  503 -0.59932084423E+02 -0.23000897271E+03  0.20951229028E+03  0.31684599106E+03  0.00000000000E+00 0.  1.
<mgrwt>
<rscale>  0 0.11130521E+04</rscale>
<asrwt>0</asrwt>
<pdfrwt beam="1">  1        2 0.10987137E+00 0.11130521E+04</pdfrwt>
<pdfrwt beam="2">  1       -2 0.27454970E+00 0.11130521E+04</pdfrwt>
<totfact> 0.17951284E+00</totfact>
</mgrwt>
</event>
<event>
12    1  0.7781383E-008  0.6892794E+03  0.7818608E-02  0.9735744E-01
          1   -1    0    0  501    0  0.00000000000E+00  0.00000000000E+00  0.94682645167E+03  0.94682645167E+03  0.00000000000E+00 0. -1.
         -1   -1    0    0    0  501 -0.00000000000E+00 -0.00000000000E+00 -0.79359954128E+03  0.79359954128E+03  0.00000000000E+00 0.  1.
         23    2    1    2    0    0 -0.15722027903E+02  0.55992794773E+03  0.58316312826E+03  0.81373141069E+03  0.91176125020E+02 0.  0.
    5000000    2    1    2    0    0  0.15722027903E+02 -0.55992794773E+03 -0.42993621786E+03  0.92669458226E+03  0.60012599390E+03 0.  0.
         23    2    4    4    0    0  0.25514630368E+03 -0.10336612927E+03 -0.96119562206E+02  0.30551792501E+03  0.91203285596E+02 0.  0.
         23    2    4    4    0    0 -0.23942427578E+03 -0.45656181847E+03 -0.33381665565E+03  0.62117665725E+03  0.93027963574E+02 0.  0.
          4    1    3    3  502    0  0.24672539025E+02  0.43543039861E+03  0.46273488288E+03  0.63587100740E+03  0.00000000000E+00 0. -1.
         -4    1    3    3    0  502 -0.40394566928E+02  0.12449754913E+03  0.12042824537E+03  0.17786040329E+03  0.00000000000E+00 0.  1.
         15    1    5    5    0    0  0.24357150291E+03 -0.71656992398E+02 -0.71737059066E+02  0.26383927865E+03  0.17770000000E+01 0. -1.
        -15    1    5    5    0    0  0.11574800773E+02 -0.31709136868E+02 -0.24382503140E+02  0.41678646358E+02  0.17770000000E+01 0.  1.
          3    1    6    6  503    0 -0.12709715581E+03 -0.14589906454E+03 -0.12568989585E+03  0.23073398962E+03  0.00000000000E+00 0. -1.
         -3    1    6    6    0  503 -0.11232711997E+03 -0.31066275392E+03 -0.20812675981E+03  0.39044266763E+03  0.00000000000E+00 0.  1.
<mgrwt>
<rscale>  0 0.68927936E+03</rscale>
<asrwt>0</asrwt>
<pdfrwt beam="1">  1        1 0.14566561E+00 0.68927936E+03</pdfrwt>
<pdfrwt beam="2">  1       -1 0.12209224E+00 0.68927936E+03</pdfrwt>
<totfact> 0.10296771E+01</totfact>
</mgrwt>
</event>
<event>
12    1  0.7781383E-008  0.8069986E+03  0.7818608E-02  0.9549942E-01
          2   -1    0    0  501    0  0.00000000000E+00  0.00000000000E+00  0.22736957087E+04  0.22736957087E+04  0.00000000000E+00 0. -1.
         -2   -1    0    0    0  501 -0.00000000000E+00 -0.00000000000E+00 -0.36294250192E+03  0.36294250192E+03  0.00000000000E+00 0.  1.
         23    2    1    2    0    0 -0.25779769239E+00 -0.78546833047E+03  0.11186135130E+04  0.13698669242E+04  0.90986999514E+02 0.  0.
    5000000    2    1    2    0    0  0.25779769239E+00  0.78546833047E+03  0.79213969380E+03  0.12667712864E+04  0.60021965385E+03 0.  0.
         23    2    4    4    0    0  0.53585590023E+02  0.67521554918E+03  0.86167057438E+03  0.10997541929E+04  0.90529844726E+02 0.  0.
         23    2    4    4    0    0 -0.53327792331E+02  0.11025278130E+03 -0.69530880582E+02  0.16701709346E+03  0.89781049973E+02 0.  0.
          3    1    3    3  502    0  0.44867667499E+02 -0.37392058841E+03  0.54391754047E+03  0.66157086155E+03  0.00000000000E+00 0. -1.
         -3    1    3    3    0  502 -0.45125465192E+02 -0.41154774206E+03  0.57469597251E+03  0.70829606269E+03  0.00000000000E+00 0.  1.
         15    1    5    5    0    0 -0.14145443985E+02  0.19729667093E+03  0.20635155304E+03  0.28584994510E+03  0.17770000000E+01 0. -1.
        -15    1    5    5    0    0  0.67731034009E+02  0.47791887825E+03  0.65531902135E+03  0.81390424782E+03  0.17770000000E+01 0.  1.
          1    1    6    6  503    0 -0.70623150641E+02  0.10104069934E+03 -0.36421265385E+02  0.12854322581E+03  0.00000000000E+00 0. -1.
         -1    1    6    6    0  503  0.17295358310E+02  0.92120819513E+01 -0.33109615197E+02  0.38473867643E+02  0.00000000000E+00 0.  1.
<mgrwt>
<rscale>  0 0.80699861E+03</rscale>
<asrwt>0</asrwt>
<pdfrwt beam="1">  1        2 0.34979933E+00 0.80699861E+03</pdfrwt>
<pdfrwt beam="2">  1       -2 0.55837309E-01 0.80699861E+03</pdfrwt>
<totfact> 0.14597747E+01</totfact>
</mgrwt>
</event>
<event>
12    1  0.7781383E-008  0.4561990E+03  0.7818608E-02  0.1025889E+00
         -2   -1    0    0    0  501 -0.00000000000E+00  0.00000000000E+00  0.91041155765E+03  0.91041155765E+03  0.00000000000E+00 0.  1.
          2   -1    0    0  501    0  0.00000000000E+00 -0.00000000000E+00 -0.34057584297E+03  0.34057584297E+03  0.00000000000E+00 0. -1.
         23    2    1    2    0    0 -0.11533668143E+03  0.35616858453E+03  0.32103473760E+03  0.50133185097E+03  0.90065039653E+02 0.  0.
    5000000    2    1    2    0    0  0.11533668143E+03 -0.35616858453E+03  0.24880097709E+03  0.74965554965E+03  0.59993575176E+03 0.  0.
         23    2    4    4    0    0 -0.12852000450E+03 -0.17926648698E+03  0.34557782208E+03  0.41991697440E+03  0.90842552626E+02 0.  0.
         23    2    4    4    0    0  0.24385668593E+03 -0.17690209755E+03 -0.96776844994E+02  0.32973857525E+03  0.92743381919E+02 0.  0.
          4    1    3    3  502    0 -0.32016150558E+02  0.19146742389E+03  0.11909030696E+03  0.22774395605E+03  0.00000000000E+00 0. -1.
         -4    1    3    3    0  502 -0.83320530876E+02  0.16470116064E+03  0.20194443064E+03  0.27358789492E+03  0.00000000000E+00 0.  1.
         15    1    5    5    0    0 -0.61749352523E+02 -0.30093293070E+02  0.15031561336E+03  0.16527713143E+03  0.17770000000E+01 0.  1.
        -15    1    5    5    0    0 -0.66770651975E+02 -0.14917319391E+03  0.19526220872E+03  0.25463984297E+03  0.17770000000E+01 0. -1.
          3    1    6    6  503    0  0.10509805617E+03 -0.84086473464E+02 -0.91431096250E+02  0.16271380332E+03  0.00000000000E+00 0. -1.
         -3    1    6    6    0  503  0.13875862976E+03 -0.92815624089E+02 -0.53457487440E+01  0.16702477193E+03  0.00000000000E+00 0.  1.
<mgrwt>
<rscale>  0 0.45619899E+03</rscale>
<asrwt>0</asrwt>
<pdfrwt beam="1">  1        2 0.52396284E-01 0.45619899E+03</pdfrwt>
<pdfrwt beam="2">  1       -2 0.14006332E+00 0.45619899E+03</pdfrwt>
<totfact> 0.35461188E+01</totfact>
</mgrwt>
</event>
<event>
12    1  0.7781383E-008  0.5909476E+03  0.7818608E-02  0.9924367E-01
          2   -1    0    0  501    0  0.00000000000E+00  0.00000000000E+00  0.25640036207E+04  0.25640036207E+04  0.00000000000E+00 0. -1.
         -2   -1    0    0    0  501 -0.00000000000E+00 -0.00000000000E+00 -0.22677322602E+03  0.22677322602E+03  0.00000000000E+00 0.  1.
         23    2    1    2    0    0  0.48842803674E+03  0.25541071267E+03  0.39383138415E+03  0.68354341093E+03  0.91279002296E+02 0.  0.
    5000000    2    1    2    0    0 -0.48842803674E+03 -0.25541071267E+03  0.19433990105E+04  0.21072334358E+04  0.59986370083E+03 0.  0.
         23    2    4    4    0    0 -0.15112238626E+01 -0.26944538867E+02  0.10913089342E+04  0.10954816084E+04  0.91632268006E+02 0.  0.
         23    2    4    4    0    0 -0.48691681288E+03 -0.22846617380E+03  0.85209007631E+03  0.10117518274E+04  0.91101519067E+02 0.  0.
          3    1    3    3  502    0  0.31305583688E+03  0.17714706086E+03  0.30650223987E+03  0.47257661942E+03  0.00000000000E+00 0. -1.
         -3    1    3    3    0  502  0.17537219986E+03  0.78263651803E+02  0.87329144277E+02  0.21096679151E+03  0.00000000000E+00 0.  1.
         15    1    5    5    0    0 -0.19321011715E+02 -0.52653146103E+02  0.88824213693E+03  0.89001286891E+03  0.17770000000E+01 0. -1.
        -15    1    5    5    0    0  0.17809787852E+02  0.25708607237E+02  0.20306679729E+03  0.20546873953E+03  0.17770000000E+01 0.  1.
          3    1    6    6  503    0 -0.36898681546E+03 -0.20621312755E+03  0.70383063837E+03  0.82100712023E+03  0.00000000000E+00 0. -1.
         -3    1    6    6    0  503 -0.11792999742E+03 -0.22253046254E+02  0.14825943794E+03  0.19074470713E+03  0.00000000000E+00 0.  1.
<mgrwt>
<rscale>  0 0.59094760E+03</rscale>
<asrwt>0</asrwt>
<pdfrwt beam="1">  1        2 0.39446208E+00 0.59094760E+03</pdfrwt>
<pdfrwt beam="2">  1       -2 0.34888190E-01 0.59094760E+03</pdfrwt>
<totfact> 0.26452041E+01</totfact>
</mgrwt>
</event>
<event>
12    1  0.7781383E-008  0.7395097E+03  0.7818608E-02  0.9651953E-01
         -1   -1    0    0    0  501 -0.00000000000E+00  0.00000000000E+00  0.70005700280E+03  0.70005700280E+03  0.00000000000E+00 0.  1.
          1   -1    0    0  501    0  0.00000000000E+00 -0.00000000000E+00 -0.99798886803E+03  0.99798886803E+03  0.00000000000E+00 0. -1.
         23    2    1    2    0    0 -0.32630449373E+03 -0.64483272870E+03 -0.18703234037E+03  0.75203757710E+03  0.91079912089E+02 0.  0.
    5000000    2    1    2    0    0  0.32630449373E+03  0.64483272870E+03 -0.11089952486E+03  0.94600829374E+03  0.60029085997E+03 0.  0.
         23    2    4    4    0    0  0.10287066912E+03  0.34041688495E+03  0.22701188979E+03  0.43177772302E+03  0.91823601871E+02 0.  0.
         23    2    4    4    0    0  0.22343382461E+03  0.30441584375E+03 -0.33791141465E+03  0.51423057072E+03  0.87505861556E+02 0.  0.
          1    1    3    3  502    0 -0.79966308601E+02 -0.25411011125E+03 -0.74959891973E+02  0.27674093401E+03  0.00000000000E+00 0. -1.
         -1    1    3    3    0  502 -0.24633818513E+03 -0.39072261745E+03 -0.11207244840E+03  0.47529664309E+03  0.00000000000E+00 0.  1.
         15    1    5    5    0    0  0.58546577597E+01  0.16476993315E+03  0.12335296989E+03  0.20591872376E+03  0.17770000000E+01 0.  1.
        -15    1    5    5    0    0  0.97016011365E+02  0.17564695181E+03  0.10365891990E+03  0.22585899925E+03  0.17770000000E+01 0. -1.
          1    1    6    6  503    0  0.12133972683E+03  0.22574951900E+03 -0.19693421800E+03  0.32321704914E+03  0.00000000000E+00 0. -1.
         -1    1    6    6    0  503  0.10209409777E+03  0.78666324748E+02 -0.14097719665E+03  0.19101352158E+03  0.00000000000E+00 0.  1.
<mgrwt>
<rscale>  0 0.73950972E+03</rscale>
<asrwt>0</asrwt>
<pdfrwt beam="1">  1        1 0.15353675E+00 0.73950972E+03</pdfrwt>
<pdfrwt beam="2">  1       -1 0.10770108E+00 0.73950972E+03</pdfrwt>
<totfact> 0.12582445E+01</totfact>
</mgrwt>
</event>
<event>
12    1  0.7781383E-008  0.6533918E+03  0.7818608E-02  0.9800436E-01
         -2   -1    0    0    0  501 -0.00000000000E+00  0.00000000000E+00  0.11578199789E+04  0.11578199789E+04  0.00000000000E+00 0. -1.
          2   -1    0    0  501    0  0.00000000000E+00 -0.00000000000E+00 -0.55773135453E+03  0.55773135453E+03  0.00000000000E+00 0.  1.
         23    2    1    2    0    0  0.52761466830E+03  0.35049351042E+03 -0.26845161906E+02  0.64107442104E+03  0.95041104490E+02 0.  0.
    5000000    2    1    2    0    0 -0.52761466830E+03 -0.35049351042E+03  0.62693378632E+03  0.10744769124E+04  0.60019307217E+03 0.  0.
         23    2    4    4    0    0 -0.30527207297E+03 -0.30064513649E+03  0.43035371768E+02  0.44071953435E+03  0.93824986586E+02 0.  0.
         23    2    4    4    0    0 -0.22234259533E+03 -0.49848373930E+02  0.58389841455E+03  0.63375737808E+03  0.93754816807E+02 0.  0.
          3    1    3    3  502    0  0.36612586119E+03  0.28083995595E+03 -0.48067688047E+02  0.46392858257E+03  0.00000000000E+00 0. -1.
         -3    1    3    3    0  502  0.16148880711E+03  0.69653554468E+02  0.21222526142E+02  0.17714583847E+03  0.00000000000E+00 0.  1.
         15    1    5    5    0    0 -0.20837022535E+03 -0.23293245417E+03  0.68084060277E+02  0.31986602822E+03  0.17770000000E+01 0. -1.
        -15    1    5    5    0    0 -0.96901847625E+02 -0.67712682317E+02 -0.25048688509E+02  0.12085350613E+03  0.17770000000E+01 0.  1.
          4    1    6    6  503    0 -0.11994321852E+03  0.95737540373E+01  0.21567393743E+03  0.24696817552E+03  0.00000000000E+00 0. -1.
         -4    1    6    6    0  503 -0.10239937681E+03 -0.59422127967E+02  0.36822447713E+03  0.38678920256E+03  0.00000000000E+00 0.  1.
<mgrwt>
<rscale>  0 0.65339175E+03</rscale>
<asrwt>0</asrwt>
<pdfrwt beam="1">  1        2 0.85804824E-01 0.65339175E+03</pdfrwt>
<pdfrwt beam="2">  1       -2 0.17812615E+00 0.65339175E+03</pdfrwt>
<totfact> 0.10399413E+01</totfact>
</mgrwt>
</event>
<event>
12    1  0.7781383E-008  0.4318941E+03  0.7818608E-02  0.1033263E+00
          2   -1    0    0  501    0  0.00000000000E+00  0.00000000000E+00  0.20304218151E+04  0.20304218151E+04  0.00000000000E+00 0. -1.
         -2   -1    0    0    0  501 -0.00000000000E+00 -0.00000000000E+00 -0.12012523080E+03  0.12012523080E+03  0.00000000000E+00 0.  1.
         23    2    1    2    0    0  0.12060072252E+03  0.26808104486E+03  0.76321709712E+03  0.82304927795E+03  0.92183489350E+02 0.  0.
    5000000    2    1    2    0    0 -0.12060072252E+03 -0.26808104486E+03  0.11470794872E+04  0.13274977680E+04  0.60003915968E+03 0.  0.
         23    2    4    4    0    0  0.16046380071E+03 -0.23146482304E+03  0.26697767222E+03  0.39895839067E+03  0.92553359613E+02 0.  0.
         23    2    4    4    0    0 -0.28106452323E+03 -0.36616221822E+02  0.88010181499E+03  0.92853937732E+03  0.85253484242E+02 0.  0.
          3    1    3    3  502    0  0.38408998243E+02  0.10700751186E+03  0.41990645320E+03  0.43502561784E+03  0.00000000000E+00 0. -1.
         -3    1    3    3    0  502  0.82191724273E+02  0.16107353300E+03  0.34331064392E+03  0.38802366011E+03  0.00000000000E+00 0.  1.
         15    1    5    5    0    0  0.52677100062E+02 -0.11432732776E+03  0.64680503709E+02  0.14153564934E+03  0.17770000000E+01 0.  1.
        -15    1    5    5    0    0  0.10778670065E+03 -0.11713749528E+03  0.20229716851E+03  0.25742274133E+03  0.17770000000E+01 0. -1.
          1    1    6    6  503    0 -0.19132689295E+03 -0.34530083865E+02  0.71086060742E+03  0.73696750935E+03  0.00000000000E+00 0. -1.
         -1    1    6    6    0  503 -0.89737630273E+02 -0.20861379566E+01  0.16924120757E+03  0.19157186797E+03  0.00000000000E+00 0.  1.
<mgrwt>
<rscale>  0 0.43189409E+03</rscale>
<asrwt>0</asrwt>
<pdfrwt beam="1">  1        2 0.31237256E+00 0.43189409E+03</pdfrwt>
<pdfrwt beam="2">  1       -2 0.18480806E-01 0.43189409E+03</pdfrwt>
<totfact> 0.16782815E+02</totfact>
</mgrwt>
</event>
<event>
12    1  0.7781383E-008  0.7336946E+03  0.7818608E-02  0.9661284E-01
         -2   -1    0    0    0  501 -0.00000000000E+00  0.00000000000E+00  0.38277357744E+03  0.38277357744E+03  0.00000000000E+00 0. -1.
          2   -1    0    0  501    0  0.00000000000E+00 -0.00000000000E+00 -0.30355815864E+04  0.30355815864E+04  0.00000000000E+00 0.  1.
         23    2    1    2    0    0  0.16661224684E+03  0.70669217350E+03 -0.22985611370E+04  0.24120763643E+04  0.86923056313E+02 0.  0.
    5000000    2    1    2    0    0 -0.16661224684E+03 -0.70669217350E+03 -0.35424687198E+03  0.10062787996E+04  0.59994392011E+03 0.  0.
         23    2    4    4    0    0 -0.12408521647E+03 -0.41653225749E+03 -0.49962178351E+03  0.66786790543E+03  0.86771827617E+02 0.  0.
         23    2    4    4    0    0 -0.42527030371E+02 -0.29015991601E+03  0.14537491153E+03  0.33841089414E+03  0.85946164566E+02 0.  0.
          2    1    3    3  502    0  0.77713778862E+02  0.34019176007E+03 -0.12483463002E+04  0.12962015083E+04  0.00000000000E+00 0. -1.
         -2    1    3    3    0  502  0.88898467980E+02  0.36650041343E+03 -0.10502148369E+04  0.11158748560E+04  0.00000000000E+00 0.  1.
         15    1    5    5    0    0 -0.35160383154E+02 -0.29162530086E+02 -0.54115551055E+02  0.70840357844E+02  0.17770000000E+01 0.  1.
        -15    1    5    5    0    0 -0.88924833318E+02 -0.38736972741E+03 -0.44550623246E+03  0.59702754759E+03  0.17770000000E+01 0. -1.
          1    1    6    6  503    0 -0.98834177462E+01 -0.22542514680E+03  0.76083047441E+02  0.23812351598E+03  0.00000000000E+00 0. -1.
         -1    1    6    6    0  503 -0.32643612625E+02 -0.64734769204E+02  0.69291864086E+02  0.10028737816E+03  0.00000000000E+00 0.  1.
<mgrwt>
<rscale>  0 0.73369459E+03</rscale>
<asrwt>0</asrwt>
<pdfrwt beam="1">  1        2 0.46701255E+00 0.73369459E+03</pdfrwt>
<pdfrwt beam="2">  1       -2 0.58888243E-01 0.73369459E+03</pdfrwt>
<totfact> 0.47708284E+00</totfact>
</mgrwt>
</event>
<event>
12    1  0.7781383E-008  0.7510043E+03  0.7818608E-02  0.9633776E-01
         -2   -1    0    0    0  501 -0.00000000000E+00  0.00000000000E+00  0.23629880880E+03  0.23629880880E+03  0.00000000000E+00 0.  1.
          2   -1    0    0  501    0  0.00000000000E+00 -0.00000000000E+00 -0.33390895450E+04  0.33390895450E+04  0.00000000000E+00 0. -1.
         23    2    1    2    0    0  0.25677617511E+03  0.60193420055E+03 -0.22472369294E+04  0.23424137469E+04  0.92571913182E+02 0.  0.
    5000000    2    1    2    0    0 -0.25677617511E+03 -0.60193420055E+03 -0.85555380683E+03  0.12329746069E+04  0.59999606578E+03 0.  0.
         23    2    4    4    0    0 -0.40447507142E+03 -0.32304498928E+03 -0.35669288722E+03  0.63463373016E+03  0.87017280838E+02 0.  0.
         23    2    4    4    0    0  0.14769889632E+03 -0.27888921126E+03 -0.49886091961E+03  0.59834087672E+03  0.97751887500E+02 0.  0.
          1    1    3    3  502    0  0.66110749588E+02  0.27043855861E+03 -0.96802188492E+03  0.10072606489E+04  0.00000000000E+00 0. -1.
         -1    1    3    3    0  502  0.19066542552E+03  0.33149564194E+03 -0.12792150444E+04  0.13351530980E+04  0.00000000000E+00 0.  1.
         15    1    5    5    0    0 -0.14496348437E+03 -0.12452160551E+03 -0.18297646274E+03  0.26458190733E+03  0.17770000000E+01 0.  1.
        -15    1    5    5    0    0 -0.25951158706E+03 -0.19852338377E+03 -0.17371642447E+03  0.37005182283E+03  0.17770000000E+01 0. -1.
          1    1    6    6  503    0  0.10475246612E+03 -0.12261540558E+03 -0.18740237173E+03  0.24723928849E+03  0.00000000000E+00 0. -1.
         -1    1    6    6    0  503  0.42946430194E+02 -0.15627380568E+03 -0.31145854788E+03  0.35110158823E+03  0.00000000000E+00 0.  1.
<mgrwt>
<rscale>  0 0.75100428E+03</rscale>
<asrwt>0</asrwt>
<pdfrwt beam="1">  1        2 0.51370610E+00 0.75100428E+03</pdfrwt>
<pdfrwt beam="2">  1       -2 0.36353662E-01 0.75100428E+03</pdfrwt>
<totfact> 0.80293562E+00</totfact>
</mgrwt>
</event>
<event>
12    1  0.7781383E-008  0.6237275E+03  0.7818608E-02  0.9857366E-01
         -2   -1    0    0    0  501 -0.00000000000E+00  0.00000000000E+00  0.37233702995E+03  0.37233702995E+03  0.00000000000E+00 0. -1.
          2   -1    0    0  501    0  0.00000000000E+00 -0.00000000000E+00 -0.11781541309E+04  0.11781541309E+04  0.00000000000E+00 0.  1.
         23    2    1    2    0    0  0.48247376733E+03  0.11440766447E+03 -0.13240249316E+03  0.52124571619E+03  0.91085819978E+02 0.  0.
    5000000    2    1    2    0    0 -0.48247376733E+03 -0.11440766447E+03 -0.67341460779E+03  0.10292454447E+04  0.59999075118E+03 0.  0.
         23    2    4    4    0    0 -0.81139132808E+01 -0.25526654763E+03 -0.29194044647E+03  0.39825272409E+03  0.90272709207E+02 0.  0.
         23    2    4    4    0    0 -0.47435985405E+03  0.14085888316E+03 -0.38147416132E+03  0.63099272057E+03  0.88152036583E+02 0.  0.
          4    1    3    3  502    0  0.15447179338E+03  0.43781505479E+02 -0.26372146797E-01  0.16055639467E+03  0.00000000000E+00 0. -1.
         -4    1    3    3    0  502  0.32800197395E+03  0.70626158992E+02 -0.13237612101E+03  0.36068932153E+03  0.00000000000E+00 0.  1.
         15    1    5    5    0    0 -0.81414794113E+01 -0.60227580706E+02 -0.20830237462E+02  0.64270535134E+02  0.17770000000E+01 0.  1.
        -15    1    5    5    0    0  0.27566130525E-01 -0.19503896693E+03 -0.27111020901E+03  0.33398218895E+03  0.17770000000E+01 0. -1.
          3    1    6    6  503    0 -0.31166936305E+03  0.10550891272E+03 -0.30152772050E+03  0.44630582424E+03  0.00000000000E+00 0. -1.
         -3    1    6    6    0  503 -0.16269049101E+03  0.35349970442E+02 -0.79946440821E+02  0.18468689632E+03  0.00000000000E+00 0.  1.
<mgrwt>
<rscale>  0 0.62372748E+03</rscale>
<asrwt>0</asrwt>
<pdfrwt beam="1">  1        2 0.18125448E+00 0.62372748E+03</pdfrwt>
<pdfrwt beam="2">  1       -2 0.57282620E-01 0.62372748E+03</pdfrwt>
<totfact> 0.57419224E+01</totfact>
</mgrwt>
</event>
<event>
12    1  0.7781383E-008  0.7366930E+03  0.7818608E-02  0.9656461E-01
         -1   -1    0    0    0  501 -0.00000000000E+00  0.00000000000E+00  0.70484909971E+03  0.70484909971E+03  0.00000000000E+00 0.  1.
          1   -1    0    0  501    0  0.00000000000E+00 -0.00000000000E+00 -0.98775163607E+03  0.98775163607E+03  0.00000000000E+00 0. -1.
         23    2    1    2    0    0 -0.70578436647E+03  0.11789538833E+03 -0.22266510780E+03  0.75685636047E+03  0.10592877616E+03 0.  0.
    5000000    2    1    2    0    0  0.70578436647E+03 -0.11789538833E+03 -0.60237428566E+02  0.93574437531E+03  0.59996507697E+03 0.  0.
         23    2    4    4    0    0  0.39625992210E+03 -0.18842068220E+03 -0.28937046817E+03  0.53348873957E+03  0.91382099234E+02 0.  0.
         23    2    4    4    0    0  0.30952444437E+03  0.70525293877E+02  0.22913303960E+03  0.40225563574E+03  0.92349596141E+02 0.  0.
          2    1    3    3  502    0 -0.24286561132E+03  0.50138471174E+02 -0.25984227811E+02  0.24934464411E+03  0.00000000000E+00 0. -1.
         -2    1    3    3    0  502 -0.46291875515E+03  0.67756917153E+02 -0.19668087998E+03  0.50751171636E+03  0.00000000000E+00 0.  1.
         15    1    5    5    0    0  0.25508713833E+03 -0.11736280859E+03 -0.13138945121E+03  0.31001584249E+03  0.17770000000E+01 0.  1.
        -15    1    5    5    0    0  0.14117278377E+03 -0.71057873614E+02 -0.15798101696E+03  0.22347289708E+03  0.17770000000E+01 0. -1.
          3    1    6    6  503    0  0.20311491339E+03  0.32524337602E+02  0.19691344700E+03  0.28476026090E+03  0.00000000000E+00 0. -1.
         -3    1    6    6    0  503  0.10640953098E+03  0.38000956275E+02  0.32219592601E+02  0.11749537484E+03  0.00000000000E+00 0.  1.
<mgrwt>
<rscale>  0 0.73669298E+03</rscale>
<asrwt>0</asrwt>
<pdfrwt beam="1">  1        1 0.15196179E+00 0.73669298E+03</pdfrwt>
<pdfrwt beam="2">  1       -1 0.10843832E+00 0.73669298E+03</pdfrwt>
<totfact> 0.12616699E+01</totfact>
</mgrwt>
</event>
<event>
12    1  0.7781383E-008  0.1035521E+04  0.7818608E-02  0.9270422E-01
         -2   -1    0    0    0  501 -0.00000000000E+00  0.00000000000E+00  0.13983871932E+04  0.13983871932E+04  0.00000000000E+00 0. -1.
          2   -1    0    0  501    0  0.00000000000E+00 -0.00000000000E+00 -0.14448456887E+04  0.14448456887E+04  0.00000000000E+00 0.  1.
         23    2    1    2    0    0  0.10251411251E+04 -0.21876982998E+02 -0.91028390367E+03  0.13742408432E+04  0.92348151524E+02 0.  0.
    5000000    2    1    2    0    0 -0.10251411251E+04  0.21876982998E+02  0.86382540815E+03  0.14689920387E+04  0.60029188344E+03 0.  0.
         23    2    4    4    0    0 -0.37435639062E+03 -0.38920382145E+02  0.68258783165E+03  0.78457527551E+03  0.89301241202E+02 0.  0.
         23    2    4    4    0    0 -0.65078473445E+03  0.60797365142E+02  0.18123757650E+03  0.68441676320E+03  0.91444827105E+02 0.  0.
          2    1    3    3  502    0  0.70824745636E+03  0.26991043708E+02 -0.63656874990E+03  0.95266087840E+03  0.00000000000E+00 0. -1.
         -2    1    3    3    0  502  0.31689366872E+03 -0.48868026706E+02 -0.27371515377E+03  0.42157996479E+03  0.00000000000E+00 0.  1.
         15    1    5    5    0    0 -0.26824651441E+03 -0.58836121315E+02  0.43459661195E+03  0.51409654201E+03  0.17770000000E+01 0.  1.
        -15    1    5    5    0    0 -0.10610987622E+03  0.19915739170E+02  0.24799121970E+03  0.27047873350E+03  0.17770000000E+01 0. -1.
          4    1    6    6  503    0 -0.12780667627E+03  0.46044611887E+02  0.22648852998E+02  0.13772299491E+03  0.00000000000E+00 0. -1.
         -4    1    6    6    0  503 -0.52297805818E+03  0.14752753255E+02  0.15858872350E+03  0.54669376829E+03  0.00000000000E+00 0.  1.
<mgrwt>
<rscale>  0 0.10355206E+04</rscale>
<asrwt>0</asrwt>
<pdfrwt beam="1">  1        2 0.22228395E+00 0.10355206E+04</pdfrwt>
<pdfrwt beam="2">  1       -2 0.21513649E+00 0.10355206E+04</pdfrwt>
<totfact> 0.14328819E+00</totfact>
</mgrwt>
</event>
<event>
12    1  0.7781383E-008  0.3023075E+03  0.7818608E-02  0.1084093E+00
         -2   -1    0    0    0  501 -0.00000000000E+00  0.00000000000E+00  0.84185482280E+02  0.84185482280E+02  0.00000000000E+00 0.  1.
          2   -1    0    0  501    0  0.00000000000E+00 -0.00000000000E+00 -0.25480456880E+04  0.25480456880E+04  0.00000000000E+00 0. -1.
         23    2    1    2    0    0 -0.24899577706E+03  0.80173298700E+00 -0.91734312020E+03  0.95486251683E+03  0.90799152623E+02 0.  0.
    5000000    2    1    2    0    0  0.24899577706E+03 -0.80173298700E+00 -0.15465170855E+04  0.16773686535E+04  0.59987579046E+03 0.  0.
         23    2    4    4    0    0  0.33557037212E+02  0.77373266715E+02 -0.14232692794E+02  0.12541272157E+03  0.91722865414E+02 0.  0.
         23    2    4    4    0    0  0.21543873984E+03 -0.78174999702E+02 -0.15322843927E+04  0.15519559319E+04  0.90258368392E+02 0.  0.
          2    1    3    3  502    0 -0.23672429630E+03  0.21200997099E+02 -0.77776651832E+03  0.81327033129E+03  0.00000000000E+00 0. -1.
         -2    1    3    3    0  502 -0.12271480759E+02 -0.20399264112E+02 -0.13957660187E+03  0.14159218554E+03  0.00000000000E+00 0.  1.
         15    1    5    5    0    0  0.54994903505E+02  0.61529555122E+02 -0.36861886330E+02  0.90400674543E+02  0.17770000000E+01 0.  1.
        -15    1    5    5    0    0 -0.21437866292E+02  0.15843711592E+02  0.22629193536E+02  0.35012047031E+02  0.17770000000E+01 0. -1.
          1    1    6    6  503    0  0.14118863141E+02 -0.19700116557E+02 -0.37888296116E+03  0.37965739179E+03  0.00000000000E+00 0. -1.
         -1    1    6    6    0  503  0.20131987670E+03 -0.58474883144E+02 -0.11534014316E+04  0.11722985401E+04  0.00000000000E+00 0.  1.
<mgrwt>
<rscale>  0 0.30230755E+03</rscale>
<asrwt>0</asrwt>
<pdfrwt beam="1">  1        2 0.39200696E+00 0.30230755E+03</pdfrwt>
<pdfrwt beam="2">  1       -2 0.12951615E-01 0.30230755E+03</pdfrwt>
<totfact> 0.16384056E+02</totfact>
</mgrwt>
</event>
<event>
12    1  0.7781383E-008  0.9013744E+03  0.7818608E-02  0.9423865E-01
         -2   -1    0    0    0  501 -0.00000000000E+00  0.00000000000E+00  0.43487299664E+03  0.43487299664E+03  0.00000000000E+00 0.  1.
          2   -1    0    0  501    0  0.00000000000E+00 -0.00000000000E+00 -0.22816928029E+04  0.22816928029E+04  0.00000000000E+00 0. -1.
         23    2    1    2    0    0 -0.49767166419E+03 -0.73465904557E+03 -0.61049294909E+03  0.10807988104E+04  0.89573595609E+02 0.  0.
    5000000    2    1    2    0    0  0.49767166419E+03  0.73465904557E+03 -0.12363268572E+04  0.16357669892E+04  0.59985710511E+03 0.  0.
         23    2    4    4    0    0  0.42906067123E+03  0.66092225483E+03 -0.12690900225E+04  0.14961256807E+04  0.83013737112E+02 0.  0.
         23    2    4    4    0    0  0.68610992960E+02  0.73736790743E+02  0.32763165322E+02  0.13964130854E+03  0.91003776756E+02 0.  0.
          1    1    3    3  502    0 -0.38715080095E+03 -0.59896405676E+03 -0.44966287990E+03  0.84311350928E+03  0.00000000000E+00 0. -1.
         -1    1    3    3    0  502 -0.11052086324E+03 -0.13569498881E+03 -0.16083006918E+03  0.23768530109E+03  0.00000000000E+00 0.  1.
         15    1    5    5    0    0  0.40056555212E+03  0.59570341723E+03 -0.11896188493E+04  0.13894284750E+04  0.17770000000E+01 0.  1.
        -15    1    5    5    0    0  0.28495119106E+02  0.65218837602E+02 -0.79471173236E+02  0.10669720566E+03  0.17770000000E+01 0. -1.
          3    1    6    6  503    0 -0.12111567352E+01  0.52503058596E+02 -0.12209545454E+02  0.53917632207E+02  0.00000000000E+00 0. -1.
         -3    1    6    6    0  503  0.69822149695E+02  0.21233732147E+02  0.44972710776E+02  0.85723676330E+02  0.00000000000E+00 0.  1.
<mgrwt>
<rscale>  0 0.90137440E+03</rscale>
<asrwt>0</asrwt>
<pdfrwt beam="1">  1        2 0.35102966E+00 0.90137440E+03</pdfrwt>
<pdfrwt beam="2">  1       -2 0.66903538E-01 0.90137440E+03</pdfrwt>
<totfact> 0.97140761E+00</totfact>
</mgrwt>
</event>
<event>
12    1  0.7781383E-008  0.1047232E+04  0.7818608E-02  0.9258206E-01
         -1   -1    0    0    0  501 -0.00000000000E+00  0.00000000000E+00  0.10005658512E+04  0.10005658512E+04  0.00000000000E+00 0.  1.
          1   -1    0    0  501    0  0.00000000000E+00 -0.00000000000E+00 -0.13426806745E+04  0.13426806745E+04  0.00000000000E+00 0. -1.
         23    2    1    2    0    0 -0.84805000409E+03 -0.59804561280E+03  0.14035890602E+03  0.10509975724E+04  0.89710146201E+02 0.  0.
    5000000    2    1    2    0    0  0.84805000409E+03  0.59804561280E+03 -0.48247372932E+03  0.12922489532E+04  0.60023253259E+03 0.  0.
         23    2    4    4    0    0  0.85323205577E+02  0.10903859894E+03 -0.32976461499E+03  0.36897472275E+03  0.90709311880E+02 0.  0.
         23    2    4    4    0    0  0.76272679851E+03  0.48900701386E+03 -0.15270911433E+03  0.92327423046E+03  0.90748015201E+02 0.  0.
          2    1    3    3  502    0 -0.68021901689E+03 -0.45532815098E+03  0.79275153221E+02  0.82237837151E+03  0.00000000000E+00 0.  1.
         -2    1    3    3    0  502 -0.16783098720E+03 -0.14271746182E+03  0.61083752800E+02  0.22861920092E+03  0.00000000000E+00 0. -1.
         15    1    5    5    0    0  0.49384485989E+02  0.26365843870E+02 -0.21953069810E+03  0.22656317070E+03  0.17770000000E+01 0. -1.
        -15    1    5    5    0    0  0.35938719589E+02  0.82672755071E+02 -0.11023391689E+03  0.14241155205E+03  0.17770000000E+01 0.  1.
          3    1    6    6  503    0  0.57814934329E+03  0.32930000588E+03 -0.13196533406E+03  0.67831409127E+03  0.00000000000E+00 0. -1.
         -3    1    6    6    0  503  0.18457745522E+03  0.15970700797E+03 -0.20743780262E+02  0.24496013919E+03  0.00000000000E+00 0.  1.
<mgrwt>
<rscale>  0 0.10472320E+04</rscale>
<asrwt>0</asrwt>
<pdfrwt beam="1">  1        1 0.20656626E+00 0.10472320E+04</pdfrwt>
<pdfrwt beam="2">  1       -1 0.15393321E+00 0.10472320E+04</pdfrwt>
<totfact> 0.27380349E+00</totfact>
</mgrwt>
</event>
<event>
12    1  0.7781383E-008  0.4595725E+03  0.7818608E-02  0.1024905E+00
         -2   -1    0    0    0  501 -0.00000000000E+00  0.00000000000E+00  0.11363842160E+04  0.11363842160E+04  0.00000000000E+00 0.  1.
          2   -1    0    0  501    0  0.00000000000E+00 -0.00000000000E+00 -0.26693563310E+03  0.26693563310E+03  0.00000000000E+00 0. -1.
         23    2    1    2    0    0  0.37340232500E+03  0.45561860893E+01  0.40063608569E+03  0.55525288778E+03  0.91358858815E+02 0.  0.
    5000000    2    1    2    0    0 -0.37340232500E+03 -0.45561860893E+01  0.46881249725E+03  0.84806696135E+03  0.59998529833E+03 0.  0.
         23    2    4    4    0    0  0.73756829865E+02  0.25663887461E+02 -0.72442293845E+02  0.14020560340E+03  0.91164797020E+02 0.  0.
         23    2    4    4    0    0 -0.44715915487E+03 -0.30220073550E+02  0.54125479110E+03  0.70786135796E+03  0.85125733922E+02 0.  0.
          4    1    3    3  502    0  0.43686009854E+02 -0.17705595938E+02  0.20076404961E+02  0.51234925789E+02  0.00000000000E+00 0. -1.
         -4    1    3    3    0  502  0.32971631515E+03  0.22261782027E+02  0.38055968073E+03  0.50401796199E+03  0.00000000000E+00 0.  1.
         15    1    5    5    0    0  0.42296782349E+01 -0.84616786640E+01 -0.61165583942E+02  0.61918305627E+02  0.17770000000E+01 0.  1.
        -15    1    5    5    0    0  0.69527151630E+02  0.34125566125E+02 -0.11276709903E+02  0.78287297772E+02  0.17770000000E+01 0. -1.
          2    1    6    6  503    0 -0.16465202185E+03 -0.47624800583E+02  0.23466205527E+03  0.29059368560E+03  0.00000000000E+00 0. -1.
         -2    1    6    6    0  503 -0.28250713301E+03  0.17404727033E+02  0.30659273583E+03  0.41726767235E+03  0.00000000000E+00 0.  1.
<mgrwt>
<rscale>  0 0.45957247E+03</rscale>
<asrwt>0</asrwt>
<pdfrwt beam="1">  1        2 0.41067021E-01 0.45957247E+03</pdfrwt>
<pdfrwt beam="2">  1       -2 0.17482834E+00 0.45957247E+03</pdfrwt>
<totfact> 0.25667501E+01</totfact>
</mgrwt>
</event>
<event>
12    1  0.7781383E-008  0.1463815E+04  0.7818608E-02  0.8908879E-01
          1   -1    0    0  501    0  0.00000000000E+00  0.00000000000E+00  0.16102799547E+04  0.16102799547E+04  0.00000000000E+00 0. -1.
         -1   -1    0    0    0  501 -0.00000000000E+00 -0.00000000000E+00 -0.13876621124E+04  0.13876621124E+04  0.00000000000E+00 0.  1.
         23    2    1    2    0    0  0.54367589610E+03  0.12981655663E+04  0.37701052741E+03  0.14599662334E+04  0.92450784504E+02 0.  0.
    5000000    2    1    2    0    0 -0.54367589610E+03 -0.12981655663E+04 -0.15439268512E+03  0.15379758336E+04  0.60059574274E+03 0.  0.
         23    2    4    4    0    0 -0.55127679786E+03 -0.61809384091E+03 -0.17614640067E+03  0.85161006017E+03  0.90917743479E+02 0.  0.
         23    2    4    4    0    0  0.76009017595E+01 -0.68007172535E+03  0.21753715554E+02  0.68636577347E+03  0.89829981164E+02 0.  0.
          4    1    3    3  502    0  0.14943983594E+03  0.45709553865E+03  0.10744268550E+03  0.49276011069E+03  0.00000000000E+00 0. -1.
         -4    1    3    3    0  502  0.39423606016E+03  0.84107002761E+03  0.26956784191E+03  0.96720612274E+03  0.00000000000E+00 0.  1.
         15    1    5    5    0    0 -0.18950092695E+03 -0.15282989783E+03 -0.63058474840E+02  0.25148977706E+03  0.17770000000E+01 0.  1.
        -15    1    5    5    0    0 -0.36177587091E+03 -0.46526394308E+03 -0.11308792583E+03  0.60012028311E+03  0.17770000000E+01 0. -1.
          2    1    6    6  503    0  0.44154245515E+02 -0.43536710196E+03 -0.39170666647E+01  0.43761793185E+03  0.00000000000E+00 0. -1.
         -2    1    6    6    0  503 -0.36553343755E+02 -0.24470462339E+03  0.25670782219E+02  0.24874784161E+03  0.00000000000E+00 0.  1.
<mgrwt>
<rscale>  0 0.14638150E+04</rscale>
<asrwt>0</asrwt>
<pdfrwt beam="1">  1        1 0.24773538E+00 0.14638150E+04</pdfrwt>
<pdfrwt beam="2">  1       -1 0.21348648E+00 0.14638150E+04</pdfrwt>
<totfact> 0.63492568E-01</totfact>
</mgrwt>
</event>
<event>
12    1  0.7781383E-008  0.5514485E+03  0.7818608E-02  0.1001159E+00
          2   -1    0    0  501    0  0.00000000000E+00  0.00000000000E+00  0.27932705021E+04  0.27932705021E+04  0.00000000000E+00 0. -1.
         -2   -1    0    0    0  501 -0.00000000000E+00 -0.00000000000E+00 -0.33022891420E+03  0.33022891420E+03  0.00000000000E+00 0.  1.
         23    2    1    2    0    0  0.35624016349E+03 -0.20209935725E+03  0.23513365655E+04  0.23885051280E+04  0.91770898724E+02 0.  0.
    5000000    2    1    2    0    0 -0.35624016349E+03  0.20209935725E+03  0.11170502241E+03  0.73499428833E+03  0.59998948954E+03 0.  0.
         23    2    4    4    0    0  0.11314462307E+03 -0.72049328711E+02  0.80820091075E+02  0.18442466680E+03  0.97405128744E+02 0.  0.
         23    2    4    4    0    0 -0.46938478656E+03  0.27414868596E+03  0.30884931330E+02  0.55056962153E+03  0.81813503207E+02 0.  0.
          1    1    3    3  502    0  0.16267490024E+03 -0.88482734183E+02  0.80904783272E+03  0.82997030854E+03  0.00000000000E+00 0.  1.
         -1    1    3    3    0  502  0.19356526325E+03 -0.11361662306E+03  0.15422887328E+04  0.15585348194E+04  0.00000000000E+00 0. -1.
         15    1    5    5    0    0  0.53920332190E+02 -0.16626372826E+01  0.74775729373E+02  0.92221114820E+02  0.17770000000E+01 0.  1.
        -15    1    5    5    0    0  0.59224290875E+02 -0.70386691429E+02  0.60443617014E+01  0.92203551978E+02  0.17770000000E+01 0. -1.
          1    1    6    6  503    0 -0.38721108557E+03  0.19643994346E+03  0.35037691970E+01  0.43420427517E+03  0.00000000000E+00 0. -1.
         -1    1    6    6    0  503 -0.82173700986E+02  0.77708742504E+02  0.27381162133E+02  0.11636534637E+03  0.00000000000E+00 0.  1.
<mgrwt>
<rscale>  0 0.55144850E+03</rscale>
<asrwt>0</asrwt>
<pdfrwt beam="1">  1        2 0.42973391E+00 0.55144850E+03</pdfrwt>
<pdfrwt beam="2">  1       -2 0.50804450E-01 0.55144850E+03</pdfrwt>
<totfact> 0.94191497E+00</totfact>
</mgrwt>
</event>
<event>
12    1  0.7781383E-008  0.1164814E+04  0.7818608E-02  0.9144225E-01
          2   -1    0    0  501    0  0.00000000000E+00  0.00000000000E+00  0.29244763958E+04  0.29244763958E+04  0.00000000000E+00 0. -1.
         -2   -1    0    0    0  501 -0.00000000000E+00 -0.00000000000E+00 -0.57633564997E+03  0.57633564997E+03  0.00000000000E+00 0.  1.
         23    2    1    2    0    0 -0.80315790509E+03 -0.77606280278E+03  0.42722593574E+03  0.11991881728E+04  0.90521705828E+02 0.  0.
    5000000    2    1    2    0    0  0.80315790509E+03  0.77606280278E+03  0.19209148100E+04  0.23016238729E+04  0.60018551355E+03 0.  0.
         23    2    4    4    0    0  0.81342979168E+03  0.57131294263E+03  0.12835015674E+04  0.16260515977E+04  0.92741686196E+02 0.  0.
         23    2    4    4    0    0 -0.10271886595E+02  0.20474986015E+03  0.63741324262E+03  0.67557227525E+03  0.89856776780E+02 0.  0.
          2    1    3    3  502    0 -0.19854212650E+03 -0.22196231053E+03  0.78238379080E+02  0.30790824486E+03  0.00000000000E+00 0.  1.
         -2    1    3    3    0  502 -0.60461577859E+03 -0.55410049225E+03  0.34898755666E+03  0.89127992793E+03  0.00000000000E+00 0. -1.
         15    1    5    5    0    0  0.17062782025E+03  0.16685509149E+03  0.32131791264E+03  0.40025346134E+03  0.17770000000E+01 0. -1.
        -15    1    5    5    0    0  0.64280197144E+03  0.40445785114E+03  0.96218365478E+03  0.12257981364E+04  0.17770000000E+01 0.  1.
          4    1    6    6  503    0  0.25264954269E+02  0.82993039296E+02  0.36363661248E+03  0.37384187623E+03  0.00000000000E+00 0. -1.
         -4    1    6    6    0  503 -0.35536840864E+02  0.12175682085E+03  0.27377663014E+03  0.30173039902E+03  0.00000000000E+00 0.  1.
<mgrwt>
<rscale>  0 0.11648139E+04</rscale>
<asrwt>0</asrwt>
<pdfrwt beam="1">  1        2 0.44991944E+00 0.11648139E+04</pdfrwt>
<pdfrwt beam="2">  1       -2 0.88667024E-01 0.11648139E+04</pdfrwt>
<totfact> 0.21126401E+00</totfact>
</mgrwt>
</event>
<event>
12    1  0.7781383E-008  0.5005093E+03  0.7818608E-02  0.1013646E+00
         -1   -1    0    0    0  501 -0.00000000000E+00  0.00000000000E+00  0.26013607265E+03  0.26013607265E+03  0.00000000000E+00 0.  1.
          1   -1    0    0  501    0  0.00000000000E+00 -0.00000000000E+00 -0.17487419649E+04  0.17487419649E+04  0.00000000000E+00 0. -1.
         23    2    1    2    0    0 -0.44577759161E+03 -0.11859016872E+03 -0.19406488985E+03  0.50920259716E+03  0.94046872239E+02 0.  0.
    5000000    2    1    2    0    0  0.44577759161E+03  0.11859016872E+03 -0.12945410024E+04  0.14996754404E+04  0.60034051200E+03 0.  0.
         23    2    4    4    0    0  0.10474738904E+03  0.14420986905E+03 -0.51002023547E+02  0.20655858977E+03  0.91086457598E+02 0.  0.
         23    2    4    4    0    0  0.34103020257E+03 -0.25619700330E+02 -0.12435389789E+04  0.12931168506E+04  0.93829789293E+02 0.  0.
          2    1    3    3  502    0 -0.17073538965E+03 -0.35530645442E+02 -0.25926804205E+02  0.17630995213E+03  0.00000000000E+00 0.  1.
         -2    1    3    3    0  502 -0.27504220197E+03 -0.83059523277E+02 -0.16813808565E+03  0.33289264503E+03  0.00000000000E+00 0. -1.
         15    1    5    5    0    0  0.64949965108E+02  0.46395356983E+02 -0.60994220988E+02  0.10047128864E+03  0.17770000000E+01 0. -1.
        -15    1    5    5    0    0  0.39797423937E+02  0.97814512065E+02  0.99921974413E+01  0.10608730113E+03  0.17770000000E+01 0.  1.
          1    1    6    6  503    0  0.18039872432E+02  0.20821145125E+02 -0.76169538173E+02  0.80998491512E+02  0.00000000000E+00 0. -1.
         -1    1    6    6    0  503  0.32299033014E+03 -0.46440845455E+02 -0.11673694407E+04  0.12121183591E+04  0.00000000000E+00 0.  1.
<mgrwt>
<rscale>  0 0.50050933E+03</rscale>
<asrwt>0</asrwt>
<pdfrwt beam="1">  1        1 0.26903723E+00 0.50050933E+03</pdfrwt>
<pdfrwt beam="2">  1       -1 0.40020934E-01 0.50050933E+03</pdfrwt>
<totfact> 0.28920266E+01</totfact>
</mgrwt>
</event>
<event>
12    1  0.8061482E-008  0.6101050E+03  0.7818608E-02  0.9884660E-01
          2   -1    0    0  501    0  0.00000000000E+00  0.00000000000E+00  0.24883744402E+04  0.24883744402E+04  0.00000000000E+00 0.  1.
         -2   -1    0    0    0  501 -0.00000000000E+00 -0.00000000000E+00 -0.21538285648E+03  0.21538285648E+03  0.00000000000E+00 0. -1.
         23    2    1    2    0    0  0.39015735265E+03 -0.45311478703E+03  0.77478117754E+03  0.98270463948E+03  0.88807462115E+02 0.  0.
    5000000    2    1    2    0    0 -0.39015735265E+03  0.45311478703E+03  0.14982104062E+04  0.17210526572E+04  0.59987670204E+03 0.  0.
         23    2    4    4    0    0 -0.14620545084E+03  0.18552178243E+03  0.99437136866E+02  0.27279226424E+03  0.93453248361E+02 0.  0.
         23    2    4    4    0    0 -0.24395190182E+03  0.26759300460E+03  0.13987732694E+04  0.14482603930E+04  0.98858284350E+02 0.  0.
          3    1    3    3  502    0  0.13739664770E+03 -0.20895777333E+03  0.27462362796E+03  0.37142876419E+03  0.00000000000E+00 0. -1.
         -3    1    3    3    0  502  0.25276070495E+03 -0.24415701370E+03  0.50015754958E+03  0.61127587529E+03  0.00000000000E+00 0.  1.
         15    1    5    5    0    0 -0.84328164191E+02  0.17040184993E+03  0.78722317293E+02  0.20578724621E+03  0.17770000000E+01 0. -1.
        -15    1    5    5    0    0 -0.61877286645E+02  0.15119932501E+02  0.20714819572E+02  0.67005018023E+02  0.17770000000E+01 0.  1.
          2    1    6    6  503    0 -0.19866697087E+03  0.24099545992E+03  0.10471045763E+04  0.10926918004E+04  0.00000000000E+00 0. -1.
         -2    1    6    6    0  503 -0.45284930952E+02  0.26597544678E+02  0.35166869306E+03  0.35556859258E+03  0.00000000000E+00 0.  1.
<mgrwt>
<rscale>  0 0.61010503E+03</rscale>
<asrwt>0</asrwt>
<pdfrwt beam="1">  1        2 0.38282682E+00 0.61010503E+03</pdfrwt>
<pdfrwt beam="2">  1       -2 0.33135826E-01 0.61010503E+03</pdfrwt>
<totfact> 0.32056534E+01</totfact>
</mgrwt>
</event>
<event>
12    1  0.7781383E-008  0.6765731E+03  0.7818608E-02  0.9758156E-01
         -1   -1    0    0    0  501 -0.00000000000E+00  0.00000000000E+00  0.67133805477E+03  0.67133805477E+03  0.00000000000E+00 0.  1.
          1   -1    0    0  501    0  0.00000000000E+00 -0.00000000000E+00 -0.18288648564E+04  0.18288648564E+04  0.00000000000E+00 0. -1.
         23    2    1    2    0    0  0.22305878691E+02  0.57271107442E+03  0.42101459120E+03  0.71686685503E+03  0.90273334139E+02 0.  0.
    5000000    2    1    2    0    0 -0.22305878691E+02 -0.57271107442E+03 -0.15785413929E+04  0.17833360562E+04  0.59999919442E+03 0.  0.
         23    2    4    4    0    0 -0.13053234885E+03  0.41535575498E+02 -0.14992733902E+03  0.22186700378E+03  0.89346864822E+02 0.  0.
         23    2    4    4    0    0  0.10822647016E+03 -0.61424664992E+03 -0.14286140539E+04  0.15614690524E+04  0.90750046677E+02 0.  0.
          2    1    3    3  502    0  0.30028194561E+02  0.52649465701E+03  0.41185947612E+03  0.66912371383E+03  0.00000000000E+00 0. -1.
         -2    1    3    3    0  502 -0.77223158694E+01  0.46216417405E+02  0.91551150740E+01  0.47743141206E+02  0.00000000000E+00 0.  1.
         15    1    5    5    0    0 -0.56737310795E+02  0.55775155990E+02 -0.11273163477E+03  0.13799119417E+03  0.17770000000E+01 0.  1.
        -15    1    5    5    0    0 -0.73795038058E+02 -0.14239580493E+02 -0.37195704251E+02  0.83875809613E+02  0.17770000000E+01 0. -1.
          1    1    6    6  503    0  0.73340985919E+02 -0.47509023767E+03 -0.10013242001E+04  0.11107383976E+04  0.00000000000E+00 0. -1.
         -1    1    6    6    0  503  0.34885484243E+02 -0.13915641225E+03 -0.42728985378E+03  0.45073065486E+03  0.00000000000E+00 0.  1.
<mgrwt>
<rscale>  0 0.67657311E+03</rscale>
<asrwt>0</asrwt>
<pdfrwt beam="1">  1        1 0.28136382E+00 0.67657311E+03</pdfrwt>
<pdfrwt beam="2">  1       -1 0.10328278E+00 0.67657311E+03</pdfrwt>
<totfact> 0.36633471E+00</totfact>
</mgrwt>
</event>
<event>
12    1  0.7781383E-008  0.1661849E+04  0.7818608E-02  0.8783427E-01
          1   -1    0    0  501    0  0.00000000000E+00  0.00000000000E+00  0.19844556322E+04  0.19844556322E+04  0.00000000000E+00 0. -1.
         -1   -1    0    0    0  501 -0.00000000000E+00 -0.00000000000E+00 -0.22922283499E+04  0.22922283499E+04  0.00000000000E+00 0.  1.
         23    2    1    2    0    0  0.20714845540E+03 -0.16159354486E+04 -0.14626752722E+04  0.21914545817E+04  0.94320597076E+02 0.  0.
    5000000    2    1    2    0    0 -0.20714845540E+03  0.16159354486E+04  0.11549025544E+04  0.20852294005E+04  0.60018654246E+03 0.  0.
         23    2    4    4    0    0  0.13467602868E+03  0.66409267918E+03  0.25798104967E+03  0.73077993233E+03  0.91259894108E+02 0.  0.
         23    2    4    4    0    0 -0.34182448408E+03  0.95184276945E+03  0.89692150478E+03  0.13544494682E+04  0.84950223237E+02 0.  0.
          2    1    3    3  502    0  0.19026954927E+03 -0.15505048711E+04 -0.14229640936E+04  0.21130770616E+04  0.00000000000E+00 0. -1.
         -2    1    3    3    0  502  0.16878906129E+02 -0.65430577496E+02 -0.39711178600E+02  0.78377520051E+02  0.00000000000E+00 0.  1.
         15    1    5    5    0    0  0.74619914413E+02  0.53361828079E+03  0.22158355528E+03  0.58259679961E+03  0.17770000000E+01 0.  1.
        -15    1    5    5    0    0  0.60056114264E+02  0.13047439839E+03  0.36397494382E+02  0.14818313272E+03  0.17770000000E+01 0. -1.
          2    1    6    6  503    0 -0.90233832878E+02  0.22751445461E+03  0.26597888887E+03  0.36145503313E+03  0.00000000000E+00 0. -1.
         -2    1    6    6    0  503 -0.25159065120E+03  0.72432831484E+03  0.63094261592E+03  0.99299443504E+03  0.00000000000E+00 0.  1.
<mgrwt>
<rscale>  0 0.16618493E+04</rscale>
<asrwt>0</asrwt>
<pdfrwt beam="1">  1        1 0.30530087E+00 0.16618493E+04</pdfrwt>
<pdfrwt beam="2">  1       -1 0.35265052E+00 0.16618493E+04</pdfrwt>
<totfact> 0.42113298E-02</totfact>
</mgrwt>
</event>
<event>
12    1  0.7781383E-008  0.8789285E+03  0.7818608E-02  0.9452312E-01
          2   -1    0    0  501    0  0.00000000000E+00  0.00000000000E+00  0.13021378567E+04  0.13021378567E+04  0.00000000000E+00 0. -1.
         -2   -1    0    0    0  501 -0.00000000000E+00 -0.00000000000E+00 -0.62169535665E+03  0.62169535665E+03  0.00000000000E+00 0.  1.
         23    2    1    2    0    0  0.23280448696E+03 -0.74155578010E+03  0.11551927667E+03  0.79102957917E+03  0.90995536597E+02 0.  0.
    5000000    2    1    2    0    0 -0.23280448696E+03  0.74155578010E+03  0.56492322341E+03  0.11328036342E+04  0.60000243432E+03 0.  0.
         23    2    4    4    0    0 -0.72579221339E+02  0.78264618293E+03  0.46642097716E+03  0.91865173621E+03  0.92572638990E+02 0.  0.
         23    2    4    4    0    0 -0.16022526562E+03 -0.41090402823E+02  0.98502246248E+02  0.21415189801E+03  0.93796513554E+02 0.  0.
          3    1    3    3  502    0  0.13043245981E+03 -0.29986812788E+03  0.19569046118E+02  0.32759192337E+03  0.00000000000E+00 0. -1.
         -3    1    3    3    0  502  0.10237202716E+03 -0.44168765222E+03  0.95950230547E+02  0.46343765580E+03  0.00000000000E+00 0.  1.
         15    1    5    5    0    0 -0.48669612637E+02  0.28501585887E+03  0.12698580666E+03  0.31580266595E+03  0.17770000000E+01 0. -1.
        -15    1    5    5    0    0 -0.23909608702E+02  0.49763032406E+03  0.33943517050E+03  0.60284907026E+03  0.17770000000E+01 0.  1.
          2    1    6    6  503    0 -0.98703319066E+02  0.22907103401E+02  0.49956748214E+02  0.11297237394E+03  0.00000000000E+00 0. -1.
         -2    1    6    6    0  503 -0.61521946558E+02 -0.63997506225E+02  0.48545498034E+02  0.10117952407E+03  0.00000000000E+00 0.  1.
<mgrwt>
<rscale>  0 0.87892849E+03</rscale>
<asrwt>0</asrwt>
<pdfrwt beam="1">  1        2 0.20032890E+00 0.87892849E+03</pdfrwt>
<pdfrwt beam="2">  1       -2 0.95645440E-01 0.87892849E+03</pdfrwt>
<totfact> 0.15217930E+01</totfact>
</mgrwt>
</event>
<event>
12    1  0.7781383E-008  0.7702635E+03  0.7818608E-02  0.9604086E-01
          1   -1    0    0  501    0  0.00000000000E+00  0.00000000000E+00  0.13836452267E+04  0.13836452267E+04  0.00000000000E+00 0. -1.
         -1   -1    0    0    0  501 -0.00000000000E+00 -0.00000000000E+00 -0.47058828057E+03  0.47058828057E+03  0.00000000000E+00 0.  1.
         23    2    1    2    0    0  0.58813166427E+03 -0.36476327472E+03  0.39031299703E+03  0.79961098512E+03  0.89902117713E+02 0.  0.
    5000000    2    1    2    0    0 -0.58813166427E+03  0.36476327472E+03  0.52274394909E+03  0.10546225221E+04  0.60001360551E+03 0.  0.
         23    2    4    4    0    0 -0.13538842303E+03  0.35317163994E+03  0.48251583183E+02  0.39210859282E+03  0.91436868584E+02 0.  0.
         23    2    4    4    0    0 -0.45274324124E+03  0.11591634780E+02  0.47449236590E+03  0.66251392932E+03  0.93117628623E+02 0.  0.
          4    1    3    3  502    0  0.25860974691E+03 -0.21189190354E+03  0.19861969386E+03  0.38887911074E+03  0.00000000000E+00 0. -1.
         -4    1    3    3    0  502  0.32952191736E+03 -0.15287137118E+03  0.19169330317E+03  0.41073187438E+03  0.00000000000E+00 0.  1.
         15    1    5    5    0    0 -0.95385151249E+02  0.12432476059E+03  0.15203898213E+02  0.15744614770E+03  0.17770000000E+01 0. -1.
        -15    1    5    5    0    0 -0.40003271783E+02  0.22884687935E+03  0.33047684970E+02  0.23466244512E+03  0.17770000000E+01 0.  1.
          1    1    6    6  503    0 -0.18771858791E+03  0.19763826452E+02  0.26096992691E+03  0.32207790957E+03  0.00000000000E+00 0. -1.
         -1    1    6    6    0  503 -0.26502465333E+03 -0.81721916721E+01  0.21352243899E+03  0.34043601975E+03  0.00000000000E+00 0.  1.
<mgrwt>
<rscale>  0 0.77026349E+03</rscale>
<asrwt>0</asrwt>
<pdfrwt beam="1">  1        1 0.21286849E+00 0.77026349E+03</pdfrwt>
<pdfrwt beam="2">  1       -1 0.72398198E-01 0.77026349E+03</pdfrwt>
<totfact> 0.15665157E+01</totfact>
</mgrwt>
</event>
<event>
12    1  0.7781383E-008  0.1328165E+04  0.7818608E-02  0.9007523E-01
         -2   -1    0    0    0  501 -0.00000000000E+00  0.00000000000E+00  0.21126563429E+04  0.21126563429E+04  0.00000000000E+00 0. -1.
          2   -1    0    0  501    0  0.00000000000E+00 -0.00000000000E+00 -0.11663788120E+04  0.11663788120E+04  0.00000000000E+00 0.  1.
         23    2    1    2    0    0  0.75713380961E+03 -0.10090766334E+04 -0.41244242304E+03  0.13302558615E+04  0.89356851832E+02 0.  0.
    5000000    2    1    2    0    0 -0.75713380961E+03  0.10090766334E+04  0.13587199539E+04  0.19487792933E+04  0.60011129225E+03 0.  0.
         23    2    4    4    0    0 -0.10923718713E+03  0.61918003276E+03  0.60279491787E+03  0.87591708748E+03  0.92478944172E+02 0.  0.
         23    2    4    4    0    0 -0.64789662247E+03  0.38989660067E+03  0.75592503606E+03  0.10728622058E+04  0.88437887482E+02 0.  0.
          1    1    3    3  502    0  0.14441301034E+03 -0.14389015735E+03 -0.50802793568E+02  0.21009621313E+03  0.00000000000E+00 0. -1.
         -1    1    3    3    0  502  0.61272079926E+03 -0.86518647609E+03 -0.36163962947E+03  0.11201596484E+04  0.00000000000E+00 0.  1.
         15    1    5    5    0    0 -0.11849020830E+03  0.50476997793E+03  0.52040873871E+03  0.73461627612E+03  0.17770000000E+01 0. -1.
        -15    1    5    5    0    0  0.92530211690E+01  0.11441005483E+03  0.82386179152E+02  0.14130081136E+03  0.17770000000E+01 0.  1.
          2    1    6    6  503    0 -0.52700640452E+03  0.28606112538E+03  0.56172908168E+03  0.82164851309E+03  0.00000000000E+00 0.  1.
         -2    1    6    6    0  503 -0.12089021796E+03  0.10383547529E+03  0.19419595438E+03  0.25121369275E+03  0.00000000000E+00 0. -1.
<mgrwt>
<rscale>  0 0.13281650E+04</rscale>
<asrwt>0</asrwt>
<pdfrwt beam="1">  1        2 0.17944289E+00 0.13281650E+04</pdfrwt>
<pdfrwt beam="2">  1       -2 0.32502405E+00 0.13281650E+04</pdfrwt>
<totfact> 0.42627073E-01</totfact>
</mgrwt>
</event>
<event>
12    1  0.7781383E-008  0.1021804E+04  0.7818608E-02  0.9284949E-01
         -2   -1    0    0    0  501 -0.00000000000E+00  0.00000000000E+00  0.93747942736E+03  0.93747942736E+03  0.00000000000E+00 0. -1.
          2   -1    0    0  501    0  0.00000000000E+00 -0.00000000000E+00 -0.17881582849E+04  0.17881582849E+04  0.00000000000E+00 0.  1.
         23    2    1    2    0    0  0.70663937986E+03  0.69322273417E+03  0.35391172442E+03  0.10550460997E+04  0.89284889740E+02 0.  0.
    5000000    2    1    2    0    0 -0.70663937986E+03 -0.69322273417E+03 -0.12045905820E+04  0.16705916125E+04  0.59995074246E+03 0.  0.
         23    2    4    4    0    0 -0.42332819139E+02  0.19271645765E+01 -0.41078965983E+03  0.42055017609E+03  0.79489146736E+02 0.  0.
         23    2    4    4    0    0 -0.66430656072E+03 -0.69514989874E+03 -0.79380092214E+03  0.12500414364E+04  0.89146511445E+02 0.  0.
          1    1    3    3  502    0  0.53120893985E+03  0.46694432361E+03  0.23945025574E+03  0.74669696939E+03  0.00000000000E+00 0.  1.
         -1    1    3    3    0  502  0.17543044001E+03  0.22627841055E+03  0.11446146868E+03  0.30834913033E+03  0.00000000000E+00 0. -1.
         15    1    5    5    0    0  0.21144467754E+02  0.42137252952E+01 -0.17560383130E+03  0.17693136323E+03  0.17770000000E+01 0.  1.
        -15    1    5    5    0    0 -0.63477286893E+02 -0.22865607187E+01 -0.23518582853E+03  0.24361881286E+03  0.17770000000E+01 0. -1.
          4    1    6    6  503    0 -0.42970039160E+03 -0.39301803019E+03 -0.45404856899E+03  0.73842108691E+03  0.00000000000E+00 0. -1.
         -4    1    6    6    0  503 -0.23460616912E+03 -0.30213186856E+03 -0.33975235315E+03  0.51162034953E+03  0.00000000000E+00 0.  1.
<mgrwt>
<rscale>  0 0.10218036E+04</rscale>
<asrwt>0</asrwt>
<pdfrwt beam="1">  1        2 0.27510127E+00 0.10218036E+04</pdfrwt>
<pdfrwt beam="2">  1       -2 0.14422760E+00 0.10218036E+04</pdfrwt>
<totfact> 0.28897127E+00</totfact>
</mgrwt>
</event>
<event>
12    1  0.7781383E-008  0.6092940E+03  0.7818608E-02  0.9886309E-01
          1   -1    0    0  501    0  0.00000000000E+00  0.00000000000E+00  0.16946758155E+04  0.16946758155E+04  0.00000000000E+00 0. -1.
         -1   -1    0    0    0  501 -0.00000000000E+00 -0.00000000000E+00 -0.44632979697E+03  0.44632979697E+03  0.00000000000E+00 0.  1.
         23    2    1    2    0    0 -0.43382384484E+03  0.20639337538E+03  0.12816611440E+04  0.13716690918E+04  0.89551413291E+02 0.  0.
    5000000    2    1    2    0    0  0.43382384484E+03 -0.20639337538E+03 -0.33315125509E+02  0.76933652062E+03  0.59997285824E+03 0.  0.
         23    2    4    4    0    0  0.24237199295E+03  0.17565268115E+03  0.68429696961E+02  0.32042379392E+03  0.91600965715E+02 0.  0.
         23    2    4    4    0    0  0.19145185189E+03 -0.38204605653E+03 -0.10174482247E+03  0.44891272671E+03  0.92507439695E+02 0.  0.
          4    1    3    3  502    0 -0.23998635853E+03  0.10974812723E+03  0.57722562156E+03  0.63468694795E+03  0.00000000000E+00 0. -1.
         -4    1    3    3    0  502 -0.19383748632E+03  0.96645248149E+02  0.70443552245E+03  0.73698214387E+03  0.00000000000E+00 0.  1.
         15    1    5    5    0    0  0.83408839981E+01  0.38269512433E+02 -0.43607028886E+01  0.39449960538E+02  0.17770000000E+01 0. -1.
        -15    1    5    5    0    0  0.23403110896E+03  0.13738316871E+03  0.72790399850E+02  0.28097383338E+03  0.17770000000E+01 0.  1.
          2    1    6    6  503    0  0.11712290087E+02 -0.30762900827E+02 -0.36168068471E+02  0.48904631512E+02  0.00000000000E+00 0. -1.
         -2    1    6    6    0  503  0.17973956180E+03 -0.35128315570E+03 -0.65576753999E+02  0.40000809519E+03  0.00000000000E+00 0.  1.
<mgrwt>
<rscale>  0 0.60929396E+03</rscale>
<asrwt>0</asrwt>
<pdfrwt beam="1">  1        1 0.26071935E+00 0.60929396E+03</pdfrwt>
<pdfrwt beam="2">  1       -1 0.68666124E-01 0.60929396E+03</pdfrwt>
<totfact> 0.10993734E+01</totfact>
</mgrwt>
</event>
<event>
12    1  0.7781383E-008  0.1855195E+04  0.7818608E-02  0.8677486E-01
          2   -1    0    0  501    0  0.00000000000E+00  0.00000000000E+00  0.17563093844E+04  0.17563093844E+04  0.00000000000E+00 0. -1.
         -2   -1    0    0    0  501 -0.00000000000E+00 -0.00000000000E+00 -0.25788846388E+04  0.25788846388E+04  0.00000000000E+00 0.  1.
         23    2    1    2    0    0 -0.12797897072E+04 -0.12892948505E+04 -0.14454229759E+04  0.23232255252E+04  0.89366411104E+02 0.  0.
    5000000    2    1    2    0    0  0.12797897072E+04  0.12892948505E+04  0.62284772153E+03  0.20119684980E+04  0.59994586970E+03 0.  0.
         23    2    4    4    0    0  0.93873207639E+03  0.59108501646E+03  0.49571537497E+03  0.12191290595E+04  0.99712199503E+02 0.  0.
         23    2    4    4    0    0  0.34105763082E+03  0.69820983408E+03  0.12713234656E+03  0.79283943857E+03  0.92814125361E+02 0.  0.
          4    1    3    3  502    0 -0.61513561177E+03 -0.68051827412E+03 -0.74527854704E+03  0.11819209174E+04  0.00000000000E+00 0. -1.
         -4    1    3    3    0  502 -0.66465409544E+03 -0.60877657642E+03 -0.70014442888E+03  0.11413046078E+04  0.00000000000E+00 0.  1.
         15    1    5    5    0    0  0.28058173301E+03  0.17201475236E+03  0.19753456448E+03  0.38384664362E+03  0.17770000000E+01 0. -1.
        -15    1    5    5    0    0  0.65815034337E+03  0.41907026410E+03  0.29818081049E+03  0.83528241584E+03  0.17770000000E+01 0.  1.
          4    1    6    6  503    0  0.17696101968E+03  0.26052425378E+03  0.60034701541E+02  0.32061231212E+03  0.00000000000E+00 0. -1.
         -4    1    6    6    0  503  0.16409661114E+03  0.43768558029E+03  0.67097645021E+02  0.47222712645E+03  0.00000000000E+00 0.  1.
<mgrwt>
<rscale>  0 0.18551955E+04</rscale>
<asrwt>0</asrwt>
<pdfrwt beam="1">  1        2 0.27020144E+00 0.18551955E+04</pdfrwt>
<pdfrwt beam="2">  1       -2 0.39675148E+00 0.18551955E+04</pdfrwt>
<totfact> 0.64189994E-02</totfact>
</mgrwt>
</event>
<event>
12    1  0.7781383E-008  0.1138537E+04  0.7818608E-02  0.9168424E-01
          1   -1    0    0  501    0  0.00000000000E+00  0.00000000000E+00  0.12545929292E+04  0.12545929292E+04  0.00000000000E+00 0. -1.
         -1   -1    0    0    0  501 -0.00000000000E+00 -0.00000000000E+00 -0.10821913653E+04  0.10821913653E+04  0.00000000000E+00 0.  1.
         23    2    1    2    0    0  0.81474776177E+03 -0.69065800707E+03 -0.11557433694E+03  0.10783454698E+04  0.93000681929E+02 0.  0.
    5000000    2    1    2    0    0 -0.81474776177E+03  0.69065800707E+03  0.28797590086E+03  0.12584388247E+04  0.59992979425E+03 0.  0.
         23    2    4    4    0    0 -0.36550244041E+03  0.64195989343E+03  0.28670590448E+03  0.79755946100E+03  0.90533305761E+02 0.  0.
         23    2    4    4    0    0 -0.44924532136E+03  0.48698113647E+02  0.12699963865E+01  0.46087936372E+03  0.90638347133E+02 0.  0.
          1    1    3    3  502    0  0.22081513638E+03 -0.13510031347E+03 -0.29040370637E+02  0.26048946673E+03  0.00000000000E+00 0. -1.
         -1    1    3    3    0  502  0.59393262540E+03 -0.55555769361E+03 -0.86533966298E+02  0.81785600307E+03  0.00000000000E+00 0.  1.
         15    1    5    5    0    0 -0.29261168876E+03  0.43027180573E+03  0.19881405640E+03  0.55703286614E+03  0.17770000000E+01 0. -1.
        -15    1    5    5    0    0 -0.72890751653E+02  0.21168808769E+03  0.87891848081E+02  0.24052659486E+03  0.17770000000E+01 0.  1.
          1    1    6    6  503    0 -0.24023111775E+03  0.71004832615E+02  0.69544373491E+01  0.25060135752E+03  0.00000000000E+00 0. -1.
         -1    1    6    6    0  503 -0.20901420361E+03 -0.22306718968E+02 -0.56844409626E+01  0.21027800620E+03  0.00000000000E+00 0.  1.
<mgrwt>
<rscale>  0 0.11385373E+04</rscale>
<asrwt>0</asrwt>
<pdfrwt beam="1">  1        1 0.19301430E+00 0.11385373E+04</pdfrwt>
<pdfrwt beam="2">  1       -1 0.16649098E+00 0.11385373E+04</pdfrwt>
<totfact> 0.25149264E+00</totfact>
</mgrwt>
</event>
<event>
12    1  0.7781383E-008  0.4020007E+03  0.7818608E-02  0.1043089E+00
          2   -1    0    0  501    0  0.00000000000E+00  0.00000000000E+00  0.17042334608E+04  0.17042334608E+04  0.00000000000E+00 0. -1.
         -2   -1    0    0    0  501 -0.00000000000E+00 -0.00000000000E+00 -0.48666203551E+03  0.48666203551E+03  0.00000000000E+00 0.  1.
         23    2    1    2    0    0  0.67298994234E+01  0.31611982182E+03 -0.35163367110E+03  0.48137170779E+03  0.89974713721E+02 0.  0.
    5000000    2    1    2    0    0 -0.67298994234E+01 -0.31611982182E+03  0.15692050964E+04  0.17095237885E+04  0.60007492505E+03 0.  0.
         23    2    4    4    0    0 -0.13612787868E+02  0.77509691059E+02  0.31736771406E+02  0.11978821449E+03  0.84551365865E+02 0.  0.
         23    2    4    4    0    0  0.68828884445E+01 -0.39362951288E+03  0.15374683250E+04  0.15897355740E+04  0.91971612073E+02 0.  0.
          1    1    3    3  502    0  0.24067956025E+02  0.17038970091E+03 -0.13049042292E+03  0.21596218918E+03  0.00000000000E+00 0. -1.
         -1    1    3    3    0  502 -0.17338056602E+02  0.14573012091E+03 -0.22114324819E+03  0.26540951861E+03  0.00000000000E+00 0.  1.
         15    1    5    5    0    0  0.14012020316E+00 -0.51472654108E+01 -0.20378779890E+02  0.21094226074E+02  0.17770000000E+01 0. -1.
        -15    1    5    5    0    0 -0.13752908071E+02  0.82656956470E+02  0.52115551296E+02  0.98693988414E+02  0.17770000000E+01 0.  1.
          2    1    6    6  503    0  0.23955728102E+02 -0.17903574350E+03  0.54376261767E+03  0.57297945751E+03  0.00000000000E+00 0. -1.
         -2    1    6    6    0  503 -0.17072839658E+02 -0.21459376939E+03  0.99370570734E+03  0.10167561165E+04  0.00000000000E+00 0.  1.
<mgrwt>
<rscale>  0 0.40200074E+03</rscale>
<asrwt>0</asrwt>
<pdfrwt beam="1">  1        2 0.26218976E+00 0.40200074E+03</pdfrwt>
<pdfrwt beam="2">  1       -2 0.74871083E-01 0.40200074E+03</pdfrwt>
<totfact> 0.17121197E+01</totfact>
</mgrwt>
</event>
<event>
12    1  0.7781383E-008  0.9214240E+03  0.7818608E-02  0.9399190E-01
         -2   -1    0    0    0  501 -0.00000000000E+00  0.00000000000E+00  0.64984052969E+03  0.64984052969E+03  0.00000000000E+00 0.  1.
          2   -1    0    0  501    0  0.00000000000E+00 -0.00000000000E+00 -0.20749015014E+04  0.20749015014E+04  0.00000000000E+00 0. -1.
         23    2    1    2    0    0 -0.85660998043E+03 -0.22020400196E+03  0.64508312957E+02  0.89141325758E+03  0.90475478986E+02 0.  0.
    5000000    2    1    2    0    0  0.85660998043E+03  0.22020400196E+03 -0.14895692847E+04  0.18333287735E+04  0.60000606408E+03 0.  0.
         23    2    4    4    0    0  0.24424892136E+03 -0.96733102644E+02 -0.82775411799E+03  0.87347134519E+03  0.93597448064E+02 0.  0.
         23    2    4    4    0    0  0.61236105907E+03  0.31693710460E+03 -0.66181516668E+03  0.95985742833E+03  0.88835651251E+02 0.  0.
          4    1    3    3  502    0 -0.18573336888E+03 -0.87014138234E+02  0.14533537825E+02  0.20561996083E+03  0.00000000000E+00 0.  1.
         -4    1    3    3    0  502 -0.67087661155E+03 -0.13318986372E+03  0.49974775133E+02  0.68579329675E+03  0.00000000000E+00 0. -1.
         15    1    5    5    0    0  0.12099638712E+03 -0.50911223494E+02 -0.55977502729E+03  0.57496375301E+03  0.17770000000E+01 0.  1.
        -15    1    5    5    0    0  0.12325253423E+03 -0.45821879150E+02 -0.26797909070E+03  0.29850759217E+03  0.17770000000E+01 0. -1.
          3    1    6    6  503    0  0.34164276043E+02  0.30167691333E+02 -0.20403282949E+02  0.49935771877E+02  0.00000000000E+00 0. -1.
         -3    1    6    6    0  503  0.57819678303E+03  0.28676941327E+03 -0.64141188373E+03  0.90992165645E+03  0.00000000000E+00 0.  1.
<mgrwt>
<rscale>  0 0.92142404E+03</rscale>
<asrwt>0</asrwt>
<pdfrwt beam="1">  1        2 0.31921562E+00 0.92142404E+03</pdfrwt>
<pdfrwt beam="2">  1       -2 0.99975466E-01 0.92142404E+03</pdfrwt>
<totfact> 0.50744930E+00</totfact>
</mgrwt>
</event>
<event>
12    1  0.7781383E-008  0.6032284E+03  0.7818608E-02  0.9898731E-01
         -2   -1    0    0    0  501 -0.00000000000E+00  0.00000000000E+00  0.52170095584E+03  0.52170095584E+03  0.00000000000E+00 0.  1.
          2   -1    0    0  501    0  0.00000000000E+00 -0.00000000000E+00 -0.79494760692E+03  0.79494760692E+03  0.00000000000E+00 0. -1.
         23    2    1    2    0    0 -0.90012694978E+02 -0.48182151217E+03 -0.20541546711E+03  0.53913680963E+03  0.90657214389E+02 0.  0.
    5000000    2    1    2    0    0  0.90012694978E+02  0.48182151217E+03 -0.67831183975E+02  0.77751175313E+03  0.59972427155E+03 0.  0.
         23    2    4    4    0    0 -0.59145511072E+02 -0.76617900341E+02  0.10341780143E+03  0.16821344314E+03  0.90730516739E+02 0.  0.
         23    2    4    4    0    0  0.14915820605E+03  0.55843941251E+03 -0.17124898541E+03  0.60929830999E+03  0.88405133726E+02 0.  0.
          3    1    3    3  502    0 -0.26531480208E+02 -0.13530773910E+03 -0.15028487757E+02  0.13870097024E+03  0.00000000000E+00 0. -1.
         -3    1    3    3    0  502 -0.63481214770E+02 -0.34651377307E+03 -0.19038697935E+03  0.40043583939E+03  0.00000000000E+00 0.  1.
         15    1    5    5    0    0 -0.53130683116E+02  0.24864505155E+01  0.38396169849E+02  0.65623741989E+02  0.17770000000E+01 0. -1.
        -15    1    5    5    0    0 -0.60148279561E+01 -0.79104350856E+02  0.65021631584E+02  0.10258970115E+03  0.17770000000E+01 0.  1.
          4    1    6    6  503    0  0.56818422203E+02  0.36471680371E+03 -0.12553368397E+03  0.38987868090E+03  0.00000000000E+00 0. -1.
         -4    1    6    6    0  503  0.92339783847E+02  0.19372260880E+03 -0.45715301440E+02  0.21941962908E+03  0.00000000000E+00 0.  1.
<mgrwt>
<rscale>  0 0.60322835E+03</rscale>
<asrwt>0</asrwt>
<pdfrwt beam="1">  1        2 0.12229963E+00 0.60322835E+03</pdfrwt>
<pdfrwt beam="2">  1       -2 0.80261686E-01 0.60322835E+03</pdfrwt>
<totfact> 0.48948300E+01</totfact>
</mgrwt>
</event>
<event>
12    1  0.7781383E-008  0.4303883E+03  0.7818608E-02  0.1033737E+00
         -3   -1    0    0    0  501 -0.00000000000E+00  0.00000000000E+00  0.38415383434E+03  0.38415383434E+03  0.00000000000E+00 0.  1.
          3   -1    0    0  501    0  0.00000000000E+00 -0.00000000000E+00 -0.87308577189E+03  0.87308577189E+03  0.00000000000E+00 0. -1.
         23    2    1    2    0    0  0.12865782010E+03 -0.31729022306E+03 -0.43818394990E+03  0.56364059490E+03  0.91976224902E+02 0.  0.
    5000000    2    1    2    0    0 -0.12865782010E+03  0.31729022306E+03 -0.50747987645E+02  0.69359901133E+03  0.60106431432E+03 0.  0.
         23    2    4    4    0    0 -0.32732812223E+01 -0.59821102768E+02  0.19157583075E+03  0.21997296787E+03  0.89986270950E+02 0.  0.
         23    2    4    4    0    0 -0.12538453887E+03  0.37711132583E+03 -0.24232381840E+03  0.47362604346E+03  0.87558902609E+02 0.  0.
          2    1    3    3  502    0  0.11687591309E+03 -0.17322235041E+03 -0.27967753404E+03  0.34912101740E+03  0.00000000000E+00 0. -1.
         -2    1    3    3    0  502  0.11781907008E+02 -0.14406787266E+03 -0.15850641586E+03  0.21451957750E+03  0.00000000000E+00 0.  1.
         15    1    5    5    0    0  0.36960778189E+02 -0.91376608234E+01  0.10617669501E+03  0.11281065669E+03  0.17770000000E+01 0. -1.
        -15    1    5    5    0    0 -0.40234059412E+02 -0.50683441944E+02  0.85399135739E+02  0.10716231118E+03  0.17770000000E+01 0.  1.
          3    1    6    6  503    0  0.93282063913E+01  0.46185172789E+02 -0.12323305511E+02  0.48702663980E+02  0.00000000000E+00 0. -1.
         -3    1    6    6    0  503 -0.13471274526E+03  0.33092615304E+03 -0.23000051289E+03  0.42492337948E+03  0.00000000000E+00 0.  1.
<mgrwt>
<rscale>  0 0.43038827E+03</rscale>
<asrwt>0</asrwt>
<pdfrwt beam="1">  1        3 0.13432089E+00 0.43038827E+03</pdfrwt>
<pdfrwt beam="2">  1       -3 0.59100590E-01 0.43038827E+03</pdfrwt>
<totfact> 0.31515531E+00</totfact>
</mgrwt>
</event>
<event>
12    1  0.1029083E-007  0.7095312E+03  0.7818608E-02  0.9701070E-01
          2   -1    0    0  501    0  0.00000000000E+00  0.00000000000E+00  0.10390992566E+04  0.10390992566E+04  0.00000000000E+00 0. -1.
         -2   -1    0    0    0  501 -0.00000000000E+00 -0.00000000000E+00 -0.67503017170E+03  0.67503017170E+03  0.00000000000E+00 0.  1.
         23    2    1    2    0    0  0.64530950467E+03 -0.28678458922E+03  0.33663608034E+03  0.78747822931E+03  0.90157382543E+02 0.  0.
    5000000    2    1    2    0    0 -0.64530950467E+03  0.28678458922E+03  0.27433004575E+02  0.92665119900E+03  0.59938311408E+03 0.  0.
         23    2    4    4    0    0 -0.31344394164E+03  0.12060498005E+03 -0.27159750882E+03  0.44145647269E+03  0.91246614817E+02 0.  0.
         23    2    4    4    0    0 -0.33186556303E+03  0.16617960917E+03  0.29903051339E+03  0.48519472632E+03  0.90797907912E+02 0.  0.
          1    1    3    3  502    0  0.36674018653E+03 -0.15246572540E+03  0.14061651285E+03  0.42132785989E+03  0.00000000000E+00 0. -1.
         -1    1    3    3    0  502  0.27856931814E+03 -0.13431886382E+03  0.19601956749E+03  0.36615036942E+03  0.00000000000E+00 0.  1.
         15    1    5    5    0    0 -0.20405422208E+03  0.80668606990E+02 -0.11939932013E+03  0.24980973776E+03  0.17770000000E+01 0. -1.
        -15    1    5    5    0    0 -0.10938971956E+03  0.39936373064E+02 -0.15219818869E+03  0.19164673493E+03  0.17770000000E+01 0.  1.
          3    1    6    6  503    0 -0.20155130437E+03  0.13548811288E+03  0.15276956870E+03  0.28691200419E+03  0.00000000000E+00 0. -1.
         -3    1    6    6    0  503 -0.13031425865E+03  0.30691496282E+02  0.14626094469E+03  0.19828272212E+03  0.00000000000E+00 0.  1.
<mgrwt>
<rscale>  0 0.70953119E+03</rscale>
<asrwt>0</asrwt>
<pdfrwt beam="1">  1        2 0.15986142E+00 0.70953119E+03</pdfrwt>
<pdfrwt beam="2">  1       -2 0.10385080E+00 0.70953119E+03</pdfrwt>
<totfact> 0.18338338E+01</totfact>
</mgrwt>
</event>
<event>
12    1  0.7781383E-008  0.1581448E+04  0.7818608E-02  0.8832027E-01
          2   -1    0    0  501    0  0.00000000000E+00  0.00000000000E+00  0.88192175478E+03  0.88192175478E+03  0.00000000000E+00 0. -1.
         -2   -1    0    0    0  501 -0.00000000000E+00 -0.00000000000E+00 -0.33145725155E+04  0.33145725155E+04  0.00000000000E+00 0.  1.
         23    2    1    2    0    0  0.99667119753E+03  0.11584755878E+04 -0.19615704267E+04  0.24881490650E+04  0.87795599116E+02 0.  0.
    5000000    2    1    2    0    0 -0.99667119753E+03 -0.11584755878E+04 -0.47108033403E+03  0.17083452053E+04  0.60092220464E+03 0.  0.
         23    2    4    4    0    0 -0.61507825143E+03 -0.10666058639E+04 -0.29839054127E+03  0.12698331816E+04  0.86429565393E+02 0.  0.
         23    2    4    4    0    0 -0.38159294610E+03 -0.91869723849E+02 -0.17268979277E+03  0.43851202368E+03  0.91748611521E+02 0.  0.
          3    1    3    3  502    0  0.56081445646E+03  0.59286556265E+03 -0.10121097661E+04  0.13001417648E+04  0.00000000000E+00 0. -1.
         -3    1    3    3    0  502  0.43585674107E+03  0.56561002511E+03 -0.94946066060E+03  0.11880073002E+04  0.00000000000E+00 0.  1.
         15    1    5    5    0    0 -0.51983519618E+03 -0.95660541531E+03 -0.26631615812E+03  0.11208255911E+04  0.17770000000E+01 0.  1.
        -15    1    5    5    0    0 -0.95243055254E+02 -0.11000044860E+03 -0.32074383151E+02  0.14900759058E+03  0.17770000000E+01 0. -1.
          2    1    6    6  503    0 -0.24601007392E+03 -0.24857296865E+02 -0.13867250353E+03  0.28349410031E+03  0.00000000000E+00 0. -1.
         -2    1    6    6    0  503 -0.13558287218E+03 -0.67012426984E+02 -0.34017289237E+02  0.15501792337E+03  0.00000000000E+00 0.  1.
<mgrwt>
<rscale>  0 0.15814480E+04</rscale>
<asrwt>0</asrwt>
<pdfrwt beam="1">  1        2 0.13568027E+00 0.15814480E+04</pdfrwt>
<pdfrwt beam="2">  1       -2 0.50993424E+00 0.15814480E+04</pdfrwt>
<totfact> 0.40344357E-02</totfact>
</mgrwt>
</event>
<event>
12    1  0.7781383E-008  0.5156813E+03  0.7818608E-02  0.1009765E+00
          2   -1    0    0  501    0  0.00000000000E+00  0.00000000000E+00  0.43350150985E+04  0.43350150985E+04  0.00000000000E+00 0. -1.
         -2   -1    0    0    0  501 -0.00000000000E+00 -0.00000000000E+00 -0.78178235458E+02  0.78178235458E+02  0.00000000000E+00 0.  1.
         23    2    1    2    0    0 -0.31446875501E+03  0.20271616379E+03  0.84275484770E+03  0.92664566477E+03  0.91934834357E+02 0.  0.
    5000000    2    1    2    0    0  0.31446875501E+03 -0.20271616379E+03  0.34140820153E+04  0.34865476691E+04  0.60006183108E+03 0.  0.
         23    2    4    4    0    0  0.41247994672E+03 -0.29681296642E+03  0.29538985339E+04  0.29986954523E+04  0.91761775335E+02 0.  0.
         23    2    4    4    0    0 -0.98011191716E+02  0.94096802626E+02  0.46018348135E+03  0.48785221683E+03  0.88150706138E+02 0.  0.
          1    1    3    3  502    0 -0.18458889258E+03  0.88009041596E+02  0.54550940536E+03  0.58257974733E+03  0.00000000000E+00 0. -1.
         -1    1    3    3    0  502 -0.12987986243E+03  0.11470712219E+03  0.29724544234E+03  0.34406591744E+03  0.00000000000E+00 0.  1.
         15    1    5    5    0    0  0.87058145476E+02 -0.51491625123E+02  0.82127710699E+03  0.82748398918E+03  0.17770000000E+01 0.  1.
        -15    1    5    5    0    0  0.32542180125E+03 -0.24532134129E+03  0.21326214270E+04  0.21712114631E+04  0.17770000000E+01 0. -1.
          4    1    6    6  503    0 -0.69982324482E+02  0.32391393343E+02  0.13314005223E+03  0.15386033150E+03  0.00000000000E+00 0. -1.
         -4    1    6    6    0  503 -0.28028867233E+02  0.61705409283E+02  0.32704342912E+03  0.33399188533E+03  0.00000000000E+00 0.  1.
<mgrwt>
<rscale>  0 0.51568130E+03</rscale>
<asrwt>0</asrwt>
<pdfrwt beam="1">  1        2 0.66692521E+00 0.51568130E+03</pdfrwt>
<pdfrwt beam="2">  1       -2 0.12027424E-01 0.51568130E+03</pdfrwt>
<totfact> 0.10629146E+01</totfact>
</mgrwt>
</event>
<event>
12    1  0.7781383E-008  0.7941654E+03  0.7818608E-02  0.9568501E-01
         -2   -1    0    0    0  501 -0.00000000000E+00  0.00000000000E+00  0.55434918395E+03  0.55434918395E+03  0.00000000000E+00 0.  1.
          2   -1    0    0  501    0  0.00000000000E+00 -0.00000000000E+00 -0.12489440524E+04  0.12489440524E+04  0.00000000000E+00 0. -1.
         23    2    1    2    0    0 -0.44513094668E+03  0.55937948816E+03 -0.20353514533E+03  0.74875682405E+03  0.90350731610E+02 0.  0.
    5000000    2    1    2    0    0  0.44513094668E+03 -0.55937948816E+03 -0.49105972315E+03  0.10545364123E+04  0.59988367352E+03 0.  0.
         23    2    4    4    0    0  0.40633628027E+03 -0.64306280042E+03 -0.51505257494E+03  0.92307736961E+03  0.90298047558E+02 0.  0.
         23    2    4    4    0    0  0.38794666414E+02  0.83683312253E+02  0.23992851785E+02  0.13145904272E+03  0.90542255798E+02 0.  0.
          3    1    3    3  502    0 -0.37798749867E+03  0.41759993346E+03 -0.16975260003E+03  0.58828581386E+03  0.00000000000E+00 0. -1.
         -3    1    3    3    0  502 -0.67143448014E+02  0.14177955470E+03 -0.33782545299E+02  0.16047101019E+03  0.00000000000E+00 0.  1.
         15    1    5    5    0    0  0.10720516914E+03 -0.17143950134E+03 -0.18668330859E+03  0.27520586176E+03  0.17770000000E+01 0.  1.
        -15    1    5    5    0    0  0.29913111112E+03 -0.47162329907E+03 -0.32836926634E+03  0.64787150785E+03  0.17770000000E+01 0. -1.
          1    1    6    6  503    0  0.33274769540E+02  0.91820756512E+02  0.45550959296E+02  0.10776433319E+03  0.00000000000E+00 0. -1.
         -1    1    6    6    0  503  0.55198968743E+01 -0.81374442591E+01 -0.21558107511E+02  0.23694709536E+02  0.00000000000E+00 0.  1.
<mgrwt>
<rscale>  0 0.79416538E+03</rscale>
<asrwt>0</asrwt>
<pdfrwt beam="1">  1        2 0.19214524E+00 0.79416538E+03</pdfrwt>
<pdfrwt beam="2">  1       -2 0.85284490E-01 0.79416538E+03</pdfrwt>
<totfact> 0.21495600E+01</totfact>
</mgrwt>
</event>
<event>
12    1  0.7781383E-008  0.9655029E+03  0.7818608E-02  0.9347211E-01
         -1   -1    0    0    0  501 -0.00000000000E+00  0.00000000000E+00  0.75469091791E+03  0.75469091791E+03  0.00000000000E+00 0.  1.
          1   -1    0    0  501    0  0.00000000000E+00 -0.00000000000E+00 -0.14637077912E+04  0.14637077912E+04  0.00000000000E+00 0. -1.
         23    2    1    2    0    0 -0.36410638229E+03  0.79982349572E+03  0.89769534099E+02  0.88783834102E+03  0.88922823884E+02 0.  0.
    5000000    2    1    2    0    0  0.36410638229E+03 -0.79982349572E+03 -0.79878640736E+03  0.13305603681E+04  0.60003340451E+03 0.  0.
         23    2    4    4    0    0 -0.14460107237E+03 -0.27522058356E+03 -0.19163262238E+03  0.37594656126E+03  0.89201542683E+02 0.  0.
         23    2    4    4    0    0  0.50870745466E+03 -0.52460291216E+03 -0.60715378497E+03  0.95461380680E+03  0.93060795447E+02 0.  0.
          2    1    3    3  502    0 -0.61412903529E+02  0.21205750818E+03  0.98079935445E+00  0.22077339845E+03  0.00000000000E+00 0. -1.
         -2    1    3    3    0  502 -0.30269347876E+03  0.58776598754E+03  0.88788734745E+02  0.66706494257E+03  0.00000000000E+00 0.  1.
         15    1    5    5    0    0 -0.25031974516E+02 -0.83694832260E+02 -0.98587009960E+02  0.13173450936E+03  0.17770000000E+01 0. -1.
        -15    1    5    5    0    0 -0.11956909785E+03 -0.19152575130E+03 -0.93045612423E+02  0.24421205189E+03  0.17770000000E+01 0.  1.
          2    1    6    6  503    0  0.24030210378E+03 -0.31033197558E+03 -0.30283503168E+03  0.49574196167E+03  0.00000000000E+00 0. -1.
         -2    1    6    6    0  503  0.26840535088E+03 -0.21427093658E+03 -0.30431875330E+03  0.45887184513E+03  0.00000000000E+00 0.  1.
<mgrwt>
<rscale>  0 0.96550287E+03</rscale>
<asrwt>0</asrwt>
<pdfrwt beam="1">  1        1 0.22518581E+00 0.96550287E+03</pdfrwt>
<pdfrwt beam="2">  1       -1 0.11610630E+00 0.96550287E+03</pdfrwt>
<totfact> 0.46947786E+00</totfact>
</mgrwt>
</event>
<event>
12    1  0.7781383E-008  0.6739503E+03  0.7818608E-02  0.9762848E-01
          2   -1    0    0  501    0  0.00000000000E+00  0.00000000000E+00  0.20281089979E+04  0.20281089979E+04  0.00000000000E+00 0. -1.
         -2   -1    0    0    0  501 -0.00000000000E+00 -0.00000000000E+00 -0.53433562979E+03  0.53433562979E+03  0.00000000000E+00 0.  1.
         23    2    1    2    0    0  0.54676017373E+03 -0.27838666076E+03 -0.20911867297E+03  0.65555370014E+03  0.97847912187E+02 0.  0.
    5000000    2    1    2    0    0 -0.54676017373E+03  0.27838666076E+03  0.17028920411E+04  0.19068909276E+04  0.59995490293E+03 0.  0.
         23    2    4    4    0    0 -0.39109049795E+03 -0.10393274193E+01  0.14024452116E+04  0.14585482417E+04  0.86934135513E+02 0.  0.
         23    2    4    4    0    0 -0.15566967578E+03  0.27942598818E+03  0.30044682947E+03  0.44834268589E+03  0.91820127544E+02 0.  0.
          4    1    3    3  502    0  0.22354714699E+03 -0.16666475137E+03 -0.10689172102E+03  0.29862402164E+03  0.00000000000E+00 0.  1.
         -4    1    3    3    0  502  0.32321302675E+03 -0.11172190939E+03 -0.10222695195E+03  0.35692967851E+03  0.00000000000E+00 0. -1.
         15    1    5    5    0    0 -0.35523511442E+03 -0.27077660241E+02  0.12516317641E+04  0.13013494600E+04  0.17770000000E+01 0.  1.
        -15    1    5    5    0    0 -0.35855383530E+02  0.26038332822E+02  0.15081344748E+03  0.15719878172E+03  0.17770000000E+01 0. -1.
          3    1    6    6  503    0 -0.72332845203E+02  0.19435547530E+03  0.23122393047E+03  0.31059716241E+03  0.00000000000E+00 0. -1.
         -3    1    6    6    0  503 -0.83336830581E+02  0.85070512872E+02  0.69222899003E+02  0.13774552348E+03  0.00000000000E+00 0.  1.
<mgrwt>
<rscale>  0 0.67395029E+03</rscale>
<asrwt>0</asrwt>
<pdfrwt beam="1">  1        2 0.31201677E+00 0.67395029E+03</pdfrwt>
<pdfrwt beam="2">  1       -2 0.82205483E-01 0.67395029E+03</pdfrwt>
<totfact> 0.87907225E+00</totfact>
</mgrwt>
</event>
<event>
12    1  0.7781383E-008  0.9293998E+03  0.7818608E-02  0.9389558E-01
          2   -1    0    0  501    0  0.00000000000E+00  0.00000000000E+00  0.17174514612E+04  0.17174514612E+04  0.00000000000E+00 0.  1.
         -2   -1    0    0    0  501 -0.00000000000E+00 -0.00000000000E+00 -0.59388307232E+03  0.59388307232E+03  0.00000000000E+00 0. -1.
         23    2    1    2    0    0  0.78232525151E+03 -0.47620640879E+03  0.43709641917E+03  0.10190877512E+04  0.93173076381E+02 0.  0.
    5000000    2    1    2    0    0 -0.78232525151E+03  0.47620640879E+03  0.68647196974E+03  0.12922467823E+04  0.59987718596E+03 0.  0.
         23    2    4    4    0    0 -0.61052485378E+03  0.29631274539E+03  0.15726708212E+03  0.70153549467E+03  0.82929337338E+02 0.  0.
         23    2    4    4    0    0 -0.17180039773E+03  0.17989366340E+03  0.52920488762E+03  0.59071128764E+03  0.83695313390E+02 0.  0.
          1    1    3    3  502    0  0.50018208045E+03 -0.28262980473E+03  0.22804562925E+03  0.61811530409E+03  0.00000000000E+00 0. -1.
         -1    1    3    3    0  502  0.28214317106E+03 -0.19357660406E+03  0.20905078991E+03  0.40097244716E+03  0.00000000000E+00 0.  1.
         15    1    5    5    0    0 -0.10767397402E+03  0.18944522398E+02  0.28576520642E+02  0.11301484358E+03  0.17770000000E+01 0. -1.
        -15    1    5    5    0    0 -0.50285087977E+03  0.27736822300E+03  0.12869056148E+03  0.58852065109E+03  0.17770000000E+01 0.  1.
          3    1    6    6  503    0 -0.84805660975E+02  0.39995643017E+02  0.24326348897E+03  0.26070822131E+03  0.00000000000E+00 0. -1.
         -3    1    6    6    0  503 -0.86994736751E+02  0.13989802038E+03  0.28594139865E+03  0.33000306633E+03  0.00000000000E+00 0.  1.
<mgrwt>
<rscale>  0 0.92939983E+03</rscale>
<asrwt>0</asrwt>
<pdfrwt beam="1">  1        2 0.26422330E+00 0.92939983E+03</pdfrwt>
<pdfrwt beam="2">  1       -2 0.91366628E-01 0.92939983E+03</pdfrwt>
<totfact> 0.98437176E+00</totfact>
</mgrwt>
</event>
<event>
12    1  0.7781383E-008  0.7719223E+03  0.7818608E-02  0.9601572E-01
         -2   -1    0    0    0  501 -0.00000000000E+00  0.00000000000E+00  0.11381870801E+04  0.11381870801E+04  0.00000000000E+00 0.  1.
          2   -1    0    0  501    0  0.00000000000E+00 -0.00000000000E+00 -0.71386672311E+03  0.71386672311E+03  0.00000000000E+00 0. -1.
         23    2    1    2    0    0 -0.24869415635E+03 -0.67528970452E+03 -0.16666642240E+03  0.74438286133E+03  0.91995540467E+02 0.  0.
    5000000    2    1    2    0    0  0.24869415635E+03  0.67528970452E+03  0.59098677941E+03  0.11076709419E+04  0.59983712262E+03 0.  0.
         23    2    4    4    0    0 -0.69305036942E+02  0.36504173960E+03  0.28001775332E+02  0.38386076092E+03  0.92229737921E+02 0.  0.
         23    2    4    4    0    0  0.31799919329E+03  0.31024796491E+03  0.56298500408E+03  0.72381018098E+03  0.97835456786E+02 0.  0.
          4    1    3    3  502    0 -0.73801612155E+02 -0.28055033244E+03 -0.30616737271E+02  0.29170627623E+03  0.00000000000E+00 0. -1.
         -4    1    3    3    0  502 -0.17489254419E+03 -0.39473937208E+03 -0.13604968513E+03  0.45267658511E+03  0.00000000000E+00 0.  1.
         15    1    5    5    0    0  0.15597376817E+00  0.36376943479E+02 -0.24442551566E+02  0.43862311849E+02  0.17770000000E+01 0. -1.
        -15    1    5    5    0    0 -0.69461010710E+02  0.32866479613E+03  0.52444326897E+02  0.33999844908E+03  0.17770000000E+01 0.  1.
          1    1    6    6  503    0  0.19269474345E+03  0.23336976243E+03  0.32509126635E+03  0.44415880226E+03  0.00000000000E+00 0. -1.
         -1    1    6    6    0  503  0.12530444984E+03  0.76878202479E+02  0.23789373773E+03  0.27965137871E+03  0.00000000000E+00 0.  1.
<mgrwt>
<rscale>  0 0.77192232E+03</rscale>
<asrwt>0</asrwt>
<pdfrwt beam="1">  1        2 0.10982565E+00 0.77192232E+03</pdfrwt>
<pdfrwt beam="2">  1       -2 0.17510570E+00 0.77192232E+03</pdfrwt>
<totfact> 0.79571152E+00</totfact>
</mgrwt>
</event>
<event>
12    1  0.7781383E-008  0.6704282E+03  0.7818608E-02  0.9769185E-01
         -2   -1    0    0    0  501 -0.00000000000E+00  0.00000000000E+00  0.79658927895E+03  0.79658927895E+03  0.00000000000E+00 0.  1.
          2   -1    0    0  501    0  0.00000000000E+00 -0.00000000000E+00 -0.97827671636E+03  0.97827671636E+03  0.00000000000E+00 0. -1.
         23    2    1    2    0    0  0.60996721471E+03  0.22849205986E+03  0.34661472609E+03  0.74357422791E+03  0.92153348442E+02 0.  0.
    5000000    2    1    2    0    0 -0.60996721471E+03 -0.22849205986E+03 -0.52830216349E+03  0.10312917674E+04  0.60015906985E+03 0.  0.
         23    2    4    4    0    0 -0.11783478172E+03 -0.46793820616E+02  0.11714247551E+03  0.19450800943E+03  0.89645461297E+02 0.  0.
         23    2    4    4    0    0 -0.49213243299E+03 -0.18169823924E+03 -0.64544463901E+03  0.83678375797E+03  0.91649843658E+02 0.  0.
          3    1    3    3  502    0  0.35583327110E+03  0.86847566846E+02  0.20923587850E+03  0.42182872062E+03  0.00000000000E+00 0. -1.
         -3    1    3    3    0  502  0.25413394361E+03  0.14164449301E+03  0.13737884759E+03  0.32174550729E+03  0.00000000000E+00 0.  1.
         15    1    5    5    0    0 -0.49075006181E+01 -0.40771630393E+02  0.41704545950E+02  0.58556266011E+02  0.17770000000E+01 0.  1.
        -15    1    5    5    0    0 -0.11292728110E+03 -0.60221902233E+01  0.75437929564E+02  0.13595174342E+03  0.17770000000E+01 0. -1.
          1    1    6    6  503    0 -0.48029374928E+03 -0.16280961236E+03 -0.59611265931E+03  0.78264893667E+03  0.00000000000E+00 0. -1.
         -1    1    6    6    0  503 -0.11838683712E+02 -0.18888626883E+02 -0.49331979691E+02  0.54134821305E+02  0.00000000000E+00 0.  1.
<mgrwt>
<rscale>  0 0.67042824E+03</rscale>
<asrwt>0</asrwt>
<pdfrwt beam="1">  1        2 0.15050411E+00 0.67042824E+03</pdfrwt>
<pdfrwt beam="2">  1       -2 0.12255220E+00 0.67042824E+03</pdfrwt>
<totfact> 0.13454890E+01</totfact>
</mgrwt>
</event>
<event>
12    1  0.7781383E-008  0.1057939E+04  0.7818608E-02  0.9247185E-01
         -1   -1    0    0    0  501 -0.00000000000E+00  0.00000000000E+00  0.54376509155E+03  0.54376509155E+03  0.00000000000E+00 0.  1.
          1   -1    0    0  501    0  0.00000000000E+00 -0.00000000000E+00 -0.24474092768E+04  0.24474092768E+04  0.00000000000E+00 0. -1.
         23    2    1    2    0    0  0.67626993164E+03  0.71642810473E+03 -0.33940827109E+03  0.10476116842E+04  0.10808337831E+03 0.  0.
    5000000    2    1    2    0    0 -0.67626993164E+03 -0.71642810473E+03 -0.15642359142E+04  0.19435626842E+04  0.59999305205E+03 0.  0.
         23    2    4    4    0    0 -0.15416219849E+02  0.59987694994E+02 -0.67702266049E+02  0.13019572156E+03  0.92364201396E+02 0.  0.
         23    2    4    4    0    0 -0.66085371179E+03 -0.77641579972E+03 -0.14965336482E+04  0.18133669627E+04  0.95591101804E+02 0.  0.
          1    1    3    3  502    0  0.62367196479E+03  0.61023687170E+03 -0.29554178059E+03  0.92124953368E+03  0.00000000000E+00 0. -1.
         -1    1    3    3    0  502  0.52597966852E+02  0.10619123303E+03 -0.43866490506E+02  0.12636215050E+03  0.00000000000E+00 0.  1.
         15    1    5    5    0    0 -0.47488863506E+02  0.47120734900E+02 -0.68252541691E+02  0.95588299446E+02  0.17770000000E+01 0. -1.
        -15    1    5    5    0    0  0.32072643657E+02  0.12866960093E+02  0.55027564240E+00  0.34607422115E+02  0.17770000000E+01 0.  1.
          4    1    6    6  503    0 -0.49018182526E+03 -0.51406183044E+03 -0.10061276143E+04  0.12315967536E+04  0.00000000000E+00 0. -1.
         -4    1    6    6    0  503 -0.17067188653E+03 -0.26235396928E+03 -0.49040603389E+03  0.58177020904E+03  0.00000000000E+00 0.  1.
<mgrwt>
<rscale>  0 0.10579392E+04</rscale>
<asrwt>0</asrwt>
<pdfrwt beam="1">  1        1 0.37652450E+00 0.10579392E+04</pdfrwt>
<pdfrwt beam="2">  1       -1 0.83656169E-01 0.10579392E+04</pdfrwt>
<totfact> 0.21077864E+00</totfact>
</mgrwt>
</event>
<event>
12    1  0.7781383E-008  0.1121933E+04  0.7818608E-02  0.9184074E-01
          1   -1    0    0  501    0  0.00000000000E+00  0.00000000000E+00  0.16472328473E+04  0.16472328473E+04  0.00000000000E+00 0. -1.
         -1   -1    0    0    0  501 -0.00000000000E+00 -0.00000000000E+00 -0.90217990951E+03  0.90217990951E+03  0.00000000000E+00 0.  1.
         23    2    1    2    0    0 -0.10760100236E+04 -0.24114440286E+03  0.66616086864E+03  0.12915505061E+04  0.91565348861E+02 0.  0.
    5000000    2    1    2    0    0  0.10760100236E+04  0.24114440286E+03  0.78892069135E+02  0.12578622507E+04  0.60003773985E+03 0.  0.
         23    2    4    4    0    0  0.99206402169E+03  0.18023764433E+03  0.24489209478E+03  0.10417863165E+04  0.93112618134E+02 0.  0.
         23    2    4    4    0    0  0.83946001874E+02  0.60906758523E+02 -0.16600002564E+03  0.21607593414E+03  0.91521780665E+02 0.  0.
          2    1    3    3  502    0 -0.42976674227E+03 -0.13604717695E+03  0.29839300131E+03  0.54059843724E+03  0.00000000000E+00 0. -1.
         -2    1    3    3    0  502 -0.64624328130E+03 -0.10509722590E+03  0.36776786732E+03  0.75095206888E+03  0.00000000000E+00 0.  1.
         15    1    5    5    0    0  0.35390927723E+03  0.40260796260E+02  0.47883934005E+02  0.35940052461E+03  0.17770000000E+01 0.  1.
        -15    1    5    5    0    0  0.63815474446E+03  0.13997684807E+03  0.19700816077E+03  0.68238579192E+03  0.17770000000E+01 0. -1.
          1    1    6    6  503    0  0.47369754732E+02 -0.10565132558E+02 -0.10355259322E+03  0.11436194844E+03  0.00000000000E+00 0.  1.
         -1    1    6    6    0  503  0.36576247142E+02  0.71471891081E+02 -0.62447432424E+02  0.10171398570E+03  0.00000000000E+00 0. -1.
<mgrwt>
<rscale>  0 0.11219328E+04</rscale>
<asrwt>0</asrwt>
<pdfrwt beam="1">  1        1 0.25342044E+00 0.11219328E+04</pdfrwt>
<pdfrwt beam="2">  1       -1 0.13879691E+00 0.11219328E+04</pdfrwt>
<totfact> 0.22003183E+00</totfact>
</mgrwt>
</event>
<event>
12    1  0.7781383E-008  0.1085214E+04  0.7818608E-02  0.9219724E-01
         -2   -1    0    0    0  501 -0.00000000000E+00  0.00000000000E+00  0.14139003422E+04  0.14139003422E+04  0.00000000000E+00 0.  1.
          2   -1    0    0  501    0  0.00000000000E+00 -0.00000000000E+00 -0.15585065151E+04  0.15585065151E+04  0.00000000000E+00 0. -1.
         23    2    1    2    0    0  0.40515393769E+03  0.94929877273E+03 -0.10490449062E+04  0.14746108848E+04  0.93081539953E+02 0.  0.
    5000000    2    1    2    0    0 -0.40515393769E+03 -0.94929877273E+03  0.90443873337E+03  0.14977959726E+04  0.60005456408E+03 0.  0.
         23    2    4    4    0    0 -0.24985949427E+03 -0.10061805583E+03  0.73448729692E+02  0.29644403895E+03  0.99652357201E+02 0.  0.
         23    2    4    4    0    0 -0.15529444342E+03 -0.84868071690E+03  0.83099000368E+03  0.12013519336E+04  0.91251075613E+02 0.  0.
          4    1    3    3  502    0  0.15812969989E+03  0.28685672954E+03 -0.29265240018E+03  0.43924618679E+03  0.00000000000E+00 0.  1.
         -4    1    3    3    0  502  0.24702423780E+03  0.66244204319E+03 -0.75639250605E+03  0.10353646980E+04  0.00000000000E+00 0. -1.
         15    1    5    5    0    0 -0.16041340058E+03 -0.60203829561E+02  0.95023554741E+02  0.19593262583E+03  0.17770000000E+01 0. -1.
        -15    1    5    5    0    0 -0.89446093696E+02 -0.40414226272E+02 -0.21574825049E+02  0.10051141312E+03  0.17770000000E+01 0.  1.
          1    1    6    6  503    0 -0.15021442533E+03 -0.63160650108E+03  0.64982628408E+03  0.91856700641E+03  0.00000000000E+00 0. -1.
         -1    1    6    6    0  503 -0.50800180891E+01 -0.21707421582E+03  0.18116371960E+03  0.28278492721E+03  0.00000000000E+00 0.  1.
<mgrwt>
<rscale>  0 0.10852145E+04</rscale>
<asrwt>0</asrwt>
<pdfrwt beam="1">  1        2 0.23977023E+00 0.10852145E+04</pdfrwt>
<pdfrwt beam="2">  1       -2 0.21752313E+00 0.10852145E+04</pdfrwt>
<totfact> 0.11864038E+00</totfact>
</mgrwt>
</event>
<event>
12    1  0.7781383E-008  0.7165381E+03  0.7818608E-02  0.9689361E-01
         -2   -1    0    0    0  501 -0.00000000000E+00  0.00000000000E+00  0.43344565160E+03  0.43344565160E+03  0.00000000000E+00 0. -1.
          2   -1    0    0  501    0  0.00000000000E+00 -0.00000000000E+00 -0.15972710350E+04  0.15972710350E+04  0.00000000000E+00 0.  1.
         23    2    1    2    0    0  0.70007329271E+03  0.62541445120E+02 -0.70214467247E+03  0.99775691448E+03  0.92182817225E+02 0.  0.
    5000000    2    1    2    0    0 -0.70007329271E+03 -0.62541445120E+02 -0.46168071092E+03  0.10329597721E+04  0.59986895606E+03 0.  0.
         23    2    4    4    0    0 -0.41259760476E+03 -0.36631585707E+02 -0.56786594714E+03  0.70970974101E+03  0.98170902158E+02 0.  0.
         23    2    4    4    0    0 -0.28747568795E+03 -0.25909859413E+02  0.10618523622E+03  0.32325003110E+03  0.99507217034E+02 0.  0.
          1    1    3    3  502    0  0.25731526561E+03  0.42783023382E+02 -0.31758449707E+03  0.41097621073E+03  0.00000000000E+00 0. -1.
         -1    1    3    3    0  502  0.44275802710E+03  0.19758421738E+02 -0.38456017540E+03  0.58678070375E+03  0.00000000000E+00 0.  1.
         15    1    5    5    0    0 -0.16032865623E+03  0.30309964340E+02 -0.24798809012E+03  0.29685892696E+03  0.17770000000E+01 0.  1.
        -15    1    5    5    0    0 -0.25226894853E+03 -0.66941550046E+02 -0.31987785702E+03  0.41285081404E+03  0.17770000000E+01 0. -1.
          1    1    6    6  503    0 -0.98506728498E+02 -0.56282342167E+02  0.48188914949E+02  0.12326170988E+03  0.00000000000E+00 0. -1.
         -1    1    6    6    0  503 -0.18896895945E+03  0.30372482754E+02  0.57996321272E+02  0.19998832122E+03  0.00000000000E+00 0.  1.
<mgrwt>
<rscale>  0 0.71653808E+03</rscale>
<asrwt>0</asrwt>
<pdfrwt beam="1">  1        2 0.24573401E+00 0.71653808E+03</pdfrwt>
<pdfrwt beam="2">  1       -2 0.66683946E-01 0.71653808E+03</pdfrwt>
<totfact> 0.23807671E+01</totfact>
</mgrwt>
</event>
<event>
12    1  0.7781383E-008  0.5318484E+03  0.7818608E-02  0.1005785E+00
          1   -1    0    0  501    0  0.00000000000E+00  0.00000000000E+00  0.10878559305E+04  0.10878559305E+04  0.00000000000E+00 0. -1.
         -1   -1    0    0    0  501 -0.00000000000E+00 -0.00000000000E+00 -0.27989558717E+03  0.27989558717E+03  0.00000000000E+00 0.  1.
         23    2    1    2    0    0  0.36609560270E+03  0.39351172866E+02  0.16673640872E+03  0.41489628118E+03  0.93612974622E+02 0.  0.
    5000000    2    1    2    0    0 -0.36609560270E+03 -0.39351172866E+02  0.64122393460E+03  0.95285523647E+03  0.60099123308E+03 0.  0.
         23    2    4    4    0    0 -0.16100868891E+03 -0.30321839555E+03  0.30562224937E+03  0.46865163723E+03  0.91456024773E+02 0.  0.
         23    2    4    4    0    0 -0.20508691380E+03  0.26386722269E+03  0.33560168523E+03  0.48420359924E+03  0.10068803784E+03 0.  0.
          4    1    3    3  502    0  0.23465082520E+03  0.27339872436E+02  0.15463970884E+03  0.28235070027E+03  0.00000000000E+00 0. -1.
         -4    1    3    3    0  502  0.13144477750E+03  0.12011300430E+02  0.12096699881E+02  0.13254558091E+03  0.00000000000E+00 0.  1.
         15    1    5    5    0    0 -0.35367921890E+02 -0.11639991167E+03  0.60694047713E+02  0.13596600491E+03  0.17770000000E+01 0. -1.
        -15    1    5    5    0    0 -0.12564076702E+03 -0.18681848389E+03  0.24492820165E+03  0.33268563232E+03  0.17770000000E+01 0.  1.
          3    1    6    6  503    0 -0.14714421563E+03  0.24835335467E+03  0.26909832551E+03  0.39464505288E+03  0.00000000000E+00 0. -1.
         -3    1    6    6    0  503 -0.57942698162E+02  0.15513868017E+02  0.66503359724E+02  0.89558546358E+02  0.00000000000E+00 0.  1.
<mgrwt>
<rscale>  0 0.53184836E+03</rscale>
<asrwt>0</asrwt>
<pdfrwt beam="1">  1        1 0.16736245E+00 0.53184836E+03</pdfrwt>
<pdfrwt beam="2">  1       -1 0.43060860E-01 0.53184836E+03</pdfrwt>
<totfact> 0.72059279E+01</totfact>
</mgrwt>
</event>
<event>
12    1  0.7781383E-008  0.4605261E+03  0.7818608E-02  0.1024629E+00
         -2   -1    0    0    0  501 -0.00000000000E+00  0.00000000000E+00  0.22120464688E+03  0.22120464688E+03  0.00000000000E+00 0.  1.
          2   -1    0    0  501    0  0.00000000000E+00 -0.00000000000E+00 -0.10510811730E+04  0.10510811730E+04  0.00000000000E+00 0. -1.
         23    2    1    2    0    0 -0.14664847800E+03  0.23716175159E+03 -0.34142100159E+03  0.44984899104E+03  0.89690255309E+02 0.  0.
    5000000    2    1    2    0    0  0.14664847800E+03 -0.23716175159E+03 -0.48845552454E+03  0.82243682885E+03  0.60005171901E+03 0.  0.
         23    2    4    4    0    0 -0.64153146333E+02  0.15908076735E+03 -0.20907552322E+03  0.28641510718E+03  0.94333040262E+02 0.  0.
         23    2    4    4    0    0  0.21080162434E+03 -0.39624251894E+03 -0.27938000131E+03  0.53602172167E+03  0.88434395649E+02 0.  0.
          1    1    3    3  502    0 -0.12000207603E+03  0.23395280214E+03 -0.32626440479E+03  0.41902610147E+03  0.00000000000E+00 0. -1.
         -1    1    3    3    0  502 -0.26646401977E+02  0.32089494464E+01 -0.15156596794E+02  0.30822889566E+02  0.00000000000E+00 0.  1.
         15    1    5    5    0    0 -0.20664113305E+01  0.60568231843E+02 -0.19067534110E+02  0.63557134536E+02  0.17770000000E+01 0.  1.
        -15    1    5    5    0    0 -0.62086735002E+02  0.98512535505E+02 -0.19000798911E+03  0.22285797264E+03  0.17770000000E+01 0. -1.
          4    1    6    6  503    0  0.82491136793E+02 -0.22895471260E+03 -0.18143793420E+03  0.30355357359E+03  0.00000000000E+00 0. -1.
         -4    1    6    6    0  503  0.12831048754E+03 -0.16728780633E+03 -0.97942067108E+02  0.23246814808E+03  0.00000000000E+00 0.  1.
<mgrwt>
<rscale>  0 0.46052611E+03</rscale>
<asrwt>0</asrwt>
<pdfrwt beam="1">  1        2 0.16170479E+00 0.46052611E+03</pdfrwt>
<pdfrwt beam="2">  1       -2 0.34031484E-01 0.46052611E+03</pdfrwt>
<totfact> 0.19520939E+02</totfact>
</mgrwt>
</event>
<event>
12    1  0.7781383E-008  0.6653636E+03  0.7818608E-02  0.9778370E-01
          2   -1    0    0  501    0  0.00000000000E+00  0.00000000000E+00  0.10844295871E+04  0.10844295871E+04  0.00000000000E+00 0. -1.
         -2   -1    0    0    0  501 -0.00000000000E+00 -0.00000000000E+00 -0.47316842214E+03  0.47316842214E+03  0.00000000000E+00 0.  1.
         23    2    1    2    0    0 -0.49338506439E+03 -0.30856779367E+03  0.17055483435E+03  0.61312541195E+03  0.90503669573E+02 0.  0.
    5000000    2    1    2    0    0  0.49338506439E+03  0.30856779367E+03  0.44070633062E+03  0.94447259730E+03  0.59930252141E+03 0.  0.
         23    2    4    4    0    0  0.19940696315E+03 -0.10176727256E+03 -0.34620096835E+02  0.24450983448E+03  0.92015179913E+02 0.  0.
         23    2    4    4    0    0  0.29397810123E+03  0.41033506623E+03  0.47532642745E+03  0.69996276282E+03  0.95993052453E+02 0.  0.
          2    1    3    3  502    0 -0.20151272496E+03 -0.17225047790E+03  0.10014308918E+03  0.28338356298E+03  0.00000000000E+00 0. -1.
         -2    1    3    3    0  502 -0.29187233943E+03 -0.13631731576E+03  0.70411745166E+02  0.32974184896E+03  0.00000000000E+00 0.  1.
         15    1    5    5    0    0  0.73756099375E+01  0.66149642454E+01 -0.21343270973E+02  0.23597676130E+02  0.17770000000E+01 0. -1.
        -15    1    5    5    0    0  0.19203135322E+03 -0.10838223681E+03 -0.13276825862E+02  0.22091215835E+03  0.17770000000E+01 0.  1.
          4    1    6    6  503    0  0.16931150731E+03  0.15856389547E+03  0.23575684176E+03  0.33074186897E+03  0.00000000000E+00 0. -1.
         -4    1    6    6    0  503  0.12466659393E+03  0.25177117076E+03  0.23956958569E+03  0.36922089385E+03  0.00000000000E+00 0.  1.
<mgrwt>
<rscale>  0 0.66536358E+03</rscale>
<asrwt>0</asrwt>
<pdfrwt beam="1">  1        2 0.16683532E+00 0.66536358E+03</pdfrwt>
<pdfrwt beam="2">  1       -2 0.72795142E-01 0.66536358E+03</pdfrwt>
<totfact> 0.38967928E+01</totfact>
</mgrwt>
</event>
<event>
12    1  0.7781383E-008  0.4890720E+03  0.7818608E-02  0.1016671E+00
         -2   -1    0    0    0  501 -0.00000000000E+00  0.00000000000E+00  0.72195094928E+03  0.72195094928E+03  0.00000000000E+00 0.  1.
          2   -1    0    0  501    0  0.00000000000E+00 -0.00000000000E+00 -0.55339021388E+03  0.55339021388E+03  0.00000000000E+00 0. -1.
         23    2    1    2    0    0  0.26564463301E+03 -0.34907450286E+03  0.27334225273E+03  0.52470620964E+03  0.90446336067E+02 0.  0.
    5000000    2    1    2    0    0 -0.26564463301E+03  0.34907450286E+03 -0.10478151733E+03  0.75063495353E+03  0.60004465458E+03 0.  0.
         23    2    4    4    0    0 -0.11059269205E+03 -0.26371773302E+02 -0.26600333706E+03  0.30327877323E+03  0.91071537808E+02 0.  0.
         23    2    4    4    0    0 -0.15505194096E+03  0.37544627617E+03  0.16122181973E+03  0.44735618030E+03  0.95572308820E+02 0.  0.
          2    1    3    3  502    0  0.18232199988E+03 -0.18919732058E+03  0.12372003565E+03  0.29041967043E+03  0.00000000000E+00 0. -1.
         -2    1    3    3    0  502  0.83322633131E+02 -0.15987718228E+03  0.14962221708E+03  0.23428653920E+03  0.00000000000E+00 0.  1.
         15    1    5    5    0    0 -0.88957114900E+02 -0.79133316648E+01 -0.96896606067E+02  0.13178808408E+03  0.17770000000E+01 0. -1.
        -15    1    5    5    0    0 -0.21635577151E+02 -0.18458441637E+02 -0.16910673100E+03  0.17149068914E+03  0.17770000000E+01 0.  1.
          1    1    6    6  503    0 -0.50633113056E+01  0.12683076146E+03  0.47787494206E+02  0.13562936178E+03  0.00000000000E+00 0.  1.
         -1    1    6    6    0  503 -0.14998862966E+03  0.24861551470E+03  0.11343432553E+03  0.31172681852E+03  0.00000000000E+00 0. -1.
<mgrwt>
<rscale>  0 0.48907204E+03</rscale>
<asrwt>0</asrwt>
<pdfrwt beam="1">  1        2 0.85136956E-01 0.48907204E+03</pdfrwt>
<pdfrwt beam="2">  1       -2 0.11106938E+00 0.48907204E+03</pdfrwt>
<totfact> 0.36377938E+01</totfact>
</mgrwt>
</event>
<event>
12    1  0.7781383E-008  0.9696557E+03  0.7818608E-02  0.9342467E-01
          2   -1    0    0  501    0  0.00000000000E+00  0.00000000000E+00  0.67223257484E+03  0.67223257484E+03  0.00000000000E+00 0.  1.
         -2   -1    0    0    0  501 -0.00000000000E+00 -0.00000000000E+00 -0.18338384045E+04  0.18338384045E+04  0.00000000000E+00 0. -1.
         23    2    1    2    0    0 -0.92401669424E+03  0.80875057459E+02 -0.40331173165E+02  0.93207009117E+03  0.82343337205E+02 0.  0.
    5000000    2    1    2    0    0  0.92401669424E+03 -0.80875057459E+02 -0.11212746565E+04  0.15740008882E+04  0.59989525298E+03 0.  0.
         23    2    4    4    0    0  0.81379469061E+03  0.63442204685E+02 -0.10944376231E+04  0.13685297886E+04  0.93772914723E+02 0.  0.
         23    2    4    4    0    0  0.11022200363E+03 -0.14431726214E+03 -0.26837033426E+02  0.20547109963E+03  0.92313510313E+02 0.  0.
          4    1    3    3  502    0 -0.44147970595E+03  0.79636650909E+02 -0.14430995147E+02  0.44883691978E+03  0.00000000000E+00 0. -1.
         -4    1    3    3    0  502 -0.48253698829E+03  0.12384065493E+01 -0.25900178018E+02  0.48323317140E+03  0.00000000000E+00 0.  1.
         15    1    5    5    0    0  0.71163839093E+03  0.76465937689E+02 -0.91562348798E+03  0.11621728652E+04  0.17770000000E+01 0. -1.
        -15    1    5    5    0    0  0.10215629968E+03 -0.13023733004E+02 -0.17881413510E+03  0.20635692338E+03  0.17770000000E+01 0.  1.
          3    1    6    6  503    0  0.26024282305E+01  0.48449468124E+01  0.15741192336E+02  0.16674269953E+02  0.00000000000E+00 0. -1.
         -3    1    6    6    0  503  0.10761957539E+03 -0.14916220896E+03 -0.42578225762E+02  0.18879682968E+03  0.00000000000E+00 0.  1.
<mgrwt>
<rscale>  0 0.96965575E+03</rscale>
<asrwt>0</asrwt>
<pdfrwt beam="1">  1        2 0.10342039E+00 0.96965575E+03</pdfrwt>
<pdfrwt beam="2">  1       -2 0.28212899E+00 0.96965575E+03</pdfrwt>
<totfact> 0.17737156E+00</totfact>
</mgrwt>
</event>
<event>
12    1  0.7781383E-008  0.1296432E+04  0.7818608E-02  0.9032399E-01
         -2   -1    0    0    0  501 -0.00000000000E+00  0.00000000000E+00  0.15493758537E+04  0.15493758537E+04  0.00000000000E+00 0.  1.
          2   -1    0    0  501    0  0.00000000000E+00 -0.00000000000E+00 -0.12283544936E+04  0.12283544936E+04  0.00000000000E+00 0. -1.
         23    2    1    2    0    0 -0.10324460268E+03  0.12248164004E+04 -0.31074711652E+03  0.12710807329E+04  0.90817379820E+02 0.  0.
    5000000    2    1    2    0    0  0.10324460268E+03 -0.12248164004E+04  0.63176847667E+03  0.15066496145E+04  0.60002249127E+03 0.  0.
         23    2    4    4    0    0  0.33696322529E+03 -0.61557999969E+03  0.29448710688E+03  0.76653878392E+03  0.91521035351E+02 0.  0.
         23    2    4    4    0    0 -0.23371862261E+03 -0.60923640069E+03  0.33728136979E+03  0.74011083055E+03  0.90619714228E+02 0.  0.
          1    1    3    3  502    0 -0.12007567673E+02  0.67812021000E+03 -0.17518894969E+03  0.70048723685E+03  0.00000000000E+00 0. -1.
         -1    1    3    3    0  502 -0.91237035008E+02  0.54669619038E+03 -0.13555816683E+03  0.57059349604E+03  0.00000000000E+00 0.  1.
         15    1    5    5    0    0  0.30605840507E+02 -0.58156829274E+02  0.31778147350E+00  0.65743387336E+02  0.17770000000E+01 0. -1.
        -15    1    5    5    0    0  0.30635738478E+03 -0.55742317042E+03  0.29416932541E+03  0.70079539658E+03  0.17770000000E+01 0.  1.
          1    1    6    6  503    0 -0.22408941655E+03 -0.48841016974E+03  0.28249799670E+03  0.60709610331E+03  0.00000000000E+00 0. -1.
         -1    1    6    6    0  503 -0.96292060589E+01 -0.12082623095E+03  0.54783373093E+02  0.13301472724E+03  0.00000000000E+00 0.  1.
<mgrwt>
<rscale>  0 0.12964325E+04</rscale>
<asrwt>0</asrwt>
<pdfrwt beam="1">  1        2 0.18897762E+00 0.12964325E+04</pdfrwt>
<pdfrwt beam="2">  1       -2 0.23836552E+00 0.12964325E+04</pdfrwt>
<totfact> 0.13289050E+00</totfact>
</mgrwt>
</event>
<event>
12    1  0.7781383E-008  0.6866349E+03  0.7818608E-02  0.9740365E-01
         -4   -1    0    0    0  501 -0.00000000000E+00  0.00000000000E+00  0.67665411686E+03  0.67665411686E+03  0.00000000000E+00 0.  1.
          4   -1    0    0  501    0  0.00000000000E+00 -0.00000000000E+00 -0.14115405607E+04  0.14115405607E+04  0.00000000000E+00 0. -1.
         23    2    1    2    0    0 -0.13213165617E+03 -0.65924187136E+03  0.27728766300E+03  0.73298426475E+03  0.91207811138E+02 0.  0.
    5000000    2    1    2    0    0  0.13213165617E+03  0.65924187136E+03 -0.10121741068E+04  0.13552104128E+04  0.60003351647E+03 0.  0.
         23    2    4    4    0    0  0.15490856086E+03  0.62991910847E+03 -0.47248457586E+03  0.80711327400E+03  0.85996611592E+02 0.  0.
         23    2    4    4    0    0 -0.22776904685E+02  0.29322762893E+02 -0.53968953097E+03  0.54809713879E+03  0.88130992862E+02 0.  0.
          4    1    3    3  502    0 -0.26886685846E+01 -0.40281529685E+02  0.42059195347E+02  0.58299283750E+02  0.00000000000E+00 0. -1.
         -4    1    3    3    0  502 -0.12944298759E+03 -0.61896034167E+03  0.23522846765E+03  0.67468498100E+03  0.00000000000E+00 0.  1.
         15    1    5    5    0    0  0.13742472592E+03  0.43890864165E+03 -0.29972699576E+03  0.54896792322E+03  0.17770000000E+01 0.  1.
        -15    1    5    5    0    0  0.17483834932E+02  0.19101046681E+03 -0.17275758011E+03  0.25814535078E+03  0.17770000000E+01 0. -1.
          3    1    6    6  503    0 -0.28458504612E+02  0.12558198546E+02 -0.55804688046E+02  0.63888637827E+02  0.00000000000E+00 0. -1.
         -3    1    6    6    0  503  0.56815999274E+01  0.16764564347E+02 -0.48388484292E+03  0.48420850097E+03  0.00000000000E+00 0.  1.
<mgrwt>
<rscale>  0 0.68663489E+03</rscale>
<asrwt>0</asrwt>
<pdfrwt beam="1">  1        4 0.21716008E+00 0.68663489E+03</pdfrwt>
<pdfrwt beam="2">  1       -4 0.10410063E+00 0.68663489E+03</pdfrwt>
<totfact> 0.15029089E-01</totfact>
</mgrwt>
</event>
<event>
12    1  0.7781383E-008  0.4653892E+03  0.7818608E-02  0.1023230E+00
          1   -1    0    0  501    0  0.00000000000E+00  0.00000000000E+00  0.92347371047E+03  0.92347371047E+03  0.00000000000E+00 0. -1.
         -1   -1    0    0    0  501 -0.00000000000E+00 -0.00000000000E+00 -0.64961475936E+03  0.64961475936E+03  0.00000000000E+00 0.  1.
         23    2    1    2    0    0  0.29700092714E+03  0.33422230880E+02  0.70843760264E+03  0.77416975316E+03  0.90157493495E+02 0.  0.
    5000000    2    1    2    0    0 -0.29700092714E+03 -0.33422230880E+02 -0.43457865153E+03  0.79891871668E+03  0.60007159177E+03 0.  0.
         23    2    4    4    0    0 -0.96930490104E+02  0.25583461947E+03 -0.28482590812E+03  0.40525277188E+03  0.90868799634E+02 0.  0.
         23    2    4    4    0    0 -0.20007043704E+03 -0.28925685035E+03 -0.14975274341E+03  0.39366594479E+03  0.94070647291E+02 0.  0.
          3    1    3    3  502    0  0.15507736126E+03  0.45605485663E+02  0.46281370228E+03  0.49022991679E+03  0.00000000000E+00 0. -1.
         -3    1    3    3    0  502  0.14192356588E+03 -0.12183254783E+02  0.24562390036E+03  0.28393983636E+03  0.00000000000E+00 0.  1.
         15    1    5    5    0    0 -0.41824655879E+02  0.14882676657E+03 -0.21894467878E+03  0.26802730902E+03  0.17770000000E+01 0. -1.
        -15    1    5    5    0    0 -0.55105834224E+02  0.10700785290E+03 -0.65881229345E+02  0.13722546286E+03  0.17770000000E+01 0.  1.
          3    1    6    6  503    0 -0.40178797351E+02 -0.59139019025E+02 -0.75074270090E+02  0.10367210501E+03  0.00000000000E+00 0. -1.
         -3    1    6    6    0  503 -0.15989163968E+03 -0.23011783133E+03 -0.74678473319E+02  0.28999383978E+03  0.00000000000E+00 0.  1.
<mgrwt>
<rscale>  0 0.46538923E+03</rscale>
<asrwt>0</asrwt>
<pdfrwt beam="1">  1        1 0.14207288E+00 0.46538923E+03</pdfrwt>
<pdfrwt beam="2">  1       -1 0.99940733E-01 0.46538923E+03</pdfrwt>
<totfact> 0.17879102E+01</totfact>
</mgrwt>
</event>
<event>
12    1  0.7781383E-008  0.5632258E+03  0.7818608E-02  0.9984782E-01
         -2   -1    0    0    0  501 -0.00000000000E+00  0.00000000000E+00  0.17554503529E+03  0.17554503529E+03  0.00000000000E+00 0.  1.
          2   -1    0    0  501    0  0.00000000000E+00 -0.00000000000E+00 -0.26496992653E+04  0.26496992653E+04  0.00000000000E+00 0. -1.
         23    2    1    2    0    0 -0.22165488320E+03 -0.34323246013E+03 -0.25415868529E+03  0.48959888981E+03  0.90393731317E+02 0.  0.
    5000000    2    1    2    0    0  0.22165488320E+03  0.34323246013E+03 -0.22199955447E+04  0.23356454107E+04  0.59993321073E+03 0.  0.
         23    2    4    4    0    0 -0.15830740213E+03  0.25750367053E+03 -0.11822680302E+04  0.12236484928E+04  0.90490689252E+02 0.  0.
         23    2    4    4    0    0  0.37996228533E+03  0.85728789598E+02 -0.10377275145E+04  0.11119969179E+04  0.89095384263E+02 0.  0.
          3    1    3    3  502    0 -0.15629767463E+03 -0.18710522715E+03 -0.18802988344E+03  0.30788401418E+03  0.00000000000E+00 0. -1.
         -3    1    3    3    0  502 -0.65357208571E+02 -0.15612723298E+03 -0.66128801846E+02  0.18171487563E+03  0.00000000000E+00 0.  1.
         15    1    5    5    0    0 -0.15848435045E+03  0.26370804650E+03 -0.11700902972E+04  0.12098651514E+04  0.17770000000E+01 0. -1.
        -15    1    5    5    0    0  0.17694832748E+00 -0.62043759650E+01 -0.12177732930E+02  0.13783341399E+02  0.17770000000E+01 0.  1.
          4    1    6    6  503    0  0.29313799526E+03  0.10307113775E+03 -0.78917105032E+03  0.84814178671E+03  0.00000000000E+00 0. -1.
         -4    1    6    6    0  503  0.86824290074E+02 -0.17342348147E+02 -0.24855646419E+03  0.26385513123E+03  0.00000000000E+00 0.  1.
<mgrwt>
<rscale>  0 0.56322579E+03</rscale>
<asrwt>0</asrwt>
<pdfrwt beam="1">  1        2 0.40764602E+00 0.56322579E+03</pdfrwt>
<pdfrwt beam="2">  1       -2 0.27006930E-01 0.56322579E+03</pdfrwt>
<totfact> 0.38220237E+01</totfact>
</mgrwt>
</event>
<event>
12    1  0.7781383E-008  0.1439098E+04  0.7818608E-02  0.8925994E-01
          2   -1    0    0  501    0  0.00000000000E+00  0.00000000000E+00  0.14810928973E+04  0.14810928973E+04  0.00000000000E+00 0.  1.
         -2   -1    0    0    0  501 -0.00000000000E+00 -0.00000000000E+00 -0.18922259840E+04  0.18922259840E+04  0.00000000000E+00 0. -1.
         23    2    1    2    0    0  0.12542230503E+04  0.63520347429E+03 -0.10079794096E+04  0.17323019884E+04  0.91042711212E+02 0.  0.
    5000000    2    1    2    0    0 -0.12542230503E+04 -0.63520347429E+03  0.59684632286E+03  0.16410168929E+04  0.60012664982E+03 0.  0.
         23    2    4    4    0    0 -0.11922634155E+04 -0.47440957413E+03  0.64682729735E+03  0.14399131807E+04  0.91694707827E+02 0.  0.
         23    2    4    4    0    0 -0.61959634803E+02 -0.16079390017E+03 -0.49980974488E+02  0.20110371213E+03  0.90834632961E+02 0.  0.
          1    1    3    3  502    0  0.27717981516E+03  0.14144941551E+03 -0.17777776131E+03  0.35838738747E+03  0.00000000000E+00 0. -1.
         -1    1    3    3    0  502  0.97704323516E+03  0.49375405878E+03 -0.83020164829E+03  0.13739146010E+04  0.00000000000E+00 0.  1.
         15    1    5    5    0    0 -0.13126764854E+03 -0.29547463066E+02  0.88925190736E+02  0.16129195704E+03  0.17770000000E+01 0. -1.
        -15    1    5    5    0    0 -0.10609957670E+04 -0.44486211106E+03  0.55790210661E+03  0.12786212237E+04  0.17770000000E+01 0.  1.
          3    1    6    6  503    0 -0.38658916200E+01 -0.11002260478E+03 -0.17282222910E+01  0.11010406638E+03  0.00000000000E+00 0. -1.
         -3    1    6    6    0  503 -0.58093743183E+02 -0.50771295388E+02 -0.48252752197E+02  0.90999645752E+02  0.00000000000E+00 0.  1.
<mgrwt>
<rscale>  0 0.14390983E+04</rscale>
<asrwt>0</asrwt>
<pdfrwt beam="1">  1        2 0.22786045E+00 0.14390983E+04</pdfrwt>
<pdfrwt beam="2">  1       -2 0.29111169E+00 0.14390983E+04</pdfrwt>
<totfact> 0.44387912E-01</totfact>
</mgrwt>
</event>
<event>
12    1  0.7781383E-008  0.7303688E+03  0.7818608E-02  0.9666662E-01
          1   -1    0    0  501    0  0.00000000000E+00  0.00000000000E+00  0.83951061737E+03  0.83951061737E+03  0.00000000000E+00 0. -1.
         -1   -1    0    0    0  501 -0.00000000000E+00 -0.00000000000E+00 -0.12945140615E+04  0.12945140615E+04  0.00000000000E+00 0.  1.
         23    2    1    2    0    0  0.93092668982E+02 -0.70716508569E+03 -0.85724569547E+03  0.11188655595E+04  0.90781355022E+02 0.  0.
    5000000    2    1    2    0    0 -0.93092668982E+02  0.70716508569E+03  0.40224225136E+03  0.10151591193E+04  0.60000042115E+03 0.  0.
         23    2    4    4    0    0 -0.20390919444E+02  0.13682078342E+03  0.40054108884E+03  0.43316098402E+03  0.89775040319E+02 0.  0.
         23    2    4    4    0    0 -0.72701749538E+02  0.57034430227E+03  0.17011625224E+01  0.58199813532E+03  0.90226204868E+02 0.  0.
          1    1    3    3  502    0  0.18023705292E+02 -0.33702742583E+03 -0.34717535921E+03  0.48419321531E+03  0.00000000000E+00 0. -1.
         -1    1    3    3    0  502  0.75068963689E+02 -0.37013765986E+03 -0.51007033625E+03  0.63467234419E+03  0.00000000000E+00 0.  1.
         15    1    5    5    0    0 -0.33544875648E+02  0.78311624889E+01  0.10201671533E+03  0.10769008183E+03  0.17770000000E+01 0. -1.
        -15    1    5    5    0    0  0.13153956203E+02  0.12898962093E+03  0.29852437350E+03  0.32547090219E+03  0.17770000000E+01 0.  1.
          3    1    6    6  503    0  0.87806840406E+01  0.47985993740E+01 -0.34651123870E+01  0.10589332936E+02  0.00000000000E+00 0. -1.
         -3    1    6    6    0  503 -0.81482433578E+02  0.56554570290E+03  0.51662749093E+01  0.57140880239E+03  0.00000000000E+00 0.  1.
<mgrwt>
<rscale>  0 0.73036884E+03</rscale>
<asrwt>0</asrwt>
<pdfrwt beam="1">  1        1 0.12915548E+00 0.73036884E+03</pdfrwt>
<pdfrwt beam="2">  1       -1 0.19915601E+00 0.73036884E+03</pdfrwt>
<totfact> 0.32522720E+00</totfact>
</mgrwt>
</event>
<event>
12    1  0.7781383E-008  0.1114974E+04  0.7818608E-02  0.9190719E-01
         -1   -1    0    0    0  501 -0.00000000000E+00  0.00000000000E+00  0.62630665344E+03  0.62630665344E+03  0.00000000000E+00 0.  1.
          1   -1    0    0  501    0  0.00000000000E+00 -0.00000000000E+00 -0.22581412067E+04  0.22581412067E+04  0.00000000000E+00 0. -1.
         23    2    1    2    0    0 -0.43902105089E+03 -0.95270746459E+03 -0.31869266355E+03  0.10998550515E+04  0.87892685744E+02 0.  0.
    5000000    2    1    2    0    0  0.43902105089E+03  0.95270746459E+03 -0.13131418897E+04  0.17845928087E+04  0.60003239424E+03 0.  0.
         23    2    4    4    0    0  0.52820164162E+03  0.54176135005E+03 -0.98107828463E+03  0.12428220935E+04  0.97927630451E+02 0.  0.
         23    2    4    4    0    0 -0.89180590733E+02  0.41094611454E+03 -0.33206360511E+03  0.54177071525E+03  0.80121053728E+02 0.  0.
          1    1    3    3  502    0 -0.23536172094E+03 -0.41749510033E+03 -0.12451577265E+03  0.49517822662E+03  0.00000000000E+00 0. -1.
         -1    1    3    3    0  502 -0.20365932995E+03 -0.53521236426E+03 -0.19417689090E+03  0.60467682484E+03  0.00000000000E+00 0.  1.
         15    1    5    5    0    0  0.43636701775E+03  0.43252517630E+03 -0.85171297813E+03  0.10501963422E+04  0.17770000000E+01 0. -1.
        -15    1    5    5    0    0  0.91834623874E+02  0.10923617375E+03 -0.12936530650E+03  0.19262575127E+03  0.17770000000E+01 0.  1.
          2    1    6    6  503    0 -0.37503278418E+02  0.13277546082E+03 -0.15722357558E+03  0.20917712974E+03  0.00000000000E+00 0. -1.
         -2    1    6    6    0  503 -0.51677312315E+02  0.27817065373E+03 -0.17484002953E+03  0.33259358552E+03  0.00000000000E+00 0.  1.
<mgrwt>
<rscale>  0 0.11149742E+04</rscale>
<asrwt>0</asrwt>
<pdfrwt beam="1">  1        1 0.34740634E+00 0.11149742E+04</pdfrwt>
<pdfrwt beam="2">  1       -1 0.96354868E-01 0.11149742E+04</pdfrwt>
<totfact> 0.20596392E+00</totfact>
</mgrwt>
</event>
<event>
12    1  0.7781383E-008  0.7899779E+03  0.7818608E-02  0.9574638E-01
          2   -1    0    0  501    0  0.00000000000E+00  0.00000000000E+00  0.16927398501E+04  0.16927398501E+04  0.00000000000E+00 0. -1.
         -2   -1    0    0    0  501 -0.00000000000E+00 -0.00000000000E+00 -0.63405487356E+03  0.63405487356E+03  0.00000000000E+00 0.  1.
         23    2    1    2    0    0 -0.20529597201E+03  0.69975910700E+03 -0.19144204892E+03  0.76008080463E+03  0.96247220876E+02 0.  0.
    5000000    2    1    2    0    0  0.20529597201E+03 -0.69975910700E+03  0.12501270255E+04  0.15667139191E+04  0.59997139965E+03 0.  0.
         23    2    4    4    0    0 -0.11695885810E+03 -0.87615608879E+02  0.55885893214E+03  0.58413762827E+03  0.86819314212E+02 0.  0.
         23    2    4    4    0    0  0.32225483011E+03 -0.61214349812E+03  0.69126809336E+03  0.98257629081E+03  0.95061835364E+02 0.  0.
          3    1    3    3  502    0 -0.92208206421E+01  0.15705914328E+03 -0.59107355787E+02  0.16806628909E+03  0.00000000000E+00 0. -1.
         -3    1    3    3    0  502 -0.19607515137E+03  0.54269996372E+03 -0.13233469313E+03  0.59201451554E+03  0.00000000000E+00 0.  1.
         15    1    5    5    0    0 -0.10535832713E+03 -0.84975480417E+02  0.35514516017E+03  0.38006900937E+03  0.17770000000E+01 0.  1.
        -15    1    5    5    0    0 -0.11600530969E+02 -0.26401284615E+01  0.20371377198E+03  0.20406861890E+03  0.17770000000E+01 0. -1.
          4    1    6    6  503    0  0.94439941856E+02 -0.27945594299E+03  0.29993779890E+03  0.42068659344E+03  0.00000000000E+00 0. -1.
         -4    1    6    6    0  503  0.22781488826E+03 -0.33268755513E+03  0.39133029446E+03  0.56188969737E+03  0.00000000000E+00 0.  1.
<mgrwt>
<rscale>  0 0.78997790E+03</rscale>
<asrwt>0</asrwt>
<pdfrwt beam="1">  1        2 0.26042151E+00 0.78997790E+03</pdfrwt>
<pdfrwt beam="2">  1       -2 0.97546904E-01 0.78997790E+03</pdfrwt>
<totfact> 0.88681071E+00</totfact>
</mgrwt>
</event>
<event>
12    1  0.7781383E-008  0.8855572E+03  0.7818608E-02  0.9443818E-01
         -2   -1    0    0    0  501 -0.00000000000E+00  0.00000000000E+00  0.62220933251E+03  0.62220933251E+03  0.00000000000E+00 0. -1.
          2   -1    0    0  501    0  0.00000000000E+00 -0.00000000000E+00 -0.20632352594E+04  0.20632352594E+04  0.00000000000E+00 0.  1.
         23    2    1    2    0    0  0.79604831439E+03 -0.34191620105E+00  0.14317416944E+03  0.81371042085E+03  0.89066101612E+02 0.  0.
    5000000    2    1    2    0    0 -0.79604831439E+03  0.34191620105E+00 -0.15842000963E+04  0.18717341711E+04  0.60000485514E+03 0.  0.
         23    2    4    4    0    0 -0.76538600422E+03 -0.17863779935E+03 -0.12106734074E+04  0.14462940138E+04  0.91154134667E+02 0.  0.
         23    2    4    4    0    0 -0.30662310174E+02  0.17897971555E+03 -0.37352668897E+03  0.42544015727E+03  0.92212928575E+02 0.  0.
          2    1    3    3  502    0  0.28732078931E+03 -0.21943307483E+02  0.89326122126E+02  0.30168510206E+03  0.00000000000E+00 0.  1.
         -2    1    3    3    0  502  0.50872752508E+03  0.21601391282E+02  0.53848047310E+02  0.51202531879E+03  0.00000000000E+00 0. -1.
         15    1    5    5    0    0 -0.31316974008E+03 -0.45545620562E+02 -0.42205359954E+03  0.52752449068E+03  0.17770000000E+01 0. -1.
        -15    1    5    5    0    0 -0.45221626414E+03 -0.13309217879E+03 -0.78861980783E+03  0.91876952314E+03  0.17770000000E+01 0.  1.
          3    1    6    6  503    0 -0.38889356164E+02  0.11501668439E+03 -0.31782010246E+03  0.34022174715E+03  0.00000000000E+00 0. -1.
         -3    1    6    6    0  503  0.82270459906E+01  0.63963031161E+02 -0.55706586519E+02  0.85218410116E+02  0.00000000000E+00 0.  1.
<mgrwt>
<rscale>  0 0.88555716E+03</rscale>
<asrwt>0</asrwt>
<pdfrwt beam="1">  1        2 0.31742081E+00 0.88555716E+03</pdfrwt>
<pdfrwt beam="2">  1       -2 0.95724513E-01 0.88555716E+03</pdfrwt>
<totfact> 0.57339486E+00</totfact>
</mgrwt>
</event>
<event>
12    1  0.7781383E-008  0.1239882E+04  0.7818608E-02  0.9078647E-01
          1   -1    0    0  501    0  0.00000000000E+00  0.00000000000E+00  0.18397893630E+04  0.18397893630E+04  0.00000000000E+00 0. -1.
         -1   -1    0    0    0  501 -0.00000000000E+00 -0.00000000000E+00 -0.19995738064E+04  0.19995738064E+04  0.00000000000E+00 0.  1.
         23    2    1    2    0    0  0.93288405487E+03 -0.70382899209E+03  0.13831483469E+04  0.18130149810E+04  0.90972864931E+02 0.  0.
    5000000    2    1    2    0    0 -0.93288405487E+03  0.70382899209E+03 -0.15429327902E+04  0.20263481884E+04  0.59983120591E+03 0.  0.
         23    2    4    4    0    0 -0.51550228100E+03  0.70958946704E+03 -0.11097178133E+04  0.14173050082E+04  0.89554718123E+02 0.  0.
         23    2    4    4    0    0 -0.41738177387E+03 -0.57604749577E+01 -0.43321497689E+03  0.60904318022E+03  0.94961312886E+02 0.  0.
          1    1    3    3  502    0  0.10351010957E+03 -0.51575400995E+02  0.16411330162E+03  0.20076737917E+03  0.00000000000E+00 0. -1.
         -1    1    3    3    0  502  0.82937394529E+03 -0.65225359109E+03  0.12190350452E+04  0.16122476019E+04  0.00000000000E+00 0.  1.
         15    1    5    5    0    0 -0.34651481160E+02  0.95979854569E+02 -0.12905027553E+03  0.16452959908E+03  0.17770000000E+01 0.  1.
        -15    1    5    5    0    0 -0.48085079984E+03  0.61360961248E+03 -0.98066753779E+03  0.12527754091E+04  0.17770000000E+01 0. -1.
          3    1    6    6  503    0 -0.30468130613E+03  0.36776413765E+02 -0.32681736806E+03  0.44832219996E+03  0.00000000000E+00 0. -1.
         -3    1    6    6    0  503 -0.11270046774E+03 -0.42536888723E+02 -0.10639760882E+03  0.16072098026E+03  0.00000000000E+00 0.  1.
<mgrwt>
<rscale>  0 0.12398818E+04</rscale>
<asrwt>0</asrwt>
<pdfrwt beam="1">  1        1 0.28304452E+00 0.12398818E+04</pdfrwt>
<pdfrwt beam="2">  1       -1 0.30762674E+00 0.12398818E+04</pdfrwt>
<totfact> 0.11046013E-01</totfact>
</mgrwt>
</event>
<event>
12    1  0.7781383E-008  0.5204523E+03  0.7818608E-02  0.1008574E+00
          2   -1    0    0  501    0  0.00000000000E+00  0.00000000000E+00  0.47756590664E+03  0.47756590664E+03  0.00000000000E+00 0. -1.
         -2   -1    0    0    0  501 -0.00000000000E+00 -0.00000000000E+00 -0.79048423585E+03  0.79048423585E+03  0.00000000000E+00 0.  1.
         23    2    1    2    0    0  0.36806842882E+03 -0.27376772008E+03 -0.57401971703E+02  0.47075721505E+03  0.88849515009E+02 0.  0.
    5000000    2    1    2    0    0 -0.36806842882E+03  0.27376772008E+03 -0.25551635750E+03  0.79729292744E+03  0.59997022454E+03 0.  0.
         23    2    4    4    0    0 -0.15082919891E+03 -0.61904072564E+02 -0.33197074400E+03  0.38044176840E+03  0.89161666816E+02 0.  0.
         23    2    4    4    0    0 -0.21723922991E+03  0.33567179265E+03  0.76454386499E+02  0.41685115903E+03  0.89728368889E+02 0.  0.
          4    1    3    3  502    0  0.25420919502E+03 -0.15509344440E+03 -0.69709478383E+02  0.30583607162E+03  0.00000000000E+00 0. -1.
         -4    1    3    3    0  502  0.11385923380E+03 -0.11867427569E+03  0.12307506680E+02  0.16492114344E+03  0.00000000000E+00 0.  1.
         15    1    5    5    0    0 -0.51836934572E+02 -0.57534667174E+02 -0.88725358577E+02  0.11778222572E+03  0.17770000000E+01 0.  1.
        -15    1    5    5    0    0 -0.98992264339E+02 -0.43694053909E+01 -0.24324538542E+03  0.26265954268E+03  0.17770000000E+01 0. -1.
          3    1    6    6  503    0 -0.45726480400E+02  0.10602159120E+03  0.59073049026E+02  0.12969623715E+03  0.00000000000E+00 0. -1.
         -3    1    6    6    0  503 -0.17151274951E+03  0.22965020145E+03  0.17381337472E+02  0.28715492189E+03  0.00000000000E+00 0.  1.
<mgrwt>
<rscale>  0 0.52045231E+03</rscale>
<asrwt>0</asrwt>
<pdfrwt beam="1">  1        2 0.73471679E-01 0.52045231E+03</pdfrwt>
<pdfrwt beam="2">  1       -2 0.12161296E+00 0.52045231E+03</pdfrwt>
<totfact> 0.34449545E+01</totfact>
</mgrwt>
</event>
<event>
12    1  0.7781383E-008  0.9031897E+03  0.7818608E-02  0.9421603E-01
          1   -1    0    0  501    0  0.00000000000E+00  0.00000000000E+00  0.15090437028E+04  0.15090437028E+04  0.00000000000E+00 0. -1.
         -1   -1    0    0    0  501 -0.00000000000E+00 -0.00000000000E+00 -0.62861578339E+03  0.62861578339E+03  0.00000000000E+00 0.  1.
         23    2    1    2    0    0 -0.54238953211E+03 -0.69171407537E+03  0.38389764064E+03  0.96328633780E+03  0.88816684737E+02 0.  0.
    5000000    2    1    2    0    0  0.54238953211E+03  0.69171407537E+03  0.49653027875E+03  0.11743731484E+04  0.59996267159E+03 0.  0.
         23    2    4    4    0    0  0.39637164008E+03  0.32530391375E+03 -0.17150914272E+02  0.52039247320E+03  0.87069276640E+02 0.  0.
         23    2    4    4    0    0  0.14601789203E+03  0.36641016162E+03  0.51368119302E+03  0.65398067518E+03  0.90800463203E+02 0.  0.
          1    1    3    3  502    0 -0.38769414795E+02 -0.94195362483E+02  0.50421358295E+02  0.11365802747E+03  0.00000000000E+00 0. -1.
         -1    1    3    3    0  502 -0.50362011732E+03 -0.59751871289E+03  0.33347628234E+03  0.84962831032E+03  0.00000000000E+00 0.  1.
         15    1    5    5    0    0  0.22684610619E+03  0.13078290274E+03 -0.16304396979E+02  0.26235913293E+03  0.17770000000E+01 0. -1.
        -15    1    5    5    0    0  0.16952553389E+03  0.19452101102E+03 -0.84651729294E+00  0.25803334026E+03  0.17770000000E+01 0.  1.
          1    1    6    6  503    0  0.35099586010E+02  0.20091426233E+03  0.23110777990E+03  0.30823583127E+03  0.00000000000E+00 0.  1.
         -1    1    6    6    0  503  0.11091830602E+03  0.16549589929E+03  0.28257341312E+03  0.34574484392E+03  0.00000000000E+00 0. -1.
<mgrwt>
<rscale>  0 0.90318972E+03</rscale>
<asrwt>0</asrwt>
<pdfrwt beam="1">  1        1 0.23216057E+00 0.90318972E+03</pdfrwt>
<pdfrwt beam="2">  1       -1 0.96710121E-01 0.90318972E+03</pdfrwt>
<totfact> 0.67498990E+00</totfact>
</mgrwt>
</event>
<event>
12    1  0.7781383E-008  0.7622121E+03  0.7818608E-02  0.9616384E-01
         -2   -1    0    0    0  501 -0.00000000000E+00  0.00000000000E+00  0.52297546338E+03  0.52297546338E+03  0.00000000000E+00 0.  1.
          2   -1    0    0  501    0  0.00000000000E+00 -0.00000000000E+00 -0.21120655820E+04  0.21120655820E+04  0.00000000000E+00 0. -1.
         23    2    1    2    0    0 -0.20456761911E+01  0.71910898399E+03 -0.15350281710E+04  0.16969262227E+04  0.78263682708E+02 0.  0.
    5000000    2    1    2    0    0  0.20456761911E+01 -0.71910898399E+03 -0.54061947661E+02  0.93811482267E+03  0.60001234211E+03 0.  0.
         23    2    4    4    0    0  0.13261979230E+03 -0.60646392728E+03  0.16099121389E+03  0.64772667574E+03  0.90802924571E+02 0.  0.
         23    2    4    4    0    0 -0.13057411611E+03 -0.11264505671E+03 -0.21505316155E+03  0.29038814693E+03  0.91317605027E+02 0.  0.
          1    1    3    3  502    0  0.34885579864E+02  0.38784985822E+03 -0.86232043414E+03  0.94617178532E+03  0.00000000000E+00 0. -1.
         -1    1    3    3    0  502 -0.36931256055E+02  0.33125912577E+03 -0.67270773685E+03  0.75075443741E+03  0.00000000000E+00 0.  1.
         15    1    5    5    0    0  0.10783996010E+03 -0.53511090284E+03  0.16977354265E+03  0.57166366759E+03  0.17770000000E+01 0. -1.
        -15    1    5    5    0    0  0.24779832204E+02 -0.71353024442E+02 -0.87823287588E+01  0.76063008148E+02  0.17770000000E+01 0.  1.
          2    1    6    6  503    0 -0.86881777841E+02 -0.10437350648E+03 -0.10490455309E+03  0.17160197386E+03  0.00000000000E+00 0. -1.
         -2    1    6    6    0  503 -0.43692338270E+02 -0.82715502308E+01 -0.11014860846E+03  0.11878617307E+03  0.00000000000E+00 0.  1.
<mgrwt>
<rscale>  0 0.76221207E+03</rscale>
<asrwt>0</asrwt>
<pdfrwt beam="1">  1        2 0.32493317E+00 0.76221207E+03</pdfrwt>
<pdfrwt beam="2">  1       -2 0.80457763E-01 0.76221207E+03</pdfrwt>
<totfact> 0.81824741E+00</totfact>
</mgrwt>
</event>
<event>
12    1  0.7781383E-008  0.1541149E+04  0.7818608E-02  0.8857541E-01
          1   -1    0    0  501    0  0.00000000000E+00  0.00000000000E+00  0.19801253413E+04  0.19801253413E+04  0.00000000000E+00 0. -1.
         -1   -1    0    0    0  501 -0.00000000000E+00 -0.00000000000E+00 -0.12559633950E+04  0.12559633950E+04  0.00000000000E+00 0.  1.
         23    2    1    2    0    0  0.14916426528E+04  0.28024134602E+03  0.30266008570E+03  0.15505025405E+04  0.94456259201E+02 0.  0.
    5000000    2    1    2    0    0 -0.14916426528E+04 -0.28024134602E+03  0.42150186064E+03  0.16855861958E+04  0.60000332422E+03 0.  0.
         23    2    4    4    0    0 -0.14631603986E+04 -0.28074950369E+03  0.48346382292E+03  0.15695525840E+04  0.10049582193E+03 0.  0.
         23    2    4    4    0    0 -0.28482254271E+02  0.50815767408E+00 -0.61961962286E+02  0.11603361174E+03  0.93877671733E+02 0.  0.
          4    1    3    3  502    0  0.55855958398E+03  0.81473272247E+02  0.15278942859E+03  0.58478313283E+03  0.00000000000E+00 0. -1.
         -4    1    3    3    0  502  0.93308306884E+03  0.19876807377E+03  0.14987065711E+03  0.96571940768E+03  0.00000000000E+00 0.  1.
         15    1    5    5    0    0 -0.11202927456E+04 -0.19959145578E+03  0.32668077617E+03  0.11838986749E+04  0.17770000000E+01 0.  1.
        -15    1    5    5    0    0 -0.34286765294E+03 -0.81158047908E+02  0.15678304675E+03  0.38565390916E+03  0.17770000000E+01 0. -1.
          1    1    6    6  503    0  0.47615156932E+01 -0.28810263987E+02 -0.65351783290E+02  0.71579039682E+02  0.00000000000E+00 0. -1.
         -1    1    6    6    0  503 -0.33243769965E+02  0.29318421661E+02  0.33898210041E+01  0.44454572055E+02  0.00000000000E+00 0.  1.
<mgrwt>
<rscale>  0 0.15411485E+04</rscale>
<asrwt>0</asrwt>
<pdfrwt beam="1">  1        1 0.30463467E+00 0.15411485E+04</pdfrwt>
<pdfrwt beam="2">  1       -1 0.19322514E+00 0.15411485E+04</pdfrwt>
<totfact> 0.48558320E-01</totfact>
</mgrwt>
</event>
<event>
12    1  0.7781383E-008  0.1118944E+04  0.7818608E-02  0.9186922E-01
         -2   -1    0    0    0  501 -0.00000000000E+00  0.00000000000E+00  0.15697749177E+04  0.15697749177E+04  0.00000000000E+00 0.  1.
          2   -1    0    0  501    0  0.00000000000E+00 -0.00000000000E+00 -0.88350850288E+03  0.88350850288E+03  0.00000000000E+00 0. -1.
         23    2    1    2    0    0 -0.18611284453E+03 -0.10830408826E+04  0.33900240972E+03  0.11539439058E+04  0.95122865691E+02 0.  0.
    5000000    2    1    2    0    0  0.18611284453E+03  0.10830408826E+04  0.34726400505E+03  0.12993395148E+04  0.60006278099E+03 0.  0.
         23    2    4    4    0    0  0.29436664915E+02  0.21803743318E+02  0.18656194077E+03  0.21069064258E+03  0.90792448268E+02 0.  0.
         23    2    4    4    0    0  0.15667617961E+03  0.10612371393E+04  0.16070206429E+03  0.10886488722E+04  0.92517686916E+02 0.  0.
          3    1    3    3  502    0 -0.12551893851E+03 -0.48300908820E+03  0.17659027089E+03  0.52937407094E+03  0.00000000000E+00 0. -1.
         -3    1    3    3    0  502 -0.60593906016E+02 -0.60003179440E+03  0.16241213883E+03  0.62456983483E+03  0.00000000000E+00 0.  1.
         15    1    5    5    0    0 -0.98474044734E+01 -0.62812711502E+01  0.14904664471E+03  0.14951416579E+03  0.17770000000E+01 0.  1.
        -15    1    5    5    0    0  0.39284069388E+02  0.28085014468E+02  0.37515296057E+02  0.61176476791E+02  0.17770000000E+01 0. -1.
          4    1    6    6  503    0  0.31689398587E+02  0.48231174272E+03  0.96782286680E+02  0.49294588564E+03  0.00000000000E+00 0.  1.
         -4    1    6    6    0  503  0.12498678102E+03  0.57892539656E+03  0.63919777608E+02  0.59570298655E+03  0.00000000000E+00 0. -1.
<mgrwt>
<rscale>  0 0.11189445E+04</rscale>
<asrwt>0</asrwt>
<pdfrwt beam="1">  1        2 0.13592439E+00 0.11189445E+04</pdfrwt>
<pdfrwt beam="2">  1       -2 0.24150383E+00 0.11189445E+04</pdfrwt>
<totfact> 0.21446814E+00</totfact>
</mgrwt>
</event>
<event>
12    1  0.7781383E-008  0.1905634E+04  0.7818608E-02  0.8652057E-01
         -2   -1    0    0    0  501 -0.00000000000E+00  0.00000000000E+00  0.18443395414E+04  0.18443395414E+04  0.00000000000E+00 0.  1.
          2   -1    0    0  501    0  0.00000000000E+00 -0.00000000000E+00 -0.27020100744E+04  0.27020100744E+04  0.00000000000E+00 0. -1.
         23    2    1    2    0    0 -0.18640166562E+04  0.28436534941E+03 -0.15572926810E+04  0.24475610540E+04  0.99864269244E+02 0.  0.
    5000000    2    1    2    0    0  0.18640166562E+04 -0.28436534941E+03  0.69962214802E+03  0.20987885617E+04  0.60001710832E+03 0.  0.
         23    2    4    4    0    0  0.17127898638E+04 -0.34782355314E+03  0.75247286455E+03  0.19048993773E+04  0.88294304282E+02 0.  0.
         23    2    4    4    0    0  0.15122679244E+03  0.63458203736E+02 -0.52850716525E+02  0.19388918444E+03  0.88900681845E+02 0.  0.
          4    1    3    3  502    0 -0.64694365248E+03  0.11054491892E+03 -0.48285636837E+03  0.81480460299E+03  0.00000000000E+00 0. -1.
         -4    1    3    3    0  502 -0.12170730038E+04  0.17382043049E+03 -0.10744363126E+04  0.16327564510E+04  0.00000000000E+00 0.  1.
         15    1    5    5    0    0  0.12856172388E+04 -0.29972270092E+03  0.57023818780E+03  0.14379917005E+04  0.17770000000E+01 0.  1.
        -15    1    5    5    0    0  0.42717262503E+03 -0.48100852217E+02  0.18223467675E+03  0.46690767685E+03  0.17770000000E+01 0. -1.
          3    1    6    6  503    0  0.60592840608E+02 -0.66685797069E+01  0.12126856321E+02  0.62153221417E+02  0.00000000000E+00 0. -1.
         -3    1    6    6    0  503  0.90633951827E+02  0.70126783443E+02 -0.64977572845E+02  0.13173596302E+03  0.00000000000E+00 0.  1.
<mgrwt>
<rscale>  0 0.19056339E+04</rscale>
<asrwt>0</asrwt>
<pdfrwt beam="1">  1        2 0.41569386E+00 0.19056339E+04</pdfrwt>
<pdfrwt beam="2">  1       -2 0.28374455E+00 0.19056339E+04</pdfrwt>
<totfact> 0.94693697E-02</totfact>
</mgrwt>
</event>
<event>
12    1  0.7781383E-008  0.4000284E+03  0.7818608E-02  0.1043770E+00
         -2   -1    0    0    0  501 -0.00000000000E+00  0.00000000000E+00  0.15726737614E+04  0.15726737614E+04  0.00000000000E+00 0.  1.
          2   -1    0    0  501    0  0.00000000000E+00 -0.00000000000E+00 -0.25107816645E+03  0.25107816645E+03  0.00000000000E+00 0. -1.
         23    2    1    2    0    0 -0.10090538378E+03 -0.15854105292E+03  0.11544741367E+04  0.11732083937E+04  0.91050758974E+02 0.  0.
    5000000    2    1    2    0    0  0.10090538378E+03  0.15854105292E+03  0.16712145820E+03  0.65054353415E+03  0.59996678749E+03 0.  0.
         23    2    4    4    0    0  0.10434816585E+03  0.36470488689E+03  0.36863933321E+02  0.39033661692E+03  0.84294309975E+02 0.  0.
         23    2    4    4    0    0 -0.34427820626E+01 -0.20616383397E+03  0.13025752488E+03  0.26020691723E+03  0.90693096752E+02 0.  0.
          3    1    3    3  502    0 -0.10517366703E+03 -0.97424689973E+02  0.69204523008E+03  0.70673875720E+03  0.00000000000E+00 0. -1.
         -3    1    3    3    0  502  0.42682832456E+01 -0.61116362942E+02  0.46242890663E+03  0.46646963647E+03  0.00000000000E+00 0.  1.
         15    1    5    5    0    0 -0.10009701649E+02  0.24397375416E+02 -0.10039171126E+02  0.28273109843E+02  0.17770000000E+01 0. -1.
        -15    1    5    5    0    0  0.11435786749E+03  0.34030751147E+03  0.46903104447E+02  0.36206350708E+03  0.17770000000E+01 0.  1.
          4    1    6    6  503    0 -0.16422478722E+02 -0.38986161304E+02 -0.77852080312E+01  0.43014277219E+02  0.00000000000E+00 0. -1.
         -4    1    6    6    0  503  0.12979696659E+02 -0.16717767267E+03  0.13804273291E+03  0.21719264001E+03  0.00000000000E+00 0.  1.
<mgrwt>
<rscale>  0 0.40002835E+03</rscale>
<asrwt>0</asrwt>
<pdfrwt beam="1">  1        2 0.38627411E-01 0.40002835E+03</pdfrwt>
<pdfrwt beam="2">  1       -2 0.24194980E+00 0.40002835E+03</pdfrwt>
<totfact> 0.10382399E+01</totfact>
</mgrwt>
</event>
<event>
12    1  0.7781383E-008  0.8772862E+03  0.7818608E-02  0.9454429E-01
         -2   -1    0    0    0  501 -0.00000000000E+00  0.00000000000E+00  0.45705043771E+03  0.45705043771E+03  0.00000000000E+00 0.  1.
          2   -1    0    0  501    0  0.00000000000E+00 -0.00000000000E+00 -0.20297752076E+04  0.20297752076E+04  0.00000000000E+00 0. -1.
         23    2    1    2    0    0  0.42434914261E+03  0.75535493711E+03 -0.66659719718E+03  0.10969255403E+04  0.90887522579E+02 0.  0.
    5000000    2    1    2    0    0 -0.42434914261E+03 -0.75535493711E+03 -0.90612757270E+03  0.13899001050E+04  0.60010153148E+03 0.  0.
         23    2    4    4    0    0 -0.33218266067E+03 -0.56158948737E+03 -0.94886743037E+03  0.11550574270E+04  0.89889859957E+02 0.  0.
         23    2    4    4    0    0 -0.92166481945E+02 -0.19376544975E+03  0.42739857673E+02  0.23484267800E+03  0.85350325538E+02 0.  0.
          1    1    3    3  502    0  0.22795202060E+02  0.60871296557E+02 -0.24794917809E+02  0.69568124387E+02  0.00000000000E+00 0. -1.
         -1    1    3    3    0  502  0.40155394056E+03  0.69448364055E+03 -0.64180227937E+03  0.10273574159E+04  0.00000000000E+00 0.  1.
         15    1    5    5    0    0 -0.12432268075E+03 -0.13723938160E+03 -0.29532118657E+03  0.34858074786E+03  0.17770000000E+01 0.  1.
        -15    1    5    5    0    0 -0.20785997992E+03 -0.42435010576E+03 -0.65354624380E+03  0.80647667915E+03  0.17770000000E+01 0. -1.
          4    1    6    6  503    0  0.14047983051E+02 -0.42869360088E+02  0.18377030420E+02  0.48711837465E+02  0.00000000000E+00 0. -1.
         -4    1    6    6    0  503 -0.10621446500E+03 -0.15089608966E+03  0.24362827253E+02  0.18613084054E+03  0.00000000000E+00 0.  1.
<mgrwt>
<rscale>  0 0.87728621E+03</rscale>
<asrwt>0</asrwt>
<pdfrwt beam="1">  1        2 0.31227310E+00 0.87728621E+03</pdfrwt>
<pdfrwt beam="2">  1       -2 0.70315453E-01 0.87728621E+03</pdfrwt>
<totfact> 0.12049517E+01</totfact>
</mgrwt>
</event>
<event>
12    1  0.7781383E-008  0.1225537E+04  0.7818608E-02  0.9090793E-01
          1   -1    0    0  501    0  0.00000000000E+00  0.00000000000E+00  0.15741062448E+04  0.15741062448E+04  0.00000000000E+00 0. -1.
         -1   -1    0    0    0  501 -0.00000000000E+00 -0.00000000000E+00 -0.10931370923E+04  0.10931370923E+04  0.00000000000E+00 0.  1.
         23    2    1    2    0    0  0.56313098954E+03  0.10408883260E+04 -0.15283632522E+03  0.11968215812E+04  0.91967039377E+02 0.  0.
    5000000    2    1    2    0    0 -0.56313098954E+03 -0.10408883260E+04  0.63380547777E+03  0.14704217559E+04  0.59988810449E+03 0.  0.
         23    2    4    4    0    0 -0.25098265012E+02  0.16471354104E+02 -0.39808815967E+02  0.10319985088E+03  0.90356178430E+02 0.  0.
         23    2    4    4    0    0 -0.53803272452E+03 -0.10573596801E+04  0.67361429373E+03  0.13672219050E+04  0.89726333822E+02 0.  0.
          1    1    3    3  502    0  0.13856949658E+03  0.26333702270E+03 -0.78773515759E+02  0.30782001185E+03  0.00000000000E+00 0. -1.
         -1    1    3    3    0  502  0.42456149295E+03  0.77755130333E+03 -0.74062809459E+02  0.88900156938E+03  0.00000000000E+00 0.  1.
         15    1    5    5    0    0 -0.94260839071E+01 -0.28696465526E+02 -0.45895451173E+02  0.54971705075E+02  0.17770000000E+01 0.  1.
        -15    1    5    5    0    0 -0.15672181105E+02  0.45167819630E+02  0.60866352059E+01  0.48228145805E+02  0.17770000000E+01 0. -1.
          3    1    6    6  503    0 -0.14444255044E+03 -0.20643740626E+03  0.15470824732E+03  0.29565976201E+03  0.00000000000E+00 0. -1.
         -3    1    6    6    0  503 -0.39359017408E+03 -0.85092227388E+03  0.51890604641E+03  0.10715621430E+04  0.00000000000E+00 0.  1.
<mgrwt>
<rscale>  0 0.12255368E+04</rscale>
<asrwt>0</asrwt>
<pdfrwt beam="1">  1        1 0.24217019E+00 0.12255368E+04</pdfrwt>
<pdfrwt beam="2">  1       -1 0.16817494E+00 0.12255368E+04</pdfrwt>
<totfact> 0.14423953E+00</totfact>
</mgrwt>
</event>
<event>
12    1  0.7781383E-008  0.1104241E+04  0.7818608E-02  0.9201069E-01
          2   -1    0    0  501    0  0.00000000000E+00  0.00000000000E+00  0.22281665078E+04  0.22281665078E+04  0.00000000000E+00 0. -1.
         -2   -1    0    0    0  501 -0.00000000000E+00 -0.00000000000E+00 -0.64085205747E+03  0.64085205747E+03  0.00000000000E+00 0.  1.
         23    2    1    2    0    0  0.34477378413E+03 -0.96586532195E+03  0.21133703364E+03  0.10509923037E+04  0.90314441246E+02 0.  0.
    5000000    2    1    2    0    0 -0.34477378413E+03  0.96586532195E+03  0.13759774167E+04  0.18180262615E+04  0.60011736695E+03 0.  0.
         23    2    4    4    0    0 -0.41080954666E+03  0.98002356494E+03  0.11812456202E+04  0.15915316553E+04  0.91766677139E+02 0.  0.
         23    2    4    4    0    0  0.66035762529E+02 -0.14158242995E+02  0.19473179646E+03  0.22649460626E+03  0.93905038920E+02 0.  0.
          2    1    3    3  502    0  0.11219383081E+02 -0.10465690852E+03  0.33677467610E+02  0.11051296251E+03  0.00000000000E+00 0. -1.
         -2    1    3    3    0  502  0.33355440105E+03 -0.86120841342E+03  0.17765956603E+03  0.94047934119E+03  0.00000000000E+00 0.  1.
         15    1    5    5    0    0 -0.64096163639E+02  0.21038554538E+03  0.20139956670E+03  0.29822028619E+03  0.17770000000E+01 0. -1.
        -15    1    5    5    0    0 -0.34671338303E+03  0.76963801956E+03  0.97984605350E+03  0.12933113691E+04  0.17770000000E+01 0.  1.
          2    1    6    6  503    0  0.76096425382E+02  0.21079277629E+02  0.12953239507E+03  0.15170248275E+03  0.00000000000E+00 0. -1.
         -2    1    6    6    0  503 -0.10060662853E+02 -0.35237520625E+02  0.65199401394E+02  0.74792123508E+02  0.00000000000E+00 0.  1.
<mgrwt>
<rscale>  0 0.11042405E+04</rscale>
<asrwt>0</asrwt>
<pdfrwt beam="1">  1        2 0.34279484E+00 0.11042405E+04</pdfrwt>
<pdfrwt beam="2">  1       -2 0.98592625E-01 0.11042405E+04</pdfrwt>
<totfact> 0.42152642E+00</totfact>
</mgrwt>
</event>
<event>
12    1  0.7781383E-008  0.1244762E+04  0.7818608E-02  0.9074554E-01
          1   -1    0    0  501    0  0.00000000000E+00  0.00000000000E+00  0.26323218479E+04  0.26323218479E+04  0.00000000000E+00 0. -1.
         -1   -1    0    0    0  501 -0.00000000000E+00 -0.00000000000E+00 -0.67885789843E+03  0.67885789843E+03  0.00000000000E+00 0.  1.
         23    2    1    2    0    0  0.12338274411E+04 -0.10966158414E+03  0.12628283442E+04  0.17712747466E+04  0.91230386558E+02 0.  0.
    5000000    2    1    2    0    0 -0.12338274411E+04  0.10966158414E+03  0.69063560524E+03  0.15399049997E+04  0.59997837583E+03 0.  0.
         23    2    4    4    0    0 -0.10121073298E+04  0.13518395878E+03  0.77525783879E+03  0.12845331692E+04  0.79779674107E+02 0.  0.
         23    2    4    4    0    0 -0.22172011129E+03 -0.25522374637E+02 -0.84622233554E+02  0.25537183051E+03  0.90789041461E+02 0.  0.
          3    1    3    3  502    0  0.56124931004E+03 -0.94362811913E+02  0.59323412739E+03  0.82208993315E+03  0.00000000000E+00 0. -1.
         -3    1    3    3    0  502  0.67257813108E+03 -0.15298772227E+02  0.66959421683E+03  0.94918481343E+03  0.00000000000E+00 0.  1.
         15    1    5    5    0    0 -0.26796483917E+03  0.45337841850E+02  0.16474723485E+03  0.31781359955E+03  0.17770000000E+01 0. -1.
        -15    1    5    5    0    0 -0.74414249066E+03  0.89846116927E+02  0.61051060394E+03  0.96671956967E+03  0.17770000000E+01 0.  1.
          3    1    6    6  503    0 -0.69944420077E+02 -0.25773530475E+02  0.11926084135E+02  0.75489921551E+02  0.00000000000E+00 0. -1.
         -3    1    6    6    0  503 -0.15177569121E+03  0.25115583771E+00 -0.96548317689E+02  0.17988190896E+03  0.00000000000E+00 0.  1.
<mgrwt>
<rscale>  0 0.12447622E+04</rscale>
<asrwt>0</asrwt>
<pdfrwt beam="1">  1        1 0.40497259E+00 0.12447622E+04</pdfrwt>
<pdfrwt beam="2">  1       -1 0.10443968E+00 0.12447622E+04</pdfrwt>
<totfact> 0.93028066E-01</totfact>
</mgrwt>
</event>
<event>
12    1  0.7781383E-008  0.9140659E+03  0.7818608E-02  0.9408167E-01
          2   -1    0    0  501    0  0.00000000000E+00  0.00000000000E+00  0.25615577917E+04  0.25615577917E+04  0.00000000000E+00 0. -1.
         -2   -1    0    0    0  501 -0.00000000000E+00 -0.00000000000E+00 -0.65764845370E+03  0.65764845370E+03  0.00000000000E+00 0.  1.
         23    2    1    2    0    0 -0.94109010051E+02  0.81331361267E+03 -0.22969908577E+03  0.85648123582E+03  0.10228831298E+03 0.  0.
    5000000    2    1    2    0    0  0.94109010051E+02 -0.81331361267E+03  0.21336084238E+04  0.23627250096E+04  0.59987417563E+03 0.  0.
         23    2    4    4    0    0  0.22758458936E+03 -0.71571123206E+02  0.55686597773E+03  0.61256099983E+03  0.90631619032E+02 0.  0.
         23    2    4    4    0    0 -0.13347557931E+03 -0.74174248947E+03  0.15767424460E+04  0.17501640098E+04  0.94655527723E+02 0.  0.
          4    1    3    3  502    0  0.18998587716E+02  0.14327630739E+03 -0.56980768418E+02  0.15535718382E+03  0.00000000000E+00 0. -1.
         -4    1    3    3    0  502 -0.11310759777E+03  0.67003730528E+03 -0.17271831736E+03  0.70112405200E+03  0.00000000000E+00 0.  1.
         15    1    5    5    0    0  0.13626468326E+03 -0.31901835708E+01  0.24333834882E+03  0.27891746254E+03  0.17770000000E+01 0.  1.
        -15    1    5    5    0    0  0.91319906101E+02 -0.68380939635E+02  0.31352762891E+03  0.33364353729E+03  0.17770000000E+01 0. -1.
          1    1    6    6  503    0 -0.57442010117E+02 -0.30543226134E+03  0.75957066783E+03  0.82069242120E+03  0.00000000000E+00 0. -1.
         -1    1    6    6    0  503 -0.76033569193E+02 -0.43631022813E+03  0.81717177821E+03  0.92947158855E+03  0.00000000000E+00 0.  1.
<mgrwt>
<rscale>  0 0.91406594E+03</rscale>
<asrwt>0</asrwt>
<pdfrwt beam="1">  1        2 0.39408581E+00 0.91406594E+03</pdfrwt>
<pdfrwt beam="2">  1       -2 0.10117669E+00 0.91406594E+03</pdfrwt>
<totfact> 0.26335386E+00</totfact>
</mgrwt>
</event>
<event>
12    1  0.7781383E-008  0.1594761E+04  0.7818608E-02  0.8823773E-01
          1   -1    0    0  501    0  0.00000000000E+00  0.00000000000E+00  0.26617018700E+04  0.26617018700E+04  0.00000000000E+00 0. -1.
         -1   -1    0    0    0  501 -0.00000000000E+00 -0.00000000000E+00 -0.10040289509E+04  0.10040289509E+04  0.00000000000E+00 0.  1.
         23    2    1    2    0    0  0.13056555439E+04 -0.86620307768E+03  0.10142068442E+04  0.18687316637E+04  0.92186426309E+02 0.  0.
    5000000    2    1    2    0    0 -0.13056555439E+04  0.86620307768E+03  0.64346607486E+03  0.17969991572E+04  0.60009433443E+03 0.  0.
         23    2    4    4    0    0 -0.97522435777E+03  0.83985834196E+03  0.33085341598E+03  0.13316795771E+04  0.86498153771E+02 0.  0.
         23    2    4    4    0    0 -0.33043118615E+03  0.26344735722E+02  0.31261265888E+03  0.46531958009E+03  0.94428932207E+02 0.  0.
          2    1    3    3  502    0  0.29035944210E+03 -0.20116518504E+03  0.27466768065E+03  0.44745767631E+03  0.00000000000E+00 0. -1.
         -2    1    3    3    0  502  0.10152961018E+04 -0.66503789264E+03  0.73953916351E+03  0.14212739874E+04  0.00000000000E+00 0.  1.
         15    1    5    5    0    0 -0.52107365518E+03  0.39823120464E+03  0.18898140781E+03  0.68251225389E+03  0.17770000000E+01 0. -1.
        -15    1    5    5    0    0 -0.45415070259E+03  0.44162713732E+03  0.14187200816E+03  0.64916732319E+03  0.17770000000E+01 0.  1.
          3    1    6    6  503    0 -0.27574793929E+03  0.34808213858E+02  0.20861781347E+03  0.34751968272E+03  0.00000000000E+00 0. -1.
         -3    1    6    6    0  503 -0.54683246858E+02 -0.84634781367E+01  0.10399484541E+03  0.11779989737E+03  0.00000000000E+00 0.  1.
<mgrwt>
<rscale>  0 0.15947615E+04</rscale>
<asrwt>0</asrwt>
<pdfrwt beam="1">  1        1 0.40949259E+00 0.15947615E+04</pdfrwt>
<pdfrwt beam="2">  1       -1 0.15446599E+00 0.15947615E+04</pdfrwt>
<totfact> 0.31617891E-01</totfact>
</mgrwt>
</event>
<event>
12    1  0.7781383E-008  0.7139729E+03  0.7818608E-02  0.9693631E-01
         -2   -1    0    0    0  501 -0.00000000000E+00  0.00000000000E+00  0.66748247798E+03  0.66748247798E+03  0.00000000000E+00 0.  1.
          2   -1    0    0  501    0  0.00000000000E+00 -0.00000000000E+00 -0.10354405505E+04  0.10354405505E+04  0.00000000000E+00 0. -1.
         23    2    1    2    0    0 -0.58532520472E+03  0.13183482839E+03 -0.56813345944E+03  0.83103843537E+03  0.88674889832E+02 0.  0.
    5000000    2    1    2    0    0  0.58532520472E+03 -0.13183482839E+03  0.20017538688E+03  0.87188459314E+03  0.60010544156E+03 0.  0.
         23    2    4    4    0    0  0.64604319772E+03 -0.23665197546E+03  0.13347481771E+03  0.70655660932E+03  0.89614420728E+02 0.  0.
         23    2    4    4    0    0 -0.60717993004E+02  0.10481714707E+03  0.66700569170E+02  0.16532798382E+03  0.90614939776E+02 0.  0.
          2    1    3    3  502    0 -0.47217019699E+03  0.13904893822E+03 -0.44354241014E+03  0.66257767223E+03  0.00000000000E+00 0. -1.
         -2    1    3    3    0  502 -0.11315500773E+03 -0.72141098327E+01 -0.12459104930E+03  0.16846076315E+03  0.00000000000E+00 0.  1.
         15    1    5    5    0    0  0.93605201686E+02 -0.33659337277E+02 -0.12220218994E+02  0.10023660135E+03  0.17770000000E+01 0. -1.
        -15    1    5    5    0    0  0.55243799603E+03 -0.20299263818E+03  0.14569503670E+03  0.60632000797E+03  0.17770000000E+01 0.  1.
          1    1    6    6  503    0  0.41043337944E+01  0.47777432037E+02 -0.10966847748E+02  0.49191465901E+02  0.00000000000E+00 0. -1.
         -1    1    6    6    0  503 -0.64822326798E+02  0.57039715036E+02  0.77667416919E+02  0.11613651792E+03  0.00000000000E+00 0.  1.
<mgrwt>
<rscale>  0 0.71397288E+03</rscale>
<asrwt>0</asrwt>
<pdfrwt beam="1">  1        2 0.15929855E+00 0.71397288E+03</pdfrwt>
<pdfrwt beam="2">  1       -2 0.10268961E+00 0.71397288E+03</pdfrwt>
<totfact> 0.18927941E+01</totfact>
</mgrwt>
</event>
<event>
12    1  0.7781383E-008  0.1275704E+04  0.7818608E-02  0.9049057E-01
         -2   -1    0    0    0  501 -0.00000000000E+00  0.00000000000E+00  0.10292487010E+04  0.10292487010E+04  0.00000000000E+00 0. -1.
          2   -1    0    0  501    0  0.00000000000E+00 -0.00000000000E+00 -0.17236941933E+04  0.17236941933E+04  0.00000000000E+00 0.  1.
         23    2    1    2    0    0 -0.11910116040E+04  0.20679688630E+03 -0.70678640023E+03  0.14033896353E+04  0.93176497938E+02 0.  0.
    5000000    2    1    2    0    0  0.11910116040E+04 -0.20679688630E+03  0.12340908008E+02  0.13495532590E+04  0.59989007974E+03 0.  0.
         23    2    4    4    0    0  0.69416676594E+03  0.16205752089E+03  0.64255146495E+02  0.72207255101E+03  0.95550541921E+02 0.  0.
         23    2    4    4    0    0  0.49684483809E+03 -0.36885440719E+03 -0.51914238487E+02  0.62748070799E+03  0.90158659651E+02 0.  0.
          4    1    3    3  502    0 -0.38821462061E+03  0.43382337355E+02 -0.27106498054E+03  0.47546697311E+03  0.00000000000E+00 0. -1.
         -4    1    3    3    0  502 -0.80279698342E+03  0.16341454894E+03 -0.43572141969E+03  0.92792266217E+03  0.00000000000E+00 0.  1.
         15    1    5    5    0    0  0.51414443317E+03  0.16015129498E+03  0.61469867172E+02  0.54200981332E+03  0.17770000000E+01 0.  1.
        -15    1    5    5    0    0  0.18002233278E+03  0.19062259152E+01  0.27852793233E+01  0.18006273769E+03  0.17770000000E+01 0. -1.
          3    1    6    6  503    0  0.30938033615E+03 -0.18545537829E+03 -0.56955295265E+02  0.36517638942E+03  0.00000000000E+00 0. -1.
         -3    1    6    6    0  503  0.18746450194E+03 -0.18339902890E+03  0.50410567777E+01  0.26230431857E+03  0.00000000000E+00 0.  1.
<mgrwt>
<rscale>  0 0.12757043E+04</rscale>
<asrwt>0</asrwt>
<pdfrwt beam="1">  1        2 0.26518372E+00 0.12757043E+04</pdfrwt>
<pdfrwt beam="2">  1       -2 0.15834595E+00 0.12757043E+04</pdfrwt>
<totfact> 0.23765895E+00</totfact>
</mgrwt>
</event>
<event>
12    1  0.7781383E-008  0.7169448E+03  0.7818608E-02  0.9688685E-01
         -2   -1    0    0    0  501 -0.00000000000E+00  0.00000000000E+00  0.21402242248E+03  0.21402242248E+03  0.00000000000E+00 0.  1.
          2   -1    0    0  501    0  0.00000000000E+00 -0.00000000000E+00 -0.25108179076E+04  0.25108179076E+04  0.00000000000E+00 0. -1.
         23    2    1    2    0    0  0.60260303633E+03  0.46505402755E+02 -0.10481031151E+04  0.12134008065E+04  0.92348283591E+02 0.  0.
    5000000    2    1    2    0    0 -0.60260303633E+03 -0.46505402755E+02 -0.12486923701E+04  0.15114395236E+04  0.59993635210E+03 0.  0.
         23    2    4    4    0    0  0.59855808472E+02  0.92080121300E+02 -0.38555805680E+03  0.41084157664E+03  0.89857216667E+02 0.  0.
         23    2    4    4    0    0 -0.66245884480E+03 -0.13858552405E+03 -0.86313431326E+03  0.11005979470E+04  0.90869849747E+02 0.  0.
          2    1    3    3  502    0  0.48107486587E+03  0.72240902224E+02 -0.81050535774E+03  0.94528869106E+03  0.00000000000E+00 0. -1.
         -2    1    3    3    0  502  0.12152817045E+03 -0.25735499469E+02 -0.23759775734E+03  0.26811211543E+03  0.00000000000E+00 0.  1.
         15    1    5    5    0    0  0.26847269688E+02 -0.13246445332E+02 -0.60021352904E+02  0.67096682012E+02  0.17770000000E+01 0. -1.
        -15    1    5    5    0    0  0.33008538784E+02  0.10532656663E+03 -0.32553670389E+03  0.34374489463E+03  0.17770000000E+01 0.  1.
          2    1    6    6  503    0 -0.29075864052E+03 -0.15139277104E+02 -0.37508067659E+03  0.47482133345E+03  0.00000000000E+00 0.  1.
         -2    1    6    6    0  503 -0.37170020428E+03 -0.12344624695E+03 -0.48805363668E+03  0.62577661351E+03  0.00000000000E+00 0. -1.
<mgrwt>
<rscale>  0 0.71694483E+03</rscale>
<asrwt>0</asrwt>
<pdfrwt beam="1">  1        2 0.38627972E+00 0.71694483E+03</pdfrwt>
<pdfrwt beam="2">  1       -2 0.32926523E-01 0.71694483E+03</pdfrwt>
<totfact> 0.30962398E+01</totfact>
</mgrwt>
</event>
<event>
12    1  0.7781383E-008  0.9729697E+03  0.7818608E-02  0.9338698E-01
          1   -1    0    0  501    0  0.00000000000E+00  0.00000000000E+00  0.19067066491E+04  0.19067066491E+04  0.00000000000E+00 0.  1.
         -1   -1    0    0    0  501 -0.00000000000E+00 -0.00000000000E+00 -0.54197059500E+03  0.54197059500E+03  0.00000000000E+00 0. -1.
         23    2    1    2    0    0  0.16692733389E+02  0.92275588563E+03  0.70333846372E+03  0.11644280687E+04  0.97214509166E+02 0.  0.
    5000000    2    1    2    0    0 -0.16692733389E+02 -0.92275588563E+03  0.66139759038E+03  0.12842491754E+04  0.60007674524E+03 0.  0.
         23    2    4    4    0    0 -0.11304449000E+03 -0.50606962441E+02  0.28655528305E+03  0.32562244074E+03  0.92606275734E+02 0.  0.
         23    2    4    4    0    0  0.96351756613E+02 -0.87214892319E+03  0.37484230733E+03  0.95862673467E+03  0.92363714963E+02 0.  0.
          3    1    3    3  502    0 -0.21193187460E+02  0.77167688730E+03  0.59595485392E+03  0.97524179438E+03  0.00000000000E+00 0. -1.
         -3    1    3    3    0  502  0.37885920849E+02  0.15107899833E+03  0.10738360980E+03  0.18918627431E+03  0.00000000000E+00 0.  1.
         15    1    5    5    0    0 -0.40897500382E+02  0.12885880652E+02  0.16588577201E+03  0.17134730387E+03  0.17770000000E+01 0. -1.
        -15    1    5    5    0    0 -0.72146989620E+02 -0.63492843093E+02  0.12066951104E+03  0.15427513688E+03  0.17770000000E+01 0.  1.
          2    1    6    6  503    0  0.16346937858E+02 -0.39709243602E+03  0.12943379793E+03  0.41797456043E+03  0.00000000000E+00 0.  1.
         -2    1    6    6    0  503  0.80004818755E+02 -0.47505648717E+03  0.24540850940E+03  0.54065217424E+03  0.00000000000E+00 0. -1.
<mgrwt>
<rscale>  0 0.97296967E+03</rscale>
<asrwt>0</asrwt>
<pdfrwt beam="1">  1        1 0.29333948E+00 0.97296967E+03</pdfrwt>
<pdfrwt beam="2">  1       -1 0.83380093E-01 0.97296967E+03</pdfrwt>
<totfact> 0.49885363E+00</totfact>
</mgrwt>
</event>
<event>
12    1  0.7781383E-008  0.2265189E+04  0.7818608E-02  0.8491775E-01
          2   -1    0    0  501    0  0.00000000000E+00  0.00000000000E+00  0.22683303863E+04  0.22683303863E+04  0.00000000000E+00 0. -1.
         -2   -1    0    0    0  501 -0.00000000000E+00 -0.00000000000E+00 -0.24391991834E+04  0.24391991834E+04  0.00000000000E+00 0.  1.
         23    2    1    2    0    0 -0.20646917787E+04  0.83376932936E+03 -0.71055865008E+03  0.23390896933E+04  0.91233559818E+02 0.  0.
    5000000    2    1    2    0    0  0.20646917787E+04 -0.83376932936E+03  0.53968985298E+03  0.23684398764E+04  0.60009905438E+03 0.  0.
         23    2    4    4    0    0  0.11053791120E+04 -0.74897905618E+03  0.33447210358E+03  0.13795801430E+04  0.92396835172E+02 0.  0.
         23    2    4    4    0    0  0.95931266679E+03 -0.84790273183E+02  0.20521774939E+03  0.98885973343E+03  0.90879396136E+02 0.  0.
          3    1    3    3  502    0 -0.96153115703E+03  0.40741677381E+03 -0.28921986918E+03  0.10835952779E+04  0.00000000000E+00 0. -1.
         -3    1    3    3    0  502 -0.11031606217E+04  0.42635255555E+03 -0.42133878090E+03  0.12554944155E+04  0.00000000000E+00 0.  1.
         15    1    5    5    0    0  0.32258799665E+03 -0.24746732071E+03  0.13817125363E+03  0.42941535076E+03  0.17770000000E+01 0.  1.
        -15    1    5    5    0    0  0.78279111530E+03 -0.50151173546E+03  0.19630084996E+03  0.95016479225E+03  0.17770000000E+01 0. -1.
          2    1    6    6  503    0  0.74350838560E+03 -0.10292814907E+03  0.16690145928E+03  0.76893108952E+03  0.00000000000E+00 0. -1.
         -2    1    6    6    0  503  0.21580428119E+03  0.18137875887E+02  0.38316290115E+02  0.21992864391E+03  0.00000000000E+00 0.  1.
<mgrwt>
<rscale>  0 0.22651886E+04</rscale>
<asrwt>0</asrwt>
<pdfrwt beam="1">  1        2 0.34897391E+00 0.22651886E+04</pdfrwt>
<pdfrwt beam="2">  1       -2 0.37526141E+00 0.22651886E+04</pdfrwt>
<totfact> 0.43762698E-02</totfact>
</mgrwt>
</event>
<event>
12    1  0.7781383E-008  0.4349857E+03  0.7818608E-02  0.1032296E+00
         -2   -1    0    0    0  501 -0.00000000000E+00  0.00000000000E+00  0.62790360542E+03  0.62790360542E+03  0.00000000000E+00 0.  1.
          2   -1    0    0  501    0  0.00000000000E+00 -0.00000000000E+00 -0.33953658869E+03  0.33953658869E+03  0.00000000000E+00 0. -1.
         23    2    1    2    0    0 -0.20722173696E+03 -0.11629694851E+03 -0.13480873174E+02  0.25500299967E+03  0.91536699724E+02 0.  0.
    5000000    2    1    2    0    0  0.20722173696E+03  0.11629694851E+03  0.30184788990E+03  0.71243719444E+03  0.59999064900E+03 0.  0.
         23    2    4    4    0    0 -0.41640645163E+01 -0.21906438386E+03  0.10421224871E+03  0.26030612423E+03  0.94300274768E+02 0.  0.
         23    2    4    4    0    0  0.21138580148E+03  0.33536133237E+03  0.19763564119E+03  0.45213107022E+03  0.90617204063E+02 0.  0.
          2    1    3    3  502    0 -0.18939662060E+03 -0.10087501928E+03 -0.41318375990E+02  0.21852701802E+03  0.00000000000E+00 0. -1.
         -2    1    3    3    0  502 -0.17825116366E+02 -0.15421929231E+02  0.27837502816E+02  0.36475981655E+02  0.00000000000E+00 0.  1.
         15    1    5    5    0    0  0.36138437936E+02 -0.12835327834E+03  0.30886598299E+02  0.13688568384E+03  0.17770000000E+01 0. -1.
        -15    1    5    5    0    0 -0.40302502453E+02 -0.90711105514E+02  0.73325650408E+02  0.12342044038E+03  0.17770000000E+01 0.  1.
          1    1    6    6  503    0  0.16586143745E+02  0.84036688491E+01 -0.71780509050E+01  0.19931036833E+02  0.00000000000E+00 0. -1.
         -1    1    6    6    0  503  0.19479965773E+03  0.32695766352E+03  0.20481369210E+03  0.43220003338E+03  0.00000000000E+00 0.  1.
<mgrwt>
<rscale>  0 0.43498574E+03</rscale>
<asrwt>0</asrwt>
<pdfrwt beam="1">  1        2 0.52236398E-01 0.43498574E+03</pdfrwt>
<pdfrwt beam="2">  1       -2 0.96600555E-01 0.43498574E+03</pdfrwt>
<totfact> 0.88251561E+01</totfact>
</mgrwt>
</event>
<event>
12    1  0.7781383E-008  0.9301532E+03  0.7818608E-02  0.9388654E-01
         -2   -1    0    0    0  501 -0.00000000000E+00  0.00000000000E+00  0.37323605228E+03  0.37323605228E+03  0.00000000000E+00 0.  1.
          2   -1    0    0  501    0  0.00000000000E+00 -0.00000000000E+00 -0.32089564002E+04  0.32089564002E+04  0.00000000000E+00 0. -1.
         23    2    1    2    0    0  0.73864530756E+02  0.85034485667E+03 -0.43063248075E+03  0.96057882753E+03  0.93407741915E+02 0.  0.
    5000000    2    1    2    0    0 -0.73864530756E+02 -0.85034485667E+03 -0.24050878672E+04  0.26216136249E+04  0.59988999453E+03 0.  0.
         23    2    4    4    0    0 -0.12063688859E+03 -0.91179834496E+03 -0.21403084414E+04  0.23313508671E+04  0.91362798034E+02 0.  0.
         23    2    4    4    0    0  0.46772357831E+02  0.61453488286E+02 -0.26477942582E+03  0.29026275780E+03  0.90444123915E+02 0.  0.
          3    1    3    3  502    0  0.34498852829E+02  0.54427975222E+03 -0.22621110655E+03  0.59042534181E+03  0.00000000000E+00 0. -1.
         -3    1    3    3    0  502  0.39365677927E+02  0.30606510445E+03 -0.20442137420E+03  0.37015348572E+03  0.00000000000E+00 0.  1.
         15    1    5    5    0    0  0.31412129818E+01 -0.29682433862E+03 -0.67040021936E+03  0.73318085563E+03  0.17770000000E+01 0.  1.
        -15    1    5    5    0    0 -0.12377810157E+03 -0.61497400634E+03 -0.14699082220E+04  0.15981700115E+04  0.17770000000E+01 0. -1.
          3    1    6    6  503    0  0.39671448405E+02  0.63436299443E+02 -0.97881994592E+02  0.12320256804E+03  0.00000000000E+00 0. -1.
         -3    1    6    6    0  503  0.71009094262E+01 -0.19828111564E+01 -0.16689743122E+03  0.16706018976E+03  0.00000000000E+00 0.  1.
<mgrwt>
<rscale>  0 0.93015316E+03</rscale>
<asrwt>0</asrwt>
<pdfrwt beam="1">  1        2 0.49368558E+00 0.93015316E+03</pdfrwt>
<pdfrwt beam="2">  1       -2 0.57420933E-01 0.93015316E+03</pdfrwt>
<totfact> 0.37791163E+00</totfact>
</mgrwt>
</event>
<event>
12    1  0.7781383E-008  0.1518807E+04  0.7818608E-02  0.8872042E-01
          3   -1    0    0  501    0  0.00000000000E+00  0.00000000000E+00  0.12944150490E+04  0.12944150490E+04  0.00000000000E+00 0. -1.
         -3   -1    0    0    0  501 -0.00000000000E+00 -0.00000000000E+00 -0.19513977951E+04  0.19513977951E+04  0.00000000000E+00 0.  1.
         23    2    1    2    0    0  0.14056103871E+04  0.44938017200E+03 -0.73435921963E+03  0.16508911797E+04  0.92060438004E+02 0.  0.
    5000000    2    1    2    0    0 -0.14056103871E+04 -0.44938017200E+03  0.77376473555E+02  0.15949216645E+04  0.60008740839E+03 0.  0.
         23    2    4    4    0    0 -0.73106798112E+03 -0.48914875493E+03  0.18711457973E+03  0.90436652117E+03  0.95603562723E+02 0.  0.
         23    2    4    4    0    0 -0.67454240600E+03  0.39768582934E+02 -0.10973810618E+03  0.69055514328E+03  0.90746659853E+02 0.  0.
          3    1    3    3  502    0  0.66211969870E+03  0.16417525885E+03 -0.33029908905E+03  0.75792710682E+03  0.00000000000E+00 0. -1.
         -3    1    3    3    0  502  0.74349068842E+03  0.28520491315E+03 -0.40406013059E+03  0.89296407284E+03  0.00000000000E+00 0.  1.
         15    1    5    5    0    0 -0.87132837125E+02 -0.92160668039E+02  0.87231455436E+01  0.12714153938E+03  0.17770000000E+01 0. -1.
        -15    1    5    5    0    0 -0.64393514399E+03 -0.39698808690E+03  0.17839143419E+03  0.77722498179E+03  0.17770000000E+01 0.  1.
          2    1    6    6  503    0 -0.12656497468E+03  0.29960269317E+01  0.14620551034E+02  0.12744186716E+03  0.00000000000E+00 0.  1.
         -2    1    6    6    0  503 -0.54797743133E+03  0.36772556002E+02 -0.12435865721E+03  0.56311327612E+03  0.00000000000E+00 0. -1.
<mgrwt>
<rscale>  0 0.15188072E+04</rscale>
<asrwt>0</asrwt>
<pdfrwt beam="1">  1        3 0.19914078E+00 0.15188072E+04</pdfrwt>
<pdfrwt beam="2">  1       -3 0.30021504E+00 0.15188072E+04</pdfrwt>
<totfact> 0.13575318E-02</totfact>
</mgrwt>
</event>
<event>
12    1  0.7781383E-008  0.7772879E+03  0.7818608E-02  0.9593486E-01
          2   -1    0    0  501    0  0.00000000000E+00  0.00000000000E+00  0.34134410892E+04  0.34134410892E+04  0.00000000000E+00 0. -1.
         -2   -1    0    0    0  501 -0.00000000000E+00 -0.00000000000E+00 -0.20422819574E+03  0.20422819574E+03  0.00000000000E+00 0.  1.
         23    2    1    2    0    0  0.62598358031E+03 -0.26022016640E+03  0.84937876384E+03  0.10901654635E+04  0.86292962774E+02 0.  0.
    5000000    2    1    2    0    0 -0.62598358031E+03  0.26022016640E+03  0.23598341296E+04  0.25275038215E+04  0.59990705158E+03 0.  0.
         23    2    4    4    0    0 -0.69482250541E+02 -0.15057476850E+03  0.31094664639E+03  0.36309396899E+03  0.87457814750E+02 0.  0.
         23    2    4    4    0    0 -0.55650132977E+03  0.41079493491E+03  0.20488874832E+04  0.21644098525E+04  0.91015834530E+02 0.  0.
          1    1    3    3  502    0  0.16037921880E+03 -0.10175680257E+03  0.20389093972E+03  0.27865293107E+03  0.00000000000E+00 0. -1.
         -1    1    3    3    0  502  0.46560436151E+03 -0.15846336383E+03  0.64548782412E+03  0.81151253239E+03  0.00000000000E+00 0.  1.
         15    1    5    5    0    0  0.13059019875E+02 -0.44831853089E+02  0.12775164534E+03  0.13602967936E+03  0.17770000000E+01 0. -1.
        -15    1    5    5    0    0 -0.82541270416E+02 -0.10574291541E+03  0.18319500105E+03  0.22706428962E+03  0.17770000000E+01 0.  1.
          1    1    6    6  503    0 -0.40324344405E+03  0.30736921810E+03  0.16164386339E+04  0.16940941439E+04  0.00000000000E+00 0. -1.
         -1    1    6    6    0  503 -0.15325788572E+03  0.10342571681E+03  0.43244884931E+03  0.47031570854E+03  0.00000000000E+00 0.  1.
<mgrwt>
<rscale>  0 0.77728794E+03</rscale>
<asrwt>0</asrwt>
<pdfrwt beam="1">  1        2 0.52514474E+00 0.77728794E+03</pdfrwt>
<pdfrwt beam="2">  1       -2 0.31419725E-01 0.77728794E+03</pdfrwt>
<totfact> 0.94029161E+00</totfact>
</mgrwt>
</event>
<event>
12    1  0.7781383E-008  0.7935557E+03  0.7818608E-02  0.9569392E-01
         -2   -1    0    0    0  501 -0.00000000000E+00  0.00000000000E+00  0.98163044255E+03  0.98163044255E+03  0.00000000000E+00 0.  1.
          2   -1    0    0  501    0  0.00000000000E+00 -0.00000000000E+00 -0.67463368334E+03  0.67463368334E+03  0.00000000000E+00 0. -1.
         23    2    1    2    0    0  0.57660784755E+02  0.68338420307E+03  0.27588181052E+03  0.74466398743E+03  0.89860701684E+02 0.  0.
    5000000    2    1    2    0    0 -0.57660784755E+02 -0.68338420307E+03  0.31114948686E+02  0.91160013845E+03  0.59975656503E+03 0.  0.
         23    2    4    4    0    0  0.24073354453E+03 -0.46267809698E+03  0.15333577481E+02  0.52974982526E+03  0.91521024217E+02 0.  0.
         23    2    4    4    0    0 -0.29839432929E+03 -0.22070610609E+03  0.15781371205E+02  0.38185031319E+03  0.88375613123E+02 0.  0.
          4    1    3    3  502    0  0.55185611979E+02  0.44942347961E+03  0.22324780662E+03  0.50484304388E+03  0.00000000000E+00 0.  1.
         -4    1    3    3    0  502  0.24751727762E+01  0.23396072346E+03  0.52634003900E+02  0.23982094355E+03  0.00000000000E+00 0. -1.
         15    1    5    5    0    0  0.37421916524E+02 -0.65530395842E+02  0.34884057383E+02  0.83154601821E+02  0.17770000000E+01 0. -1.
        -15    1    5    5    0    0  0.20331162801E+03 -0.39714770114E+03 -0.19550479902E+02  0.44659522344E+03  0.17770000000E+01 0.  1.
          4    1    6    6  503    0 -0.12757274518E+03 -0.14112142166E+03  0.31164433555E+02  0.19277261964E+03  0.00000000000E+00 0. -1.
         -4    1    6    6    0  503 -0.17082158411E+03 -0.79584684422E+02 -0.15383062350E+02  0.18907769355E+03  0.00000000000E+00 0.  1.
<mgrwt>
<rscale>  0 0.79355567E+03</rscale>
<asrwt>0</asrwt>
<pdfrwt beam="1">  1        2 0.10378980E+00 0.79355567E+03</pdfrwt>
<pdfrwt beam="2">  1       -2 0.15102007E+00 0.79355567E+03</pdfrwt>
<totfact> 0.12766714E+01</totfact>
</mgrwt>
</event>
<event>
12    1  0.7781383E-008  0.6971098E+03  0.7818608E-02  0.9722188E-01
         -3   -1    0    0    0  501 -0.00000000000E+00  0.00000000000E+00  0.42256956118E+03  0.42256956118E+03  0.00000000000E+00 0.  1.
          3   -1    0    0  501    0  0.00000000000E+00 -0.00000000000E+00 -0.19562137900E+04  0.19562137900E+04  0.00000000000E+00 0. -1.
         23    2    1    2    0    0  0.11091583186E+02 -0.61476700060E+03 -0.13701383723E+04  0.15044125321E+04  0.88974261514E+02 0.  0.
    5000000    2    1    2    0    0 -0.11091583186E+02  0.61476700060E+03 -0.16350585647E+03  0.87437081905E+03  0.59977385393E+03 0.  0.
         23    2    4    4    0    0 -0.19421022337E+03  0.54208368141E+03  0.29633417650E+02  0.58372333736E+03  0.91008058013E+02 0.  0.
         23    2    4    4    0    0  0.18311864018E+03  0.72683319187E+02 -0.19313927412E+03  0.29064748169E+03  0.91421431471E+02 0.  0.
          3    1    3    3  502    0 -0.28126807476E+02 -0.26114936083E+03 -0.51199556120E+03  0.57543858112E+03  0.00000000000E+00 0. -1.
         -3    1    3    3    0  502  0.39218390662E+02 -0.35361763977E+03 -0.85814281113E+03  0.92897395099E+03  0.00000000000E+00 0.  1.
         15    1    5    5    0    0 -0.60307637707E+02  0.11078323610E+03  0.38924870177E+02  0.13201605893E+03  0.17770000000E+01 0. -1.
        -15    1    5    5    0    0 -0.13390258566E+03  0.43130044531E+03 -0.92914525272E+01  0.45170727843E+03  0.17770000000E+01 0.  1.
          1    1    6    6  503    0  0.62376770488E+02  0.35022922028E+02 -0.16532294393E+02  0.73421953950E+02  0.00000000000E+00 0. -1.
         -1    1    6    6    0  503  0.12074186969E+03  0.37660397158E+02 -0.17660697973E+03  0.21722552774E+03  0.00000000000E+00 0.  1.
<mgrwt>
<rscale>  0 0.69710981E+03</rscale>
<asrwt>0</asrwt>
<pdfrwt beam="1">  1        3 0.30095596E+00 0.69710981E+03</pdfrwt>
<pdfrwt beam="2">  1       -3 0.65010703E-01 0.69710981E+03</pdfrwt>
<totfact> 0.23289742E-01</totfact>
</mgrwt>
</event>
<event>
12    1  0.7781383E-008  0.6925495E+03  0.7818608E-02  0.9730059E-01
          2   -1    0    0  501    0  0.00000000000E+00  0.00000000000E+00  0.14084151554E+04  0.14084151554E+04  0.00000000000E+00 0.  1.
         -2   -1    0    0    0  501 -0.00000000000E+00 -0.00000000000E+00 -0.37211629737E+03  0.37211629737E+03  0.00000000000E+00 0. -1.
         23    2    1    2    0    0  0.24935911596E+03 -0.51993297045E+03  0.24956533948E+03  0.63481164471E+03  0.90513552162E+02 0.  0.
    5000000    2    1    2    0    0 -0.24935911596E+03  0.51993297045E+03  0.78673351856E+03  0.11457198081E+04  0.60101080429E+03 0.  0.
         23    2    4    4    0    0 -0.42717635134E+03  0.43163988275E+03  0.59638723437E+03  0.85612080843E+03  0.92046085115E+02 0.  0.
         23    2    4    4    0    0  0.17781723538E+03  0.88293087698E+02  0.19034628419E+03  0.28959899962E+03  0.90671021536E+02 0.  0.
          4    1    3    3  502    0  0.13852934086E+03 -0.32031265127E+03  0.10447177729E+03  0.36428687197E+03  0.00000000000E+00 0. -1.
         -4    1    3    3    0  502  0.11082977510E+03 -0.19962031918E+03  0.14509356219E+03  0.27052477274E+03  0.00000000000E+00 0.  1.
         15    1    5    5    0    0 -0.20291512052E+03  0.19999054852E+03  0.21639574397E+03  0.35777233175E+03  0.17770000000E+01 0.  1.
        -15    1    5    5    0    0 -0.22426123082E+03  0.23164933423E+03  0.37999149041E+03  0.49834847668E+03  0.17770000000E+01 0. -1.
          4    1    6    6  503    0  0.66919928636E+02  0.18522572999E+02  0.12545845283E+03  0.14339172203E+03  0.00000000000E+00 0. -1.
         -4    1    6    6    0  503  0.11089730674E+03  0.69770514699E+02  0.64887831356E+02  0.14620727760E+03  0.00000000000E+00 0.  1.
<mgrwt>
<rscale>  0 0.69254951E+03</rscale>
<asrwt>0</asrwt>
<pdfrwt beam="1">  1        2 0.21667925E+00 0.69254951E+03</pdfrwt>
<pdfrwt beam="2">  1       -2 0.57248662E-01 0.69254951E+03</pdfrwt>
<totfact> 0.42039855E+01</totfact>
</mgrwt>
</event>
<event>
12    1  0.7781383E-008  0.6572144E+03  0.7818608E-02  0.9793335E-01
          2   -1    0    0  501    0  0.00000000000E+00  0.00000000000E+00  0.21126683648E+04  0.21126683648E+04  0.00000000000E+00 0. -1.
         -2   -1    0    0    0  501 -0.00000000000E+00 -0.00000000000E+00 -0.32952533066E+03  0.32952533066E+03  0.00000000000E+00 0.  1.
         23    2    1    2    0    0  0.58773210000E+03 -0.56469581914E+02  0.16782016733E+03  0.62050830912E+03  0.90824655665E+02 0.  0.
    5000000    2    1    2    0    0 -0.58773210000E+03  0.56469581914E+02  0.16153228668E+04  0.18216853863E+04  0.60054296073E+03 0.  0.
         23    2    4    4    0    0  0.46415723871E+02  0.60079544236E+02  0.49739365238E+02  0.13008485965E+03  0.93188492845E+02 0.  0.
         23    2    4    4    0    0 -0.63414782387E+03 -0.36099623223E+01  0.15655835015E+04  0.16916005266E+04  0.91127093191E+02 0.  0.
          4    1    3    3  502    0  0.38200173328E+03 -0.51084426063E+02  0.66423077867E+02  0.39108434907E+03  0.00000000000E+00 0. -1.
         -4    1    3    3    0  502  0.20573036672E+03 -0.53851558510E+01  0.10139708947E+03  0.22942396006E+03  0.00000000000E+00 0.  1.
         15    1    5    5    0    0  0.16915511295E+02  0.16666150338E+01 -0.25282592175E+02  0.30516869501E+02  0.17770000000E+01 0. -1.
        -15    1    5    5    0    0  0.29500212575E+02  0.58412929203E+02  0.75021957413E+02  0.99567990153E+02  0.17770000000E+01 0.  1.
          4    1    6    6  503    0 -0.48828596913E+03  0.35750006996E+02  0.11964443174E+04  0.12927413722E+04  0.00000000000E+00 0. -1.
         -4    1    6    6    0  503 -0.14586185474E+03 -0.39359969318E+02  0.36913918410E+03  0.39885915445E+03  0.00000000000E+00 0.  1.
<mgrwt>
<rscale>  0 0.65721444E+03</rscale>
<asrwt>0</asrwt>
<pdfrwt beam="1">  1        2 0.32502589E+00 0.65721444E+03</pdfrwt>
<pdfrwt beam="2">  1       -2 0.50696206E-01 0.65721444E+03</pdfrwt>
<totfact> 0.22343635E+01</totfact>
</mgrwt>
</event>
<event>
12    1  0.7781383E-008  0.1379619E+04  0.7818608E-02  0.8968705E-01
          1   -1    0    0  501    0  0.00000000000E+00  0.00000000000E+00  0.15114444389E+04  0.15114444389E+04  0.00000000000E+00 0. -1.
         -1   -1    0    0    0  501 -0.00000000000E+00 -0.00000000000E+00 -0.12790488376E+04  0.12790488376E+04  0.00000000000E+00 0.  1.
         23    2    1    2    0    0 -0.11833954331E+04 -0.57663792071E+03  0.25326976786E+03  0.13436772655E+04  0.91580432440E+02 0.  0.
    5000000    2    1    2    0    0  0.11833954331E+04  0.57663792071E+03 -0.20874166558E+02  0.14468160111E+04  0.59992065829E+03 0.  0.
         23    2    4    4    0    0  0.59117496361E+03  0.59930613437E+03 -0.41889232183E+02  0.84778650025E+03  0.91277390143E+02 0.  0.
         23    2    4    4    0    0  0.59222046954E+03 -0.22668213662E+02  0.21015065625E+02  0.59902951080E+03  0.84591899027E+02 0.  0.
          2    1    3    3  502    0 -0.58889612883E+03 -0.31927772499E+03  0.92722601004E+02  0.67626503455E+03  0.00000000000E+00 0. -1.
         -2    1    3    3    0  502 -0.59449930432E+03 -0.25736019572E+03  0.16054716685E+03  0.66741223090E+03  0.00000000000E+00 0.  1.
         15    1    5    5    0    0  0.34558584516E+03  0.37987711340E+03  0.13945490400E+02  0.51374490955E+03  0.17770000000E+01 0. -1.
        -15    1    5    5    0    0  0.24558911845E+03  0.21942902097E+03 -0.55834722583E+02  0.33404159070E+03  0.17770000000E+01 0.  1.
          3    1    6    6  503    0  0.42892459245E+03 -0.54200317521E+02  0.16936019551E+02  0.43266708817E+03  0.00000000000E+00 0. -1.
         -3    1    6    6    0  503  0.16329587709E+03  0.31532103859E+02  0.40790460741E+01  0.16636242263E+03  0.00000000000E+00 0.  1.
<mgrwt>
<rscale>  0 0.13796193E+04</rscale>
<asrwt>0</asrwt>
<pdfrwt beam="1">  1        1 0.23252991E+00 0.13796193E+04</pdfrwt>
<pdfrwt beam="2">  1       -1 0.19677674E+00 0.13796193E+04</pdfrwt>
<totfact> 0.97676124E-01</totfact>
</mgrwt>
</event>
<event>
12    1  0.7781383E-008  0.6558231E+03  0.7818608E-02  0.9795913E-01
         -2   -1    0    0    0  501 -0.00000000000E+00  0.00000000000E+00  0.17648658279E+03  0.17648658279E+03  0.00000000000E+00 0. -1.
          2   -1    0    0  501    0  0.00000000000E+00 -0.00000000000E+00 -0.26777343619E+04  0.26777343619E+04  0.00000000000E+00 0.  1.
         23    2    1    2    0    0  0.45069210357E+03 -0.31253080324E+03 -0.88183734260E+03  0.10422509927E+04  0.88606759676E+02 0.  0.
    5000000    2    1    2    0    0 -0.45069210357E+03  0.31253080324E+03 -0.16194104365E+04  0.18119699519E+04  0.59995505638E+03 0.  0.
         23    2    4    4    0    0 -0.35604578904E+03 -0.61194514529E+02 -0.10817758200E+04  0.11442285443E+04  0.92231579911E+02 0.  0.
         23    2    4    4    0    0 -0.94646314531E+02  0.37372531777E+03 -0.53763461649E+03  0.66774140764E+03  0.90548708589E+02 0.  0.
          4    1    3    3  502    0  0.15968090280E+03 -0.67506171658E+02 -0.31570061408E+03  0.36016933748E+03  0.00000000000E+00 0.  1.
         -4    1    3    3    0  502  0.29101120077E+03 -0.24502463158E+03 -0.56613672852E+03  0.68208165525E+03  0.00000000000E+00 0. -1.
         15    1    5    5    0    0 -0.18457927594E+03 -0.60624642708E+02 -0.46252939173E+03  0.50167863454E+03  0.17770000000E+01 0. -1.
        -15    1    5    5    0    0 -0.17146651310E+03 -0.56987182068E+00 -0.61924642826E+03  0.64254990974E+03  0.17770000000E+01 0.  1.
          3    1    6    6  503    0 -0.95931936153E+02  0.24146362124E+03 -0.31015622553E+03  0.40460412874E+03  0.00000000000E+00 0. -1.
         -3    1    6    6    0  503  0.12856216216E+01  0.13226169652E+03 -0.22747839097E+03  0.26313727890E+03  0.00000000000E+00 0.  1.
<mgrwt>
<rscale>  0 0.65582311E+03</rscale>
<asrwt>0</asrwt>
<pdfrwt beam="1">  1        2 0.41195918E+00 0.65582311E+03</pdfrwt>
<pdfrwt beam="2">  1       -2 0.27151779E-01 0.65582311E+03</pdfrwt>
<totfact> 0.35869894E+01</totfact>
</mgrwt>
</event>
<event>
12    1  0.7781383E-008  0.1078841E+04  0.7818608E-02  0.9226063E-01
          1   -1    0    0  501    0  0.00000000000E+00  0.00000000000E+00  0.98411022558E+03  0.98411022558E+03  0.00000000000E+00 0. -1.
         -1   -1    0    0    0  501 -0.00000000000E+00 -0.00000000000E+00 -0.14602077541E+04  0.14602077541E+04  0.00000000000E+00 0.  1.
         23    2    1    2    0    0  0.94409184131E+03 -0.33355323088E+03 -0.73864483086E+03  0.12478683338E+04  0.94931710554E+02 0.  0.
    5000000    2    1    2    0    0 -0.94409184131E+03  0.33355323088E+03  0.26254730238E+03  0.11964496459E+04  0.59999458867E+03 0.  0.
         23    2    4    4    0    0 -0.15745269449E+03 -0.14885964058E+03  0.20932276132E+02  0.23820120528E+03  0.96701139705E+02 0.  0.
         23    2    4    4    0    0 -0.78663914682E+03  0.48241287146E+03  0.24161502625E+03  0.95824844057E+03  0.91317726083E+02 0.  0.
          2    1    3    3  502    0  0.41720442342E+03 -0.11193271250E+03 -0.27717808207E+03  0.51324083258E+03  0.00000000000E+00 0. -1.
         -2    1    3    3    0  502  0.52688741789E+03 -0.22162051838E+03 -0.46146674879E+03  0.73462750121E+03  0.00000000000E+00 0.  1.
         15    1    5    5    0    0 -0.16536063248E+03 -0.12918820768E+03  0.34925471942E+02  0.21273617016E+03  0.17770000000E+01 0. -1.
        -15    1    5    5    0    0  0.79079379926E+01 -0.19671432900E+02 -0.13993195809E+02  0.25465035118E+02  0.17770000000E+01 0.  1.
          4    1    6    6  503    0 -0.14115185110E+03  0.77616326164E+02  0.77950939725E+02  0.17895387160E+03  0.00000000000E+00 0. -1.
         -4    1    6    6    0  503 -0.64548729572E+03  0.40479654529E+03  0.16366408652E+03  0.77929456897E+03  0.00000000000E+00 0.  1.
<mgrwt>
<rscale>  0 0.10788414E+04</rscale>
<asrwt>0</asrwt>
<pdfrwt beam="1">  1        1 0.15140157E+00 0.10788414E+04</pdfrwt>
<pdfrwt beam="2">  1       -1 0.22464735E+00 0.10788414E+04</pdfrwt>
<totfact> 0.15884255E+00</totfact>
</mgrwt>
</event>
<event>
12    1  0.7781383E-008  0.4502578E+03  0.7818608E-02  0.1027645E+00
         -1   -1    0    0    0  501 -0.00000000000E+00  0.00000000000E+00  0.16092586246E+03  0.16092586246E+03  0.00000000000E+00 0.  1.
          1   -1    0    0  501    0  0.00000000000E+00 -0.00000000000E+00 -0.23689676538E+04  0.23689676538E+04  0.00000000000E+00 0. -1.
         23    2    1    2    0    0 -0.27017767261E+03  0.23274514755E+03 -0.23426543693E+03  0.43631414709E+03  0.91233006749E+02 0.  0.
    5000000    2    1    2    0    0  0.27017767261E+03 -0.23274514755E+03 -0.19737763544E+04  0.20935793692E+04  0.60009599176E+03 0.  0.
         23    2    4    4    0    0  0.21001199718E+03 -0.33027461280E+03 -0.66729119706E+03  0.77883777884E+03  0.90135371896E+02 0.  0.
         23    2    4    4    0    0  0.60165675434E+02  0.97529465246E+02 -0.13064851574E+04  0.13147415903E+04  0.92250083313E+02 0.  0.
          1    1    3    3  502    0 -0.10536701004E+03  0.64051020570E+02 -0.12769924715E+03  0.17751573948E+03  0.00000000000E+00 0. -1.
         -1    1    3    3    0  502 -0.16481066257E+03  0.16869412698E+03 -0.10656618979E+03  0.25879840761E+03  0.00000000000E+00 0.  1.
         15    1    5    5    0    0  0.16737975488E+03 -0.20254474896E+03 -0.49221068845E+03  0.55795598144E+03  0.17770000000E+01 0.  1.
        -15    1    5    5    0    0  0.42632242299E+02 -0.12772986384E+03 -0.17508050860E+03  0.22088179740E+03  0.17770000000E+01 0. -1.
          1    1    6    6  503    0  0.81661043599E+02  0.62473980233E+02 -0.10445737880E+04  0.10496217999E+04  0.00000000000E+00 0. -1.
         -1    1    6    6    0  503 -0.21495368165E+02  0.35055485013E+02 -0.26191136934E+03  0.26511979042E+03  0.00000000000E+00 0.  1.
<mgrwt>
<rscale>  0 0.45025784E+03</rscale>
<asrwt>0</asrwt>
<pdfrwt beam="1">  1        1 0.36445656E+00 0.45025784E+03</pdfrwt>
<pdfrwt beam="2">  1       -1 0.24757825E-01 0.45025784E+03</pdfrwt>
<totfact> 0.26190340E+01</totfact>
</mgrwt>
</event>
<event>
12    1  0.8277260E-008  0.8911250E+03  0.7818608E-02  0.9436744E-01
          2   -1    0    0  501    0  0.00000000000E+00  0.00000000000E+00  0.18998481208E+04  0.18998481208E+04  0.00000000000E+00 0. -1.
         -2   -1    0    0    0  501 -0.00000000000E+00 -0.00000000000E+00 -0.48284095682E+03  0.48284095682E+03  0.00000000000E+00 0.  1.
         23    2    1    2    0    0 -0.10898723472E+03 -0.85415091107E+03  0.62496038771E+03  0.10679373704E+04  0.91993176854E+02 0.  0.
    5000000    2    1    2    0    0  0.10898723472E+03  0.85415091107E+03  0.79204677627E+03  0.13147517073E+04  0.59981827226E+03 0.  0.
         23    2    4    4    0    0 -0.11007105665E+03  0.31721166330E+03  0.24205253334E+02  0.34827741165E+03  0.89288209370E+02 0.  0.
         23    2    4    4    0    0  0.21905829137E+03  0.53693924777E+03  0.76784152294E+03  0.96647429561E+03  0.90563065967E+02 0.  0.
          3    1    3    3  502    0 -0.35117578054E+02 -0.40616827797E+03  0.34866408781E+03  0.53644436845E+03  0.00000000000E+00 0. -1.
         -3    1    3    3    0  502 -0.73869656663E+02 -0.44798263310E+03  0.27629629990E+03  0.53149300191E+03  0.00000000000E+00 0.  1.
         15    1    5    5    0    0 -0.62833269846E+02  0.12083218237E+03  0.49048627523E+02  0.14476657655E+03  0.17770000000E+01 0.  1.
        -15    1    5    5    0    0 -0.47237786802E+02  0.19637948093E+03 -0.24843374190E+02  0.20351083510E+03  0.17770000000E+01 0. -1.
          3    1    6    6  503    0  0.13104458574E+03  0.25080773632E+03  0.31297484038E+03  0.42193655300E+03  0.00000000000E+00 0. -1.
         -3    1    6    6    0  503  0.88013705626E+02  0.28613151145E+03  0.45486668256E+03  0.54453774261E+03  0.00000000000E+00 0.  1.
<mgrwt>
<rscale>  0 0.89112498E+03</rscale>
<asrwt>0</asrwt>
<pdfrwt beam="1">  1        2 0.29228432E+00 0.89112498E+03</pdfrwt>
<pdfrwt beam="2">  1       -2 0.74283225E-01 0.89112498E+03</pdfrwt>
<totfact> 0.12558948E+01</totfact>
</mgrwt>
</event>
<event>
12    1  0.7781383E-008  0.6224718E+03  0.7818608E-02  0.9859851E-01
         -2   -1    0    0    0  501 -0.00000000000E+00  0.00000000000E+00  0.13783928659E+03  0.13783928659E+03  0.00000000000E+00 0. -1.
          2   -1    0    0  501    0  0.00000000000E+00 -0.00000000000E+00 -0.29869590099E+04  0.29869590099E+04  0.00000000000E+00 0.  1.
         23    2    1    2    0    0 -0.39185128120E+03  0.29392009387E+03 -0.91807608774E+03  0.10442055676E+04  0.86977677458E+02 0.  0.
    5000000    2    1    2    0    0  0.39185128120E+03 -0.29392009387E+03 -0.19310436356E+04  0.20805927289E+04  0.60000011071E+03 0.  0.
         23    2    4    4    0    0  0.93579681618E+02  0.16265074739E+03 -0.70810684429E+03  0.73847073303E+03  0.93334335457E+02 0.  0.
         23    2    4    4    0    0  0.29827159958E+03 -0.45657084126E+03 -0.12229367913E+04  0.13421219959E+04  0.91072367256E+02 0.  0.
          3    1    3    3  502    0  0.29643763802E+01  0.11927547524E+02 -0.24362919246E+02  0.27287465097E+02  0.00000000000E+00 0. -1.
         -3    1    3    3    0  502 -0.39481565758E+03  0.28199254634E+03 -0.89371316849E+03  0.10169181025E+04  0.00000000000E+00 0.  1.
         15    1    5    5    0    0  0.41439905561E+02  0.14250076549E+02 -0.82992683360E+02  0.93868384852E+02  0.17770000000E+01 0. -1.
        -15    1    5    5    0    0  0.52139776058E+02  0.14840067084E+03 -0.62511416093E+03  0.64460234818E+03  0.17770000000E+01 0.  1.
          3    1    6    6  503    0  0.52940390280E+02 -0.10519815769E+03 -0.18635756311E+03  0.22045062630E+03  0.00000000000E+00 0. -1.
         -3    1    6    6    0  503  0.24533120930E+03 -0.35137268357E+03 -0.10365792282E+04  0.11216713696E+04  0.00000000000E+00 0.  1.
<mgrwt>
<rscale>  0 0.62247185E+03</rscale>
<asrwt>0</asrwt>
<pdfrwt beam="1">  1        2 0.45953211E+00 0.62247185E+03</pdfrwt>
<pdfrwt beam="2">  1       -2 0.21206046E-01 0.62247185E+03</pdfrwt>
<totfact> 0.36842524E+01</totfact>
</mgrwt>
</event>
<event>
12    1  0.7806440E-008  0.1065980E+04  0.7818608E-02  0.9238999E-01
         -1   -1    0    0    0  501 -0.00000000000E+00  0.00000000000E+00  0.13299269687E+04  0.13299269687E+04  0.00000000000E+00 0.  1.
          1   -1    0    0  501    0  0.00000000000E+00 -0.00000000000E+00 -0.13571792101E+04  0.13571792101E+04  0.00000000000E+00 0. -1.
         23    2    1    2    0    0 -0.65748028355E+03 -0.74577684591E+03 -0.81101358810E+03  0.12862375464E+04  0.90556934940E+02 0.  0.
    5000000    2    1    2    0    0  0.65748028355E+03  0.74577684591E+03  0.78376134670E+03  0.14008686324E+04  0.59973965148E+03 0.  0.
         23    2    4    4    0    0 -0.54960983625E+02  0.51788630797E+01  0.33904690800E+01  0.10730756216E+03  0.91955898523E+02 0.  0.
         23    2    4    4    0    0  0.71244126718E+03  0.74059798283E+03  0.78037087762E+03  0.12935610703E+04  0.90904370009E+02 0.  0.
          4    1    3    3  502    0 -0.25310489883E+03 -0.32012768678E+03 -0.38303685255E+03  0.55969728968E+03  0.00000000000E+00 0.  1.
         -4    1    3    3    0  502 -0.40437538472E+03 -0.42564915913E+03 -0.42797673555E+03  0.72654025670E+03  0.00000000000E+00 0. -1.
         15    1    5    5    0    0  0.17604161661E+02 -0.22432076214E+02  0.74988461837E+01  0.29538025901E+02  0.17770000000E+01 0. -1.
        -15    1    5    5    0    0 -0.72565145287E+02  0.27610939294E+02 -0.41083771037E+01  0.77769536263E+02  0.17770000000E+01 0.  1.
          3    1    6    6  503    0  0.29610538798E+03  0.36306947533E+03  0.38508218481E+03  0.60645373588E+03  0.00000000000E+00 0. -1.
         -3    1    6    6    0  503  0.41633587920E+03  0.37752850750E+03  0.39528869281E+03  0.68710733437E+03  0.00000000000E+00 0.  1.
<mgrwt>
<rscale>  0 0.10659805E+04</rscale>
<asrwt>0</asrwt>
<pdfrwt beam="1">  1        1 0.20879680E+00 0.10659805E+04</pdfrwt>
<pdfrwt beam="2">  1       -1 0.20460415E+00 0.10659805E+04</pdfrwt>
<totfact> 0.11489111E+00</totfact>
</mgrwt>
</event>
<event>
12    1  0.7781383E-008  0.6613668E+03  0.7818608E-02  0.9785681E-01
          2   -1    0    0  501    0  0.00000000000E+00  0.00000000000E+00  0.38479393283E+03  0.38479393283E+03  0.00000000000E+00 0. -1.
         -2   -1    0    0    0  501 -0.00000000000E+00 -0.00000000000E+00 -0.19202933591E+04  0.19202933591E+04  0.00000000000E+00 0.  1.
         23    2    1    2    0    0  0.92696623510E+01  0.52780200686E+03  0.41073997431E+02  0.53753580739E+03  0.92718853937E+02 0.  0.
    5000000    2    1    2    0    0 -0.92696623510E+01 -0.52780200686E+03 -0.15765734237E+04  0.17675514845E+04  0.59999467084E+03 0.  0.
         23    2    4    4    0    0  0.22303030747E+03 -0.32806824558E+02 -0.54112030974E+03  0.59311945401E+03  0.90336544801E+02 0.  0.
         23    2    4    4    0    0 -0.23229996982E+03 -0.49499518231E+03 -0.10354531139E+04  0.11744320305E+04  0.90243762134E+02 0.  0.
          1    1    3    3  502    0 -0.18115105217E+02  0.38168501242E+03  0.62978116863E+02  0.38726973668E+03  0.00000000000E+00 0. -1.
         -1    1    3    3    0  502  0.27384767568E+02  0.14611699444E+03 -0.21904119433E+02  0.15026607072E+03  0.00000000000E+00 0.  1.
         15    1    5    5    0    0  0.39143422087E+02  0.28038007650E+02 -0.13034943407E+03  0.13896931336E+03  0.17770000000E+01 0.  1.
        -15    1    5    5    0    0  0.18388688538E+03 -0.60844832208E+02 -0.41077087567E+03  0.45415014064E+03  0.17770000000E+01 0. -1.
          1    1    6    6  503    0 -0.22061116471E+03 -0.48998494836E+03 -0.10272199413E+04  0.11592822536E+04  0.00000000000E+00 0. -1.
         -1    1    6    6    0  503 -0.11688805114E+02 -0.50102339483E+01 -0.82331726051E+01  0.15149776908E+02  0.00000000000E+00 0.  1.
<mgrwt>
<rscale>  0 0.66136681E+03</rscale>
<asrwt>0</asrwt>
<pdfrwt beam="1">  1        2 0.59199065E-01 0.66136681E+03</pdfrwt>
<pdfrwt beam="2">  1       -2 0.29542975E+00 0.66136681E+03</pdfrwt>
<totfact> 0.29669757E+00</totfact>
</mgrwt>
</event>
<event>
12    1  0.7781383E-008  0.1642698E+04  0.7818608E-02  0.8794738E-01
         -2   -1    0    0    0  501 -0.00000000000E+00  0.00000000000E+00  0.15910364873E+04  0.15910364873E+04  0.00000000000E+00 0.  1.
          2   -1    0    0  501    0  0.00000000000E+00 -0.00000000000E+00 -0.18955330015E+04  0.18955330015E+04  0.00000000000E+00 0. -1.
         23    2    1    2    0    0 -0.22887208960E+03  0.16228692271E+04  0.23828794213E+03  0.16587905365E+04  0.93369903194E+02 0.  0.
    5000000    2    1    2    0    0  0.22887208960E+03 -0.16228692271E+04 -0.54278445633E+03  0.18277789523E+04  0.60006163921E+03 0.  0.
         23    2    4    4    0    0  0.10330511453E+03 -0.69983201329E+03 -0.53582429426E+03  0.89203736270E+03  0.90477558632E+02 0.  0.
         23    2    4    4    0    0  0.12556697508E+03 -0.92303721381E+03 -0.69601620686E+01  0.93574158963E+03  0.88312600413E+02 0.  0.
          4    1    3    3  502    0 -0.16693992718E+03  0.89366128680E+03  0.15489783132E+03  0.92222165066E+03  0.00000000000E+00 0. -1.
         -4    1    3    3    0  502 -0.61932162423E+02  0.72920794031E+03  0.83390110811E+02  0.73656888580E+03  0.00000000000E+00 0.  1.
         15    1    5    5    0    0  0.46031466752E+00 -0.28126042054E+03 -0.23346444125E+03  0.36553582466E+03  0.17770000000E+01 0.  1.
        -15    1    5    5    0    0  0.10284479986E+03 -0.41857159276E+03 -0.30235985301E+03  0.52650153804E+03  0.17770000000E+01 0. -1.
          4    1    6    6  503    0  0.11518007079E+03 -0.74903722465E+03 -0.37537514259E+02  0.75877024032E+03  0.00000000000E+00 0. -1.
         -4    1    6    6    0  503  0.10386904291E+02 -0.17399998916E+03  0.30577352190E+02  0.17697134931E+03  0.00000000000E+00 0.  1.
<mgrwt>
<rscale>  0 0.16426977E+04</rscale>
<asrwt>0</asrwt>
<pdfrwt beam="1">  1        2 0.29162046E+00 0.16426977E+04</pdfrwt>
<pdfrwt beam="2">  1       -2 0.24477484E+00 0.16426977E+04</pdfrwt>
<totfact> 0.48866831E-01</totfact>
</mgrwt>
</event>
<event>
12    1  0.7781383E-008  0.1166886E+04  0.7818608E-02  0.9142345E-01
          2   -1    0    0  501    0  0.00000000000E+00  0.00000000000E+00  0.30055511356E+04  0.30055511356E+04  0.00000000000E+00 0. -1.
         -2   -1    0    0    0  501 -0.00000000000E+00 -0.00000000000E+00 -0.49405185228E+03  0.49405185228E+03  0.00000000000E+00 0.  1.
         23    2    1    2    0    0  0.30869084842E+03 -0.10600426900E+04  0.16046839979E+04  0.19499276684E+04  0.90700796332E+02 0.  0.
    5000000    2    1    2    0    0 -0.30869084842E+03  0.10600426900E+04  0.90681528539E+03  0.15496753194E+04  0.60016588474E+03 0.  0.
         23    2    4    4    0    0 -0.45507377886E+03  0.89781185608E+03  0.80663847359E+03  0.12930859509E+04  0.90815066580E+02 0.  0.
         23    2    4    4    0    0  0.14638293044E+03  0.16223083395E+03  0.10017681180E+03  0.25658936848E+03  0.89754691167E+02 0.  0.
          3    1    3    3  502    0  0.43590872898E+02 -0.16328701473E+03  0.19203918333E+03  0.25581606931E+03  0.00000000000E+00 0. -1.
         -3    1    3    3    0  502  0.26509997552E+03 -0.89675567529E+03  0.14126448146E+04  0.16941115991E+04  0.00000000000E+00 0.  1.
         15    1    5    5    0    0 -0.93816942110E+02  0.23448641851E+03  0.16180441768E+03  0.29994887298E+03  0.17770000000E+01 0. -1.
        -15    1    5    5    0    0 -0.36125683675E+03  0.66332543757E+03  0.64483405591E+03  0.99313707796E+03  0.17770000000E+01 0.  1.
          3    1    6    6  503    0  0.12299041520E+03  0.11197389537E+03  0.33131875252E+02  0.16959515510E+03  0.00000000000E+00 0. -1.
         -3    1    6    6    0  503  0.23392515239E+02  0.50256938578E+02  0.67044936553E+02  0.86994213381E+02  0.00000000000E+00 0.  1.
<mgrwt>
<rscale>  0 0.11668861E+04</rscale>
<asrwt>0</asrwt>
<pdfrwt beam="1">  1        2 0.46239247E+00 0.11668861E+04</pdfrwt>
<pdfrwt beam="2">  1       -2 0.76007979E-01 0.11668861E+04</pdfrwt>
<totfact> 0.26731100E+00</totfact>
</mgrwt>
</event>
<event>
12    1  0.7781383E-008  0.6316456E+03  0.7818608E-02  0.9841843E-01
         -2   -1    0    0    0  501 -0.00000000000E+00  0.00000000000E+00  0.12042487335E+04  0.12042487335E+04  0.00000000000E+00 0. -1.
          2   -1    0    0  501    0  0.00000000000E+00 -0.00000000000E+00 -0.87260952106E+03  0.87260952106E+03  0.00000000000E+00 0.  1.
         23    2    1    2    0    0  0.49561982923E+03  0.17629764498E+02  0.95506050814E+03  0.10799968450E+04  0.91119632242E+02 0.  0.
    5000000    2    1    2    0    0 -0.49561982923E+03 -0.17629764498E+02 -0.62342129567E+03  0.99686140954E+03  0.59927350535E+03 0.  0.
         23    2    4    4    0    0 -0.59130845791E+03  0.84418509732E+02 -0.43320538803E+03  0.74351555076E+03  0.91522067419E+02 0.  0.
         23    2    4    4    0    0  0.95688628676E+02 -0.10204827423E+03 -0.19021590763E+03  0.25334585878E+03  0.91825207388E+02 0.  0.
          1    1    3    3  502    0  0.30490380312E+03 -0.22580235995E+02  0.64446826673E+03  0.71331307505E+03  0.00000000000E+00 0. -1.
         -1    1    3    3    0  502  0.19071602611E+03  0.40210000494E+02  0.31059224141E+03  0.36668377000E+03  0.00000000000E+00 0.  1.
         15    1    5    5    0    0 -0.14639249647E+03  0.58639870619E+01 -0.15317719426E+03  0.21197065820E+03  0.17770000000E+01 0. -1.
        -15    1    5    5    0    0 -0.44491596144E+03  0.78554522670E+02 -0.28002819378E+03  0.53154489256E+03  0.17770000000E+01 0.  1.
          1    1    6    6  503    0 -0.10505805811E+02 -0.39940489177E+02 -0.28604285005E+02  0.50237632827E+02  0.00000000000E+00 0. -1.
         -1    1    6    6    0  503  0.10619443449E+03 -0.62107785053E+02 -0.16161162263E+03  0.20310822595E+03  0.00000000000E+00 0.  1.
<mgrwt>
<rscale>  0 0.63164565E+03</rscale>
<asrwt>0</asrwt>
<pdfrwt beam="1">  1        2 0.13424762E+00 0.63164565E+03</pdfrwt>
<pdfrwt beam="2">  1       -2 0.18526904E+00 0.63164565E+03</pdfrwt>
<totfact> 0.53026502E+00</totfact>
</mgrwt>
</event>
<event>
12    1  0.7781383E-008  0.4592246E+03  0.7818608E-02  0.1025006E+00
          1   -1    0    0  501    0  0.00000000000E+00  0.00000000000E+00  0.11359242166E+04  0.11359242166E+04  0.00000000000E+00 0. -1.
         -1   -1    0    0    0  501 -0.00000000000E+00 -0.00000000000E+00 -0.24817014133E+03  0.24817014133E+03  0.00000000000E+00 0.  1.
         23    2    1    2    0    0 -0.20720596449E+03  0.18021903898E+03  0.13893720548E+02  0.28998273611E+03  0.92107209523E+02 0.  0.
    5000000    2    1    2    0    0  0.20720596449E+03 -0.18021903898E+03  0.87386035477E+03  0.10941116219E+04  0.59836034940E+03 0.  0.
         23    2    4    4    0    0  0.25576830285E+03  0.14130250814E+03  0.53756883981E+03  0.61838468665E+03  0.89641171347E+02 0.  0.
         23    2    4    4    0    0 -0.48562338368E+02 -0.32152154712E+03  0.33629151496E+03  0.47572693521E+03  0.86543213980E+02 0.  0.
          1    1    3    3  502    0 -0.11189540603E+03  0.12408360621E+03 -0.32183655112E+02  0.17015613676E+03  0.00000000000E+00 0. -1.
         -1    1    3    3    0  502 -0.95310558457E+02  0.56135432762E+02  0.46077375660E+02  0.11982659935E+03  0.00000000000E+00 0.  1.
         15    1    5    5    0    0  0.13608612492E+03  0.12476460204E+03  0.31442701502E+03  0.36462740547E+03  0.17770000000E+01 0.  1.
        -15    1    5    5    0    0  0.11968217794E+03  0.16537906106E+02  0.22314182479E+03  0.25375728118E+03  0.17770000000E+01 0. -1.
          1    1    6    6  503    0  0.21976136379E+02 -0.11417459707E+03  0.13610277349E+03  0.17900489976E+03  0.00000000000E+00 0. -1.
         -1    1    6    6    0  503 -0.70538474747E+02 -0.20734695005E+03  0.20018874147E+03  0.29672203546E+03  0.00000000000E+00 0.  1.
<mgrwt>
<rscale>  0 0.45922465E+03</rscale>
<asrwt>0</asrwt>
<pdfrwt beam="1">  1        1 0.17475757E+00 0.45922465E+03</pdfrwt>
<pdfrwt beam="2">  1       -1 0.38180023E-01 0.45922465E+03</pdfrwt>
<totfact> 0.83415590E+01</totfact>
</mgrwt>
</event>
<event>
12    1  0.7781383E-008  0.5792761E+03  0.7818608E-02  0.9949359E-01
         -2   -1    0    0    0  501 -0.00000000000E+00  0.00000000000E+00  0.15935302990E+03  0.15935302990E+03  0.00000000000E+00 0.  1.
          2   -1    0    0  501    0  0.00000000000E+00 -0.00000000000E+00 -0.30830502374E+04  0.30830502374E+04  0.00000000000E+00 0. -1.
         23    2    1    2    0    0 -0.27550663715E+03  0.40770104869E+03 -0.54294205038E+03  0.73840027867E+03  0.91240611842E+02 0.  0.
    5000000    2    1    2    0    0  0.27550663715E+03 -0.40770104869E+03 -0.23807551572E+04  0.25040029887E+04  0.59992649277E+03 0.  0.
         23    2    4    4    0    0  0.34421771806E+03 -0.44080592483E+03 -0.22794878742E+04  0.23489004518E+04  0.92047069024E+02 0.  0.
         23    2    4    4    0    0 -0.68711080918E+02  0.33104876140E+02 -0.10126728291E+03  0.15510253685E+03  0.89356526817E+02 0.  0.
          3    1    3    3  502    0 -0.19973849234E+03  0.29074325459E+03 -0.44604616799E+03  0.56866887500E+03  0.00000000000E+00 0. -1.
         -3    1    3    3    0  502 -0.75768144802E+02  0.11695779410E+03 -0.96895882395E+02  0.16973140367E+03  0.00000000000E+00 0.  1.
         15    1    5    5    0    0  0.12157789791E+03 -0.98596835779E+02 -0.72367395540E+03  0.74041182644E+03  0.17770000000E+01 0.  1.
        -15    1    5    5    0    0  0.22263982015E+03 -0.34220908905E+03 -0.15558139189E+04  0.16084886254E+04  0.17770000000E+01 0. -1.
          1    1    6    6  503    0 -0.52706232153E+02 -0.11770542064E+02 -0.14181138249E+02  0.55835447972E+02  0.00000000000E+00 0. -1.
         -1    1    6    6    0  503 -0.16004848765E+02  0.44875418204E+02 -0.87086144657E+02  0.99267088877E+02  0.00000000000E+00 0.  1.
<mgrwt>
<rscale>  0 0.57927614E+03</rscale>
<asrwt>0</asrwt>
<pdfrwt beam="1">  1        2 0.47431547E+00 0.57927614E+03</pdfrwt>
<pdfrwt beam="2">  1       -2 0.24515848E-01 0.57927614E+03</pdfrwt>
<totfact> 0.25089993E+01</totfact>
</mgrwt>
</event>
<event>
12    1  0.7781383E-008  0.4001460E+03  0.7818608E-02  0.1043729E+00
         -1   -1    0    0    0  501 -0.00000000000E+00  0.00000000000E+00  0.12463833093E+04  0.12463833093E+04  0.00000000000E+00 0.  1.
          1   -1    0    0  501    0  0.00000000000E+00 -0.00000000000E+00 -0.23480502644E+03  0.23480502644E+03  0.00000000000E+00 0. -1.
         23    2    1    2    0    0 -0.29503641885E+03 -0.98010143531E+02  0.62116798628E+03  0.70075255117E+03  0.92476992303E+02 0.  0.
    5000000    2    1    2    0    0  0.29503641885E+03  0.98010143531E+02  0.39041029661E+03  0.78043578460E+03  0.60000611456E+03 0.  0.
         23    2    4    4    0    0 -0.20904326786E+02 -0.81441334901E+02 -0.10574160414E+03  0.15856727217E+03  0.83021750451E+02 0.  0.
         23    2    4    4    0    0  0.31594074564E+03  0.17945147843E+03  0.49615190075E+03  0.62186851243E+03  0.92370721941E+02 0.  0.
          4    1    3    3  502    0 -0.15479880458E+03 -0.88961058902E+02  0.40893274846E+03  0.44620929245E+03  0.00000000000E+00 0. -1.
         -4    1    3    3    0  502 -0.14023761427E+03 -0.90490846294E+01  0.21223523782E+03  0.25454325872E+03  0.00000000000E+00 0.  1.
         15    1    5    5    0    0 -0.37585693015E+02 -0.90965717832E+02 -0.83137169103E+02  0.12885027263E+03  0.17770000000E+01 0.  1.
        -15    1    5    5    0    0  0.16681366229E+02  0.95243829308E+01 -0.22604435039E+02  0.29716999544E+02  0.17770000000E+01 0. -1.
          3    1    6    6  503    0  0.49213553199E+02  0.23765240718E+02  0.29031606683E+02  0.61883718953E+02  0.00000000000E+00 0. -1.
         -3    1    6    6    0  503  0.26672719244E+03  0.15568623771E+03  0.46712029406E+03  0.55998479348E+03  0.00000000000E+00 0.  1.
<mgrwt>
<rscale>  0 0.40014601E+03</rscale>
<asrwt>0</asrwt>
<pdfrwt beam="1">  1        1 0.36123851E-01 0.40014601E+03</pdfrwt>
<pdfrwt beam="2">  1       -1 0.19175128E+00 0.40014601E+03</pdfrwt>
<totfact> 0.22274094E+01</totfact>
</mgrwt>
</event>
<event>
12    1  0.7781383E-008  0.9274125E+03  0.7818608E-02  0.9391949E-01
         -1   -1    0    0    0  501 -0.00000000000E+00  0.00000000000E+00  0.63814351618E+03  0.63814351618E+03  0.00000000000E+00 0.  1.
          1   -1    0    0  501    0  0.00000000000E+00 -0.00000000000E+00 -0.13974077500E+04  0.13974077500E+04  0.00000000000E+00 0. -1.
         23    2    1    2    0    0 -0.77672257607E+03 -0.32820839940E+03 -0.42253168665E+03  0.94723583317E+03  0.87772340846E+02 0.  0.
    5000000    2    1    2    0    0  0.77672257607E+03  0.32820839940E+03 -0.33673254722E+03  0.10883154330E+04  0.60001913289E+03 0.  0.
         23    2    4    4    0    0 -0.80719506696E+01  0.19148849304E+03  0.12874919674E+02  0.21364430225E+03  0.93515372918E+02 0.  0.
         23    2    4    4    0    0  0.78479452674E+03  0.13671990635E+03 -0.34960746689E+03  0.87467113079E+03  0.90716173509E+02 0.  0.
          2    1    3    3  502    0 -0.15077535755E+03 -0.28280734302E+02 -0.67255574569E+02  0.16750021101E+03  0.00000000000E+00 0. -1.
         -2    1    3    3    0  502 -0.62594721852E+03 -0.29992766509E+03 -0.35527611208E+03  0.77973562216E+03  0.00000000000E+00 0.  1.
         15    1    5    5    0    0 -0.19737773617E+02  0.16031441399E+01 -0.95838039341E+01  0.22071628969E+02  0.17770000000E+01 0.  1.
        -15    1    5    5    0    0  0.11665822948E+02  0.18988534890E+03  0.22458723608E+02  0.19157267328E+03  0.17770000000E+01 0. -1.
          1    1    6    6  503    0  0.31014616712E+03  0.69109066231E+02 -0.18542805154E+03  0.36789981016E+03  0.00000000000E+00 0. -1.
         -1    1    6    6    0  503  0.47464835962E+03  0.67610840121E+02 -0.16417941535E+03  0.50677132063E+03  0.00000000000E+00 0.  1.
<mgrwt>
<rscale>  0 0.92741245E+03</rscale>
<asrwt>0</asrwt>
<pdfrwt beam="1">  1        1 0.21498580E+00 0.92741245E+03</pdfrwt>
<pdfrwt beam="2">  1       -1 0.98175927E-01 0.92741245E+03</pdfrwt>
<totfact> 0.77717871E+00</totfact>
</mgrwt>
</event>
<event>
12    1  0.7781383E-008  0.6773476E+03  0.7818608E-02  0.9756775E-01
          1   -1    0    0  501    0  0.00000000000E+00  0.00000000000E+00  0.25273590460E+04  0.25273590460E+04  0.00000000000E+00 0.  1.
         -1   -1    0    0    0  501 -0.00000000000E+00 -0.00000000000E+00 -0.29707298227E+03  0.29707298227E+03  0.00000000000E+00 0. -1.
         23    2    1    2    0    0 -0.29148639279E+03 -0.53115893437E+03  0.23835242336E+03  0.65768582404E+03  0.92976527594E+02 0.  0.
    5000000    2    1    2    0    0  0.29148639279E+03  0.53115893437E+03  0.19919336403E+04  0.21667462042E+04  0.59991278961E+03 0.  0.
         23    2    4    4    0    0  0.26015618187E+03  0.58029295957E+03  0.19384768161E+04  0.20422511825E+04  0.93147022197E+02 0.  0.
         23    2    4    4    0    0  0.31330210916E+02 -0.49134025195E+02  0.53456824213E+02  0.12449502173E+03  0.96154271003E+02 0.  0.
          2    1    3    3  502    0 -0.17148920354E+03 -0.23211957436E+03  0.85112332665E+02  0.30088561432E+03  0.00000000000E+00 0. -1.
         -2    1    3    3    0  502 -0.11999718924E+03 -0.29903936001E+03  0.15324009070E+03  0.35680020973E+03  0.00000000000E+00 0.  1.
         15    1    5    5    0    0  0.15998014747E+03  0.29788806714E+03  0.90066448398E+03  0.96204501899E+03  0.17770000000E+01 0.  1.
        -15    1    5    5    0    0  0.10017603440E+03  0.28240489242E+03  0.10378123321E+04  0.10802061635E+04  0.17770000000E+01 0. -1.
          2    1    6    6  503    0  0.30524119793E+02 -0.74607749004E+02  0.57050751443E+02  0.98756398987E+02  0.00000000000E+00 0. -1.
         -2    1    6    6    0  503  0.80609112287E+00  0.25473723810E+02 -0.35939272305E+01  0.25738622740E+02  0.00000000000E+00 0.  1.
<mgrwt>
<rscale>  0 0.67734763E+03</rscale>
<asrwt>0</asrwt>
<pdfrwt beam="1">  1        1 0.38882445E+00 0.67734763E+03</pdfrwt>
<pdfrwt beam="2">  1       -1 0.45703537E-01 0.67734763E+03</pdfrwt>
<totfact> 0.66100534E+00</totfact>
</mgrwt>
</event>
<event>
12    1  0.7781383E-008  0.1623931E+04  0.7818608E-02  0.8805979E-01
         -2   -1    0    0    0  501 -0.00000000000E+00  0.00000000000E+00  0.11397998735E+04  0.11397998735E+04  0.00000000000E+00 0. -1.
          2   -1    0    0  501    0  0.00000000000E+00 -0.00000000000E+00 -0.24108609494E+04  0.24108609494E+04  0.00000000000E+00 0.  1.
         23    2    1    2    0    0  0.75630102924E+03  0.14121207657E+04 -0.63370175485E+03  0.17251760566E+04  0.92618619105E+02 0.  0.
    5000000    2    1    2    0    0 -0.75630102924E+03 -0.14121207657E+04 -0.63735932103E+03  0.18254847662E+04  0.60007618181E+03 0.  0.
         23    2    4    4    0    0 -0.39118154746E+03 -0.10775708282E+04 -0.21839712532E+03  0.11706794786E+04  0.92796790974E+02 0.  0.
         23    2    4    4    0    0 -0.36511948178E+03 -0.33454993749E+03 -0.41896219571E+03  0.65480528764E+03  0.89469249687E+02 0.  0.
          1    1    3    3  502    0  0.54737742834E+03  0.10834448856E+04 -0.50870080031E+03  0.13161502093E+04  0.00000000000E+00 0. -1.
         -1    1    3    3    0  502  0.20892360090E+03  0.32867588008E+03 -0.12500095453E+03  0.40902584734E+03  0.00000000000E+00 0.  1.
         15    1    5    5    0    0 -0.24123583699E+03 -0.63007616869E+03 -0.17327349336E+03  0.69657560151E+03  0.17770000000E+01 0. -1.
        -15    1    5    5    0    0 -0.14994571047E+03 -0.44749465951E+03 -0.45123631964E+02  0.47410387709E+03  0.17770000000E+01 0.  1.
          3    1    6    6  503    0 -0.15752219487E+03 -0.17937288781E+03 -0.15359152259E+03  0.28386304897E+03  0.00000000000E+00 0. -1.
         -3    1    6    6    0  503 -0.20759728692E+03 -0.15517704968E+03 -0.26537067312E+03  0.37094223868E+03  0.00000000000E+00 0.  1.
<mgrwt>
<rscale>  0 0.16239314E+04</rscale>
<asrwt>0</asrwt>
<pdfrwt beam="1">  1        2 0.37090168E+00 0.16239314E+04</pdfrwt>
<pdfrwt beam="2">  1       -2 0.17535383E+00 0.16239314E+04</pdfrwt>
<totfact> 0.71196603E-01</totfact>
</mgrwt>
</event>
<event>
12    1  0.7781383E-008  0.1252198E+04  0.7818608E-02  0.9068356E-01
         -2   -1    0    0    0  501 -0.00000000000E+00  0.00000000000E+00  0.11531532621E+04  0.11531532621E+04  0.00000000000E+00 0. -1.
          2   -1    0    0  501    0  0.00000000000E+00 -0.00000000000E+00 -0.16915569700E+04  0.16915569700E+04  0.00000000000E+00 0.  1.
         23    2    1    2    0    0  0.12440855690E+04 -0.26217192269E+02 -0.73699887867E+03  0.14490947141E+04  0.90949981458E+02 0.  0.
    5000000    2    1    2    0    0 -0.12440855690E+04  0.26217192269E+02  0.19859517082E+03  0.13956155180E+04  0.59988864630E+03 0.  0.
         23    2    4    4    0    0 -0.81721837861E+03  0.46904615796E+02  0.39861281269E+03  0.91515978706E+03  0.92624727215E+02 0.  0.
         23    2    4    4    0    0 -0.42686719043E+03 -0.20687423527E+02 -0.20001764187E+03  0.48045573094E+03  0.90482509796E+02 0.  0.
          1    1    3    3  502    0  0.52640939794E+03 -0.53137684693E+02 -0.33115368034E+03  0.62417403645E+03  0.00000000000E+00 0. -1.
         -1    1    3    3    0  502  0.71767617110E+03  0.26920492424E+02 -0.40584519833E+03  0.82492067769E+03  0.00000000000E+00 0.  1.
         15    1    5    5    0    0 -0.41280371347E+02  0.15445059791E+02  0.40905831042E+02  0.60158654180E+02  0.17770000000E+01 0.  1.
        -15    1    5    5    0    0 -0.77593800726E+03  0.31459556005E+02  0.35770698165E+03  0.85500113288E+03  0.17770000000E+01 0. -1.
          2    1    6    6  503    0 -0.37851370438E+03 -0.46954376643E+02 -0.16783637930E+03  0.41670899691E+03  0.00000000000E+00 0. -1.
         -2    1    6    6    0  503 -0.48353486048E+02  0.26266953116E+02 -0.32181262571E+02  0.63746734031E+02  0.00000000000E+00 0.  1.
<mgrwt>
<rscale>  0 0.12521981E+04</rscale>
<asrwt>0</asrwt>
<pdfrwt beam="1">  1        2 0.26023953E+00 0.12521981E+04</pdfrwt>
<pdfrwt beam="2">  1       -2 0.17740820E+00 0.12521981E+04</pdfrwt>
<totfact> 0.18083639E+00</totfact>
</mgrwt>
</event>
<event>
12    1  0.7781383E-008  0.1313844E+04  0.7818608E-02  0.9018658E-01
          2   -1    0    0  501    0  0.00000000000E+00  0.00000000000E+00  0.11729579062E+04  0.11729579062E+04  0.00000000000E+00 0. -1.
         -2   -1    0    0    0  501 -0.00000000000E+00 -0.00000000000E+00 -0.15685741154E+04  0.15685741154E+04  0.00000000000E+00 0.  1.
         23    2    1    2    0    0 -0.79831315844E+02  0.12756913419E+04 -0.35354525381E+03  0.13288334739E+04  0.83920890493E+02 0.  0.
    5000000    2    1    2    0    0  0.79831315844E+02 -0.12756913419E+04 -0.42070955352E+02  0.14126985477E+04  0.60015479886E+03 0.  0.
         23    2    4    4    0    0  0.23958043302E+03 -0.81693464284E+03  0.17376362615E+03  0.87374608903E+03  0.91964317858E+02 0.  0.
         23    2    4    4    0    0 -0.15974911718E+03 -0.45875669911E+03 -0.21583458150E+03  0.53895245871E+03  0.88925231333E+02 0.  0.
          3    1    3    3  502    0 -0.88937295159E+02  0.10806278333E+04 -0.27711627925E+03  0.11191334991E+04  0.00000000000E+00 0. -1.
         -3    1    3    3    0  502  0.91059793156E+01  0.19506350860E+03 -0.76428974555E+02  0.20969997473E+03  0.00000000000E+00 0.  1.
         15    1    5    5    0    0  0.57235315685E+02 -0.31904513213E+03  0.94378441081E+02  0.33760350349E+03  0.17770000000E+01 0. -1.
        -15    1    5    5    0    0  0.18234511734E+03 -0.49788951071E+03  0.79385185066E+02  0.53614258554E+03  0.17770000000E+01 0.  1.
          4    1    6    6  503    0 -0.15598079369E+03 -0.33067258095E+03 -0.15522270454E+03  0.39720077013E+03  0.00000000000E+00 0. -1.
         -4    1    6    6    0  503 -0.37683234895E+01 -0.12808411816E+03 -0.60611876961E+02  0.14175168858E+03  0.00000000000E+00 0.  1.
<mgrwt>
<rscale>  0 0.13138440E+04</rscale>
<asrwt>0</asrwt>
<pdfrwt beam="1">  1        2 0.18045506E+00 0.13138440E+04</pdfrwt>
<pdfrwt beam="2">  1       -2 0.24131909E+00 0.13138440E+04</pdfrwt>
<totfact> 0.13736049E+00</totfact>
</mgrwt>
</event>
<event>
12    1  0.7781383E-008  0.1127843E+04  0.7818608E-02  0.9178471E-01
         -1   -1    0    0    0  501 -0.00000000000E+00  0.00000000000E+00  0.19403521880E+04  0.19403521880E+04  0.00000000000E+00 0.  1.
          1   -1    0    0  501    0  0.00000000000E+00 -0.00000000000E+00 -0.11474572530E+04  0.11474572530E+04  0.00000000000E+00 0. -1.
         23    2    1    2    0    0  0.32625493785E+03  0.10048569849E+04 -0.61653746206E+03  0.12266198950E+04  0.91093798831E+02 0.  0.
    5000000    2    1    2    0    0 -0.32625493785E+03 -0.10048569849E+04  0.14094323970E+04  0.18611895460E+04  0.60112145178E+03 0.  0.
         23    2    4    4    0    0 -0.48523136777E+03 -0.73907394579E+03  0.11049013276E+04  0.14173788963E+04  0.80474928898E+02 0.  0.
         23    2    4    4    0    0  0.15897642992E+03 -0.26578303909E+03  0.30453106938E+03  0.44381064971E+03  0.91184381559E+02 0.  0.
          3    1    3    3  502    0  0.20212979226E+03  0.51583713758E+03 -0.28634894486E+03  0.62365064231E+03  0.00000000000E+00 0. -1.
         -3    1    3    3    0  502  0.12412514560E+03  0.48901984730E+03 -0.33018851719E+03  0.60296925270E+03  0.00000000000E+00 0.  1.
         15    1    5    5    0    0 -0.41991580332E+03 -0.67572768551E+03  0.96788523725E+03  0.12528935218E+04  0.17770000000E+01 0.  1.
        -15    1    5    5    0    0 -0.65315564454E+02 -0.63346260286E+02  0.13701609040E+03  0.16448537445E+03  0.17770000000E+01 0. -1.
          1    1    6    6  503    0  0.83993113012E+02 -0.11806970442E+03  0.82325228449E+02  0.16665155677E+03  0.00000000000E+00 0. -1.
         -1    1    6    6    0  503  0.74983316905E+02 -0.14771333466E+03  0.22220584093E+03  0.27715909294E+03  0.00000000000E+00 0.  1.
<mgrwt>
<rscale>  0 0.11278434E+04</rscale>
<asrwt>0</asrwt>
<pdfrwt beam="1">  1        1 0.17653189E+00 0.11278434E+04</pdfrwt>
<pdfrwt beam="2">  1       -1 0.29851572E+00 0.11278434E+04</pdfrwt>
<totfact> 0.39232079E-01</totfact>
</mgrwt>
</event>
<event>
12    1  0.7781383E-008  0.2059275E+04  0.7818608E-02  0.8579398E-01
         -2   -1    0    0    0  501 -0.00000000000E+00  0.00000000000E+00  0.19139058633E+04  0.19139058633E+04  0.00000000000E+00 0.  1.
          2   -1    0    0  501    0  0.00000000000E+00 -0.00000000000E+00 -0.27442329988E+04  0.27442329988E+04  0.00000000000E+00 0. -1.
         23    2    1    2    0    0 -0.35681578689E+03 -0.19898276977E+04  0.59927426546E+03  0.21105357152E+04  0.92193208281E+02 0.  0.
    5000000    2    1    2    0    0  0.35681578689E+03  0.19898276977E+04 -0.14296014009E+04  0.25476031468E+04  0.59982485443E+03 0.  0.
         23    2    4    4    0    0  0.32229973396E+03  0.45366581821E+03 -0.46480684573E+03  0.73088147497E+03  0.91937660979E+02 0.  0.
         23    2    4    4    0    0  0.34516052928E+02  0.15361618795E+04 -0.96479455519E+03  0.18167216719E+04  0.93082873741E+02 0.  0.
          2    1    3    3  502    0 -0.83509235218E+02 -0.52405417282E+03  0.19850661376E+03  0.56657871838E+03  0.00000000000E+00 0. -1.
         -2    1    3    3    0  502 -0.27330655167E+03 -0.14657735249E+04  0.40076765171E+03  0.15439569968E+04  0.00000000000E+00 0.  1.
         15    1    5    5    0    0  0.94411107592E+02  0.16398837059E+03 -0.21068319086E+03  0.28318934932E+03  0.17770000000E+01 0.  1.
        -15    1    5    5    0    0  0.22788862637E+03  0.28967744761E+03 -0.25412365487E+03  0.44769212566E+03  0.17770000000E+01 0. -1.
          2    1    6    6  503    0  0.61808179341E+02  0.12642362564E+04 -0.80768280549E+03  0.15014876214E+04  0.00000000000E+00 0. -1.
         -2    1    6    6    0  503 -0.27292126413E+02  0.27192562310E+03 -0.15711174970E+03  0.31523405044E+03  0.00000000000E+00 0.  1.
<mgrwt>
<rscale>  0 0.20592750E+04</rscale>
<asrwt>0</asrwt>
<pdfrwt beam="1">  1        2 0.42218969E+00 0.20592750E+04</pdfrwt>
<pdfrwt beam="2">  1       -2 0.29444706E+00 0.20592750E+04</pdfrwt>
<totfact> 0.75608596E-02</totfact>
</mgrwt>
</event>
<event>
12    1  0.7781383E-008  0.1336303E+04  0.7818608E-02  0.9001262E-01
         -2   -1    0    0    0  501 -0.00000000000E+00  0.00000000000E+00  0.88185732433E+03  0.88185732433E+03  0.00000000000E+00 0. -1.
          2   -1    0    0  501    0  0.00000000000E+00 -0.00000000000E+00 -0.22295522286E+04  0.22295522286E+04  0.00000000000E+00 0.  1.
         23    2    1    2    0    0 -0.13052877853E+04  0.24932095743E+03 -0.80076717578E+03  0.15541532391E+04  0.90703245172E+02 0.  0.
    5000000    2    1    2    0    0  0.13052877853E+04 -0.24932095743E+03 -0.54692772848E+03  0.15572563138E+04  0.59998345344E+03 0.  0.
         23    2    4    4    0    0  0.26416070376E+03  0.16727680007E+02  0.10235606669E+03  0.29851335919E+03  0.92589246322E+02 0.  0.
         23    2    4    4    0    0  0.10411270815E+04 -0.26604863744E+03 -0.64928379517E+03  0.12587429546E+04  0.90204776559E+02 0.  0.
          4    1    3    3  502    0 -0.45403263805E+03  0.11420897270E+03 -0.32172948831E+03  0.56806618409E+03  0.00000000000E+00 0. -1.
         -4    1    3    3    0  502 -0.85125514723E+03  0.13511198474E+03 -0.47903768747E+03  0.98608705504E+03  0.00000000000E+00 0.  1.
         15    1    5    5    0    0  0.19023019490E+03  0.47582677410E+01  0.26908855244E+02  0.19219108300E+03  0.17770000000E+01 0.  1.
        -15    1    5    5    0    0  0.73930508859E+02  0.11969412266E+02  0.75447211443E+02  0.10632227619E+03  0.17770000000E+01 0. -1.
          2    1    6    6  503    0  0.88921978696E+03 -0.25469183361E+03 -0.53760251982E+03  0.10698580415E+04  0.00000000000E+00 0. -1.
         -2    1    6    6    0  503  0.15190729456E+03 -0.11356803826E+02 -0.11168127535E+03  0.18888491310E+03  0.00000000000E+00 0.  1.
<mgrwt>
<rscale>  0 0.13363033E+04</rscale>
<asrwt>0</asrwt>
<pdfrwt beam="1">  1        2 0.34300803E+00 0.13363033E+04</pdfrwt>
<pdfrwt beam="2">  1       -2 0.13567036E+00 0.13363033E+04</pdfrwt>
<totfact> 0.18618678E+00</totfact>
</mgrwt>
</event>
<event>
12    1  0.7781383E-008  0.4724413E+03  0.7818608E-02  0.1021233E+00
         -2   -1    0    0    0  501 -0.00000000000E+00  0.00000000000E+00  0.25144746469E+03  0.25144746469E+03  0.00000000000E+00 0.  1.
          2   -1    0    0  501    0  0.00000000000E+00 -0.00000000000E+00 -0.14150370864E+04  0.14150370864E+04  0.00000000000E+00 0. -1.
         23    2    1    2    0    0 -0.26575545079E+03  0.12597161314E+03 -0.89438711036E+03  0.94595102755E+03  0.91652803619E+02 0.  0.
    5000000    2    1    2    0    0  0.26575545079E+03 -0.12597161314E+03 -0.26920251136E+03  0.72053352354E+03  0.60016977555E+03 0.  0.
         23    2    4    4    0    0  0.16300877527E+03  0.21495717613E+03 -0.40224136278E+02  0.28744037608E+03  0.90694764341E+02 0.  0.
         23    2    4    4    0    0  0.10274667552E+03 -0.34092878927E+03 -0.22897837508E+03  0.43309314746E+03  0.91374282133E+02 0.  0.
          3    1    3    3  502    0  0.16757012416E+01  0.79734036370E+01 -0.85163832331E+02  0.85552682468E+02  0.00000000000E+00 0. -1.
         -3    1    3    3    0  502 -0.26743115203E+03  0.11799820951E+03 -0.80922327803E+03  0.86039834509E+03  0.00000000000E+00 0.  1.
         15    1    5    5    0    0  0.94053319726E+01  0.77132349960E+02 -0.33833958534E+01  0.77797588500E+02  0.17770000000E+01 0.  1.
        -15    1    5    5    0    0  0.15360344330E+03  0.13782482617E+03 -0.36840740425E+02  0.20964278758E+03  0.17770000000E+01 0. -1.
          1    1    6    6  503    0  0.52823062540E+00 -0.81246894792E+02 -0.90261277517E+02  0.12144313550E+03  0.00000000000E+00 0. -1.
         -1    1    6    6    0  503  0.10221844489E+03 -0.25968189448E+03 -0.13871709757E+03  0.31165001196E+03  0.00000000000E+00 0.  1.
<mgrwt>
<rscale>  0 0.47244134E+03</rscale>
<asrwt>0</asrwt>
<pdfrwt beam="1">  1        2 0.21769801E+00 0.47244134E+03</pdfrwt>
<pdfrwt beam="2">  1       -2 0.38684226E-01 0.47244134E+03</pdfrwt>
<totfact> 0.94037076E+01</totfact>
</mgrwt>
</event>
<event>
12    1  0.7781383E-008  0.9304855E+03  0.7818608E-02  0.9388255E-01
          2   -1    0    0  501    0  0.00000000000E+00  0.00000000000E+00  0.29438650271E+04  0.29438650271E+04  0.00000000000E+00 0. -1.
         -2   -1    0    0    0  501 -0.00000000000E+00 -0.00000000000E+00 -0.33711169711E+03  0.33711169711E+03  0.00000000000E+00 0.  1.
         23    2    1    2    0    0  0.82913890142E+03  0.10920219361E+03  0.17504413688E+04  0.19421047312E+04  0.91265351065E+02 0.  0.
    5000000    2    1    2    0    0 -0.82913890142E+03 -0.10920219361E+03  0.85631196115E+03  0.13388719930E+04  0.59992633037E+03 0.  0.
         23    2    4    4    0    0 -0.82982170689E+03 -0.23900569295E+03  0.69198395170E+03  0.11104197067E+04  0.91991027393E+02 0.  0.
         23    2    4    4    0    0  0.68280547193E+00  0.12980349934E+03  0.16432800945E+03  0.22845228630E+03  0.91309023425E+02 0.  0.
          3    1    3    3  502    0  0.56972441566E+03  0.37436374312E+02  0.11413264100E+04  0.12761713702E+04  0.00000000000E+00 0. -1.
         -3    1    3    3    0  502  0.25941448576E+03  0.71765819302E+02  0.60911495880E+03  0.66593336098E+03  0.00000000000E+00 0.  1.
         15    1    5    5    0    0 -0.31203010167E+03 -0.10659968666E+03  0.21155213101E+03  0.39177000830E+03  0.17770000000E+01 0.  1.
        -15    1    5    5    0    0 -0.51779160522E+03 -0.13240600630E+03  0.48043182068E+03  0.71864969839E+03  0.17770000000E+01 0. -1.
          2    1    6    6  503    0 -0.43385376009E+02  0.58335447849E+02  0.58195082355E+02  0.93123482203E+02  0.00000000000E+00 0. -1.
         -2    1    6    6    0  503  0.44068181481E+02  0.71468051491E+02  0.10613292710E+03  0.13532880409E+03  0.00000000000E+00 0.  1.
<mgrwt>
<rscale>  0 0.93048546E+03</rscale>
<asrwt>0</asrwt>
<pdfrwt beam="1">  1        2 0.45290230E+00 0.93048546E+03</pdfrwt>
<pdfrwt beam="2">  1       -2 0.51863340E-01 0.93048546E+03</pdfrwt>
<totfact> 0.68373946E+00</totfact>
</mgrwt>
</event>
<event>
12    1  0.7781383E-008  0.1575021E+04  0.7818608E-02  0.8836042E-01
          2   -1    0    0  501    0  0.00000000000E+00  0.00000000000E+00  0.43064354981E+04  0.43064354981E+04  0.00000000000E+00 0.  1.
         -2   -1    0    0    0  501 -0.00000000000E+00 -0.00000000000E+00 -0.14617875954E+04  0.14617875954E+04  0.00000000000E+00 0. -1.
         23    2    1    2    0    0  0.15340332303E+04  0.32184790935E+03 -0.79523561238E+03  0.17600287891E+04  0.91965379042E+02 0.  0.
    5000000    2    1    2    0    0 -0.15340332303E+04 -0.32184790935E+03  0.36398835151E+04  0.40081943044E+04  0.60002129136E+03 0.  0.
         23    2    4    4    0    0 -0.51480198935E+03 -0.18055436328E+03  0.70398304058E+03  0.89572557080E+03  0.95452660639E+02 0.  0.
         23    2    4    4    0    0 -0.10192312409E+04 -0.14129354608E+03  0.29359004745E+04  0.31124687336E+04  0.95675664654E+02 0.  0.
          2    1    3    3  502    0  0.97045776974E+03  0.23365982076E+03 -0.46879447832E+03  0.11027934791E+04  0.00000000000E+00 0. -1.
         -2    1    3    3    0  502  0.56357546054E+03  0.88188088596E+02 -0.32644113406E+03  0.65723530999E+03  0.00000000000E+00 0.  1.
         15    1    5    5    0    0 -0.43271768255E+03 -0.12221301697E+03  0.53352433920E+03  0.69773346813E+03  0.17770000000E+01 0. -1.
        -15    1    5    5    0    0 -0.82084306796E+02 -0.58341346311E+02  0.17045870138E+03  0.19799210267E+03  0.17770000000E+01 0.  1.
          1    1    6    6  503    0 -0.76133437231E+03 -0.76724682466E+02  0.22678242579E+04  0.23934376048E+04  0.00000000000E+00 0. -1.
         -1    1    6    6    0  503 -0.25789686863E+03 -0.64568863612E+02  0.66807621663E+03  0.71903112883E+03  0.00000000000E+00 0.  1.
<mgrwt>
<rscale>  0 0.15750208E+04</rscale>
<asrwt>0</asrwt>
<pdfrwt beam="1">  1        2 0.66252853E+00 0.15750208E+04</pdfrwt>
<pdfrwt beam="2">  1       -2 0.22489040E+00 0.15750208E+04</pdfrwt>
<totfact> 0.16348441E-02</totfact>
</mgrwt>
</event>
<event>
12    1  0.7781383E-008  0.2336649E+03  0.7818608E-02  0.1124086E+00
          2   -1    0    0  501    0  0.00000000000E+00  0.00000000000E+00  0.52017334208E+03  0.52017334208E+03  0.00000000000E+00 0. -1.
         -2   -1    0    0    0  501 -0.00000000000E+00 -0.00000000000E+00 -0.31021155293E+03  0.31021155293E+03  0.00000000000E+00 0.  1.
         23    2    1    2    0    0 -0.14203354599E+02  0.15594024225E+03  0.76165074653E+02  0.19604266347E+03  0.90069489114E+02 0.  0.
    5000000    2    1    2    0    0  0.14203354599E+02 -0.15594024225E+03  0.13379671449E+03  0.63434223154E+03  0.59997450902E+03 0.  0.
         23    2    4    4    0    0  0.81511101709E+02 -0.17315497810E+03 -0.19359337417E+03  0.28656782374E+03  0.89532211747E+02 0.  0.
         23    2    4    4    0    0 -0.67307747110E+02  0.17214735845E+02  0.32739008866E+03  0.34777440780E+03  0.94530887072E+02 0.  0.
          1    1    3    3  502    0 -0.37284369866E+02  0.88875900173E+02  0.64561296393E+01  0.96595711487E+02  0.00000000000E+00 0. -1.
         -1    1    3    3    0  502  0.23081015268E+02  0.67064342079E+02  0.69708945014E+02  0.99446951986E+02  0.00000000000E+00 0.  1.
         15    1    5    5    0    0  0.20264245255E+02 -0.12223768730E+02 -0.71876193741E+02  0.75692833963E+02  0.17770000000E+01 0.  1.
        -15    1    5    5    0    0  0.61246856454E+02 -0.16093120937E+03 -0.12171718043E+03  0.21087498978E+03  0.17770000000E+01 0. -1.
          2    1    6    6  503    0 -0.51030506740E+02  0.47495659590E+02  0.13096646985E+03  0.14836497741E+03  0.00000000000E+00 0. -1.
         -2    1    6    6    0  503 -0.16277240370E+02 -0.30280923745E+02  0.19642361882E+03  0.19940943038E+03  0.00000000000E+00 0.  1.
<mgrwt>
<rscale>  0 0.23366492E+03</rscale>
<asrwt>0</asrwt>
<pdfrwt beam="1">  1        2 0.80026668E-01 0.23366492E+03</pdfrwt>
<pdfrwt beam="2">  1       -2 0.47724855E-01 0.23366492E+03</pdfrwt>
<totfact> 0.25383482E+02</totfact>
</mgrwt>
</event>
<event>
12    1  0.7781383E-008  0.1623867E+04  0.7818608E-02  0.8806018E-01
          2   -1    0    0  501    0  0.00000000000E+00  0.00000000000E+00  0.29294869861E+04  0.29294869861E+04  0.00000000000E+00 0. -1.
         -2   -1    0    0    0  501 -0.00000000000E+00 -0.00000000000E+00 -0.99123170059E+03  0.99123170059E+03  0.00000000000E+00 0.  1.
         23    2    1    2    0    0  0.15836688260E+04  0.31366970774E+03  0.54806653098E+03  0.17073453159E+04  0.90859613787E+02 0.  0.
    5000000    2    1    2    0    0 -0.15836688260E+04 -0.31366970774E+03  0.13901887545E+04  0.22133733707E+04  0.60000105750E+03 0.  0.
         23    2    4    4    0    0 -0.12659782774E+04 -0.17712999925E+03  0.76356604317E+03  0.14917897631E+04  0.91255463632E+02 0.  0.
         23    2    4    4    0    0 -0.31769054864E+03 -0.13653970850E+03  0.62662271132E+03  0.72158360759E+03  0.91959250259E+02 0.  0.
          2    1    3    3  502    0  0.87384345740E+03  0.18084176849E+03  0.34985452025E+03  0.95849064607E+03  0.00000000000E+00 0. -1.
         -2    1    3    3    0  502  0.70982536862E+03  0.13282793926E+03  0.19821201073E+03  0.74885466987E+03  0.00000000000E+00 0.  1.
         15    1    5    5    0    0 -0.14879714346E+03 -0.76141502698E+01  0.59636790214E+02  0.16049383060E+03  0.17770000000E+01 0.  1.
        -15    1    5    5    0    0 -0.11171811339E+04 -0.16951584898E+03  0.70392925296E+03  0.13312959325E+04  0.17770000000E+01 0. -1.
          2    1    6    6  503    0 -0.16668093743E+03 -0.11311962287E+03  0.40571005997E+03  0.45296714753E+03  0.00000000000E+00 0. -1.
         -2    1    6    6    0  503 -0.15100961121E+03 -0.23420085627E+02  0.22091265135E+03  0.26861646006E+03  0.00000000000E+00 0.  1.
<mgrwt>
<rscale>  0 0.16238675E+04</rscale>
<asrwt>0</asrwt>
<pdfrwt beam="1">  1        2 0.45069030E+00 0.16238675E+04</pdfrwt>
<pdfrwt beam="2">  1       -2 0.15249719E+00 0.16238675E+04</pdfrwt>
<totfact> 0.51615801E-01</totfact>
</mgrwt>
</event>
<event>
12    1  0.8411318E-008  0.6608829E+03  0.7818608E-02  0.9786570E-01
          2   -1    0    0  501    0  0.00000000000E+00  0.00000000000E+00  0.31074810073E+04  0.31074810073E+04  0.00000000000E+00 0. -1.
         -2   -1    0    0    0  501 -0.00000000000E+00 -0.00000000000E+00 -0.14715202353E+03  0.14715202353E+03  0.00000000000E+00 0.  1.
         23    2    1    2    0    0 -0.46097607366E+03  0.26454699320E+03  0.99250618937E+03  0.11298240287E+04  0.94603107234E+02 0.  0.
    5000000    2    1    2    0    0  0.46097607366E+03 -0.26454699320E+03  0.19678227944E+04  0.21248090021E+04  0.60000224424E+03 0.  0.
         23    2    4    4    0    0  0.16655666221E+03  0.17699374814E+03  0.76035849725E+03  0.80329943772E+03  0.89872318876E+02 0.  0.
         23    2    4    4    0    0  0.29441941145E+03 -0.44154074134E+03  0.12074642971E+04  0.13215095644E+04  0.82319400589E+02 0.  0.
          4    1    3    3  502    0 -0.19910853485E+03  0.15718760273E+03  0.40860638537E+03  0.48094836445E+03  0.00000000000E+00 0. -1.
         -4    1    3    3    0  502 -0.26186753881E+03  0.10735939046E+03  0.58389980400E+03  0.64887566430E+03  0.00000000000E+00 0.  1.
         15    1    5    5    0    0  0.14228822005E+02  0.48298851869E+02  0.25669519247E+03  0.26159284782E+03  0.17770000000E+01 0.  1.
        -15    1    5    5    0    0  0.15232784021E+03  0.12869489627E+03  0.50366330478E+03  0.54170658990E+03  0.17770000000E+01 0. -1.
          3    1    6    6  503    0  0.14552772870E+03 -0.28007701134E+03  0.65837026143E+03  0.73011838303E+03  0.00000000000E+00 0. -1.
         -3    1    6    6    0  503  0.14889168275E+03 -0.16146372999E+03  0.54909403572E+03  0.59139118133E+03  0.00000000000E+00 0.  1.
<mgrwt>
<rscale>  0 0.66088291E+03</rscale>
<asrwt>0</asrwt>
<pdfrwt beam="1">  1        2 0.47807395E+00 0.66088291E+03</pdfrwt>
<pdfrwt beam="2">  1       -2 0.22638775E-01 0.66088291E+03</pdfrwt>
<totfact> 0.27483073E+01</totfact>
</mgrwt>
</event>
<event>
12    1  0.7781383E-008  0.5234970E+03  0.7818608E-02  0.1007822E+00
          2   -1    0    0  501    0  0.00000000000E+00  0.00000000000E+00  0.44747416570E+03  0.44747416570E+03  0.00000000000E+00 0.  1.
         -2   -1    0    0    0  501 -0.00000000000E+00 -0.00000000000E+00 -0.93968080288E+03  0.93968080288E+03  0.00000000000E+00 0. -1.
         23    2    1    2    0    0 -0.48268816610E+03 -0.13169975643E+03 -0.12287058953E+03  0.52310162678E+03  0.90583876254E+02 0.  0.
    5000000    2    1    2    0    0  0.48268816610E+03  0.13169975643E+03 -0.36933604764E+03  0.86405334180E+03  0.59987196121E+03 0.  0.
         23    2    4    4    0    0  0.10820447237E+03 -0.81002711000E+01  0.14872830518E+03  0.20329223743E+03  0.86219503625E+02 0.  0.
         23    2    4    4    0    0  0.37448369372E+03  0.13980002753E+03 -0.51806435282E+03  0.66076110437E+03  0.91828529432E+02 0.  0.
          4    1    3    3  502    0 -0.22711823534E+03 -0.82499760444E+02 -0.10108260321E+03  0.26192860853E+03  0.00000000000E+00 0. -1.
         -4    1    3    3    0  502 -0.25556993076E+03 -0.49199995987E+02 -0.21787986316E+02  0.26117301825E+03  0.00000000000E+00 0.  1.
         15    1    5    5    0    0  0.72749686656E+02  0.35088747780E+02  0.71048220580E+02  0.10758598657E+03  0.17770000000E+01 0.  1.
        -15    1    5    5    0    0  0.35454785717E+02 -0.43189018880E+02  0.77680084597E+02  0.95706250862E+02  0.17770000000E+01 0. -1.
          3    1    6    6  503    0  0.27641049557E+03  0.14104573773E+03 -0.41852997879E+03  0.52102207759E+03  0.00000000000E+00 0. -1.
         -3    1    6    6    0  503  0.98073198152E+02 -0.12457102016E+01 -0.99534374035E+02  0.13973902678E+03  0.00000000000E+00 0.  1.
<mgrwt>
<rscale>  0 0.52349700E+03</rscale>
<asrwt>0</asrwt>
<pdfrwt beam="1">  1        2 0.68842180E-01 0.52349700E+03</pdfrwt>
<pdfrwt beam="2">  1       -2 0.14456628E+00 0.52349700E+03</pdfrwt>
<totfact> 0.23933409E+01</totfact>
</mgrwt>
</event>
<event>
12    1  0.7781383E-008  0.6005991E+03  0.7818608E-02  0.9904164E-01
          2   -1    0    0  501    0  0.00000000000E+00  0.00000000000E+00  0.69368269485E+03  0.69368269485E+03  0.00000000000E+00 0. -1.
         -2   -1    0    0    0  501 -0.00000000000E+00 -0.00000000000E+00 -0.58260221840E+03  0.58260221840E+03  0.00000000000E+00 0.  1.
         23    2    1    2    0    0  0.47850823470E+03  0.64297862651E+02 -0.34659155334E+02  0.49248371816E+03  0.90744750763E+02 0.  0.
    5000000    2    1    2    0    0 -0.47850823470E+03 -0.64297862651E+02  0.14573963179E+03  0.78380119509E+03  0.59999993945E+03 0.  0.
         23    2    4    4    0    0  0.35867867036E+02 -0.18254242493E+03 -0.52294020440E+02  0.21345443036E+03  0.90663600640E+02 0.  0.
         23    2    4    4    0    0 -0.51437610173E+03  0.11824456228E+03  0.19803365223E+03  0.57034676473E+03  0.86680759603E+02 0.  0.
          4    1    3    3  502    0  0.37730604147E+03  0.60377194637E+02 -0.63115304554E+02  0.38728387035E+03  0.00000000000E+00 0. -1.
         -4    1    3    3    0  502  0.10120219322E+03  0.39206680144E+01  0.28456149221E+02  0.10519984781E+03  0.00000000000E+00 0.  1.
         15    1    5    5    0    0  0.30884880685E+02 -0.12129883633E+03  0.10448771533E+02  0.12561694991E+03  0.17770000000E+01 0.  1.
        -15    1    5    5    0    0  0.49829863510E+01 -0.61243588602E+02 -0.62742791972E+02  0.87837480447E+02  0.17770000000E+01 0. -1.
          2    1    6    6  503    0 -0.18092461121E+03  0.12552695680E+02  0.36258955474E+02  0.18494863331E+03  0.00000000000E+00 0. -1.
         -2    1    6    6    0  503 -0.33345149052E+03  0.10569186660E+03  0.16177469675E+03  0.38539813143E+03  0.00000000000E+00 0.  1.
<mgrwt>
<rscale>  0 0.60059909E+03</rscale>
<asrwt>0</asrwt>
<pdfrwt beam="1">  1        2 0.10672041E+00 0.60059909E+03</pdfrwt>
<pdfrwt beam="2">  1       -2 0.89631111E-01 0.60059909E+03</pdfrwt>
<totfact> 0.45369369E+01</totfact>
</mgrwt>
</event>
<event>
12    1  0.7781383E-008  0.1818460E+04  0.7818608E-02  0.8696544E-01
         -2   -1    0    0    0  501 -0.00000000000E+00  0.00000000000E+00  0.14033377787E+04  0.14033377787E+04  0.00000000000E+00 0.  1.
          2   -1    0    0  501    0  0.00000000000E+00 -0.00000000000E+00 -0.25433537579E+04  0.25433537579E+04  0.00000000000E+00 0. -1.
         23    2    1    2    0    0 -0.17705766862E+04  0.27105916111E+03 -0.11404052401E+03  0.17970293372E+04  0.88850025691E+02 0.  0.
    5000000    2    1    2    0    0  0.17705766862E+04 -0.27105916111E+03 -0.10259754552E+04  0.21496621994E+04  0.60000588867E+03 0.  0.
         23    2    4    4    0    0  0.10591513742E+03 -0.13716756036E+03 -0.93850716127E+01  0.19198743713E+03  0.82086177256E+02 0.  0.
         23    2    4    4    0    0  0.16646615488E+04 -0.13389160075E+03 -0.10165903836E+04  0.19576747623E+04  0.10004715989E+03 0.  0.
          3    1    3    3  502    0 -0.15051512426E+04  0.22444572436E+03 -0.12809746176E+03  0.15271755321E+04  0.00000000000E+00 0. -1.
         -3    1    3    3    0  502 -0.26542544362E+03  0.46613436753E+02  0.14056937750E+02  0.26985380506E+03  0.00000000000E+00 0.  1.
         15    1    5    5    0    0  0.69270799783E+02 -0.10224917459E+03 -0.43464028576E+02  0.13094127277E+03  0.17770000000E+01 0.  1.
        -15    1    5    5    0    0  0.36644337637E+02 -0.34918385769E+02  0.34078956963E+02  0.61046164354E+02  0.17770000000E+01 0. -1.
          4    1    6    6  503    0  0.14138517717E+04 -0.88766905662E+02 -0.89134114899E+03  0.16737220318E+04  0.00000000000E+00 0. -1.
         -4    1    6    6    0  503  0.25080977707E+03 -0.45124695088E+02 -0.12524923460E+03  0.28395273049E+03  0.00000000000E+00 0.  1.
<mgrwt>
<rscale>  0 0.18184595E+04</rscale>
<asrwt>0</asrwt>
<pdfrwt beam="1">  1        2 0.39128519E+00 0.18184595E+04</pdfrwt>
<pdfrwt beam="2">  1       -2 0.21589812E+00 0.18184595E+04</pdfrwt>
<totfact> 0.31307116E-01</totfact>
</mgrwt>
</event>
<event>
12    1  0.7781383E-008  0.5810865E+03  0.7818608E-02  0.9945442E-01
          1   -1    0    0  501    0  0.00000000000E+00  0.00000000000E+00  0.84709039666E+03  0.84709039666E+03  0.00000000000E+00 0. -1.
         -1   -1    0    0    0  501 -0.00000000000E+00 -0.00000000000E+00 -0.55429473533E+03  0.55429473533E+03  0.00000000000E+00 0.  1.
         23    2    1    2    0    0 -0.21749625835E+03 -0.50192618912E+03  0.17067641314E+03  0.58034482255E+03  0.91843090887E+02 0.  0.
    5000000    2    1    2    0    0  0.21749625835E+03  0.50192618912E+03  0.12211924818E+03  0.82104030943E+03  0.59996629674E+03 0.  0.
         23    2    4    4    0    0  0.23026511070E+03  0.25862190237E+03 -0.19737759873E+03  0.40897252244E+03  0.91614944425E+02 0.  0.
         23    2    4    4    0    0 -0.12768852350E+02  0.24330428674E+03  0.31949684691E+03  0.41206778699E+03  0.91441819485E+02 0.  0.
          2    1    3    3  502    0 -0.10048394297E+03 -0.32949084831E+03  0.12896759026E+03  0.36782316574E+03  0.00000000000E+00 0. -1.
         -2    1    3    3    0  502 -0.11701231538E+03 -0.17243534080E+03  0.41708822883E+02  0.21252165681E+03  0.00000000000E+00 0.  1.
         15    1    5    5    0    0  0.10446521666E+03  0.15704268653E+03 -0.63441690907E+02  0.19900601186E+03  0.17770000000E+01 0. -1.
        -15    1    5    5    0    0  0.12579989404E+03  0.10157921584E+03 -0.13393590782E+03  0.20996651058E+03  0.17770000000E+01 0.  1.
          1    1    6    6  503    0 -0.41265755905E+02  0.56180793684E+02  0.10457868461E+03  0.12568152396E+03  0.00000000000E+00 0. -1.
         -1    1    6    6    0  503  0.28496903555E+02  0.18712349306E+03  0.21491816230E+03  0.28638626303E+03  0.00000000000E+00 0.  1.
<mgrwt>
<rscale>  0 0.58108650E+03</rscale>
<asrwt>0</asrwt>
<pdfrwt beam="1">  1        1 0.13032160E+00 0.58108650E+03</pdfrwt>
<pdfrwt beam="2">  1       -1 0.85276113E-01 0.58108650E+03</pdfrwt>
<totfact> 0.28689738E+01</totfact>
</mgrwt>
</event>
<event>
12    1  0.7781383E-008  0.4034961E+03  0.7818608E-02  0.1042576E+00
          2   -1    0    0  501    0  0.00000000000E+00  0.00000000000E+00  0.10303103376E+04  0.10303103376E+04  0.00000000000E+00 0. -1.
         -2   -1    0    0    0  501 -0.00000000000E+00 -0.00000000000E+00 -0.21620012449E+03  0.21620012449E+03  0.00000000000E+00 0.  1.
         23    2    1    2    0    0 -0.25412381442E+03  0.89896295329E+02  0.20788969254E+03  0.35224250679E+03  0.90533984548E+02 0.  0.
    5000000    2    1    2    0    0  0.25412381442E+03 -0.89896295329E+02  0.60622052062E+03  0.89426795534E+03  0.59962621637E+03 0.  0.
         23    2    4    4    0    0  0.35202087384E+03  0.43582445214E+02  0.59912355914E+03  0.70202049209E+03  0.89808724770E+02 0.  0.
         23    2    4    4    0    0 -0.97897059422E+02 -0.13347874054E+03  0.70969614795E+01  0.19224746325E+03  0.97510572982E+02 0.  0.
          3    1    3    3  502    0 -0.14863362940E+03  0.14682931417E+02  0.14524046190E+03  0.20833227315E+03  0.00000000000E+00 0. -1.
         -3    1    3    3    0  502 -0.10549018502E+03  0.75213363912E+02  0.62649230634E+02  0.14391023364E+03  0.00000000000E+00 0.  1.
         15    1    5    5    0    0  0.22723917933E+03 -0.78773276531E+01  0.32740679657E+03  0.39862020155E+03  0.17770000000E+01 0.  1.
        -15    1    5    5    0    0  0.12478169451E+03  0.51459772867E+02  0.27171676257E+03  0.30340029054E+03  0.17770000000E+01 0. -1.
          3    1    6    6  503    0 -0.94193726337E+02 -0.12555419736E+03  0.36856719288E+02  0.16122881974E+03  0.00000000000E+00 0. -1.
         -3    1    6    6    0  503 -0.37033330851E+01 -0.79245431780E+01 -0.29759757808E+02  0.31018643512E+02  0.00000000000E+00 0.  1.
<mgrwt>
<rscale>  0 0.40349611E+03</rscale>
<asrwt>0</asrwt>
<pdfrwt beam="1">  1        2 0.15850928E+00 0.40349611E+03</pdfrwt>
<pdfrwt beam="2">  1       -2 0.33261558E-01 0.40349611E+03</pdfrwt>
<totfact> 0.21106456E+02</totfact>
</mgrwt>
</event>
<event>
12    1  0.7781383E-008  0.7763869E+03  0.7818608E-02  0.9594839E-01
         -2   -1    0    0    0  501 -0.00000000000E+00  0.00000000000E+00  0.37379590489E+03  0.37379590489E+03  0.00000000000E+00 0.  1.
          2   -1    0    0  501    0  0.00000000000E+00 -0.00000000000E+00 -0.20264770183E+04  0.20264770183E+04  0.00000000000E+00 0. -1.
         23    2    1    2    0    0 -0.56638862897E+03 -0.50455007281E+03 -0.59801832624E+03  0.96928148623E+03  0.80708277265E+02 0.  0.
    5000000    2    1    2    0    0  0.56638862897E+03  0.50455007281E+03 -0.10546627872E+04  0.14309914370E+04  0.60004670073E+03 0.  0.
         23    2    4    4    0    0  0.20136376898E+03  0.29250442500E+03 -0.95496236549E+02  0.37911459190E+03  0.92207030614E+02 0.  0.
         23    2    4    4    0    0  0.36502486000E+03  0.21204564781E+03 -0.95916655065E+03  0.10518768451E+04  0.90762989132E+02 0.  0.
          3    1    3    3  502    0 -0.52336691101E+03 -0.47012510318E+03 -0.57852417409E+03  0.91083519705E+03  0.00000000000E+00 0. -1.
         -3    1    3    3    0  502 -0.43021717964E+02 -0.34424969627E+02 -0.19494152156E+02  0.58446289178E+02  0.00000000000E+00 0.  1.
         15    1    5    5    0    0 -0.31041066082E+01  0.41499038402E+02 -0.28183890644E+00  0.41653845301E+02  0.17770000000E+01 0. -1.
        -15    1    5    5    0    0  0.20446787559E+03  0.25100538660E+03 -0.95214397643E+02  0.33746074660E+03  0.17770000000E+01 0.  1.
          3    1    6    6  503    0  0.50846384532E+02  0.21010439132E+01 -0.78320071872E+02  0.93401300116E+02  0.00000000000E+00 0.  1.
         -3    1    6    6    0  503  0.31417847546E+03  0.20994460389E+03 -0.88084647878E+03  0.95847554498E+03  0.00000000000E+00 0. -1.
<mgrwt>
<rscale>  0 0.77638689E+03</rscale>
<asrwt>0</asrwt>
<pdfrwt beam="1">  1        2 0.31176570E+00 0.77638689E+03</pdfrwt>
<pdfrwt beam="2">  1       -2 0.57507062E-01 0.77638689E+03</pdfrwt>
<totfact> 0.18859291E+01</totfact>
</mgrwt>
</event>
<event>
12    1  0.7781383E-008  0.1158586E+04  0.7818608E-02  0.9149899E-01
          2   -1    0    0  501    0  0.00000000000E+00  0.00000000000E+00  0.33117374784E+04  0.33117374784E+04  0.00000000000E+00 0.  1.
         -2   -1    0    0    0  501 -0.00000000000E+00 -0.00000000000E+00 -0.67511163076E+03  0.67511163076E+03  0.00000000000E+00 0. -1.
         23    2    1    2    0    0  0.94442942171E+03  0.62118334617E+03  0.24415503761E+04  0.26922740569E+04  0.96724744793E+02 0.  0.
    5000000    2    1    2    0    0 -0.94442942171E+03 -0.62118334617E+03  0.19507547160E+03  0.12945750523E+04  0.60004536854E+03 0.  0.
         23    2    4    4    0    0 -0.50497553813E+02 -0.17907571246E+02  0.18344224694E+03  0.21204393502E+03  0.91874307427E+02 0.  0.
         23    2    4    4    0    0 -0.89393186790E+03 -0.60327577493E+03  0.11633224661E+02  0.10825311173E+04  0.93179627336E+02 0.  0.
          1    1    3    3  502    0  0.37220267344E+03  0.28166146942E+03  0.92133636621E+03  0.10328255967E+04  0.00000000000E+00 0. -1.
         -1    1    3    3    0  502  0.57222674827E+03  0.33952187676E+03  0.15202140099E+04  0.16594484602E+04  0.00000000000E+00 0.  1.
         15    1    5    5    0    0 -0.77291064632E+02 -0.81605822475E+01  0.13694063802E+03  0.15746872656E+03  0.17770000000E+01 0.  1.
        -15    1    5    5    0    0  0.26793510819E+02 -0.97469889983E+01  0.46501608920E+02  0.54575208453E+02  0.17770000000E+01 0. -1.
          3    1    6    6  503    0 -0.29227075449E+03 -0.18342022163E+03 -0.38212782205E+02  0.34716766606E+03  0.00000000000E+00 0. -1.
         -3    1    6    6    0  503 -0.60166111341E+03 -0.41985555330E+03  0.49846006866E+02  0.73536345124E+03  0.00000000000E+00 0.  1.
<mgrwt>
<rscale>  0 0.11585862E+04</rscale>
<asrwt>0</asrwt>
<pdfrwt beam="1">  1        2 0.50949806E+00 0.11585862E+04</pdfrwt>
<pdfrwt beam="2">  1       -2 0.10386333E+00 0.11585862E+04</pdfrwt>
<totfact> 0.82696504E-01</totfact>
</mgrwt>
</event>
<event>
12    1  0.7781383E-008  0.1552520E+04  0.7818608E-02  0.8850259E-01
         -2   -1    0    0    0  501 -0.00000000000E+00  0.00000000000E+00  0.11910954671E+04  0.11910954671E+04  0.00000000000E+00 0.  1.
          2   -1    0    0  501    0  0.00000000000E+00 -0.00000000000E+00 -0.34476841517E+04  0.34476841517E+04  0.00000000000E+00 0. -1.
         23    2    1    2    0    0 -0.94058106836E+03 -0.11672410280E+04  0.37804761548E+03  0.15486932880E+04  0.91578038882E+02 0.  0.
    5000000    2    1    2    0    0  0.94058106836E+03  0.11672410280E+04 -0.26346363000E+04  0.30900863307E+04  0.60015059290E+03 0.  0.
         23    2    4    4    0    0 -0.35928452775E+02  0.26561670222E+03 -0.47565459943E+03  0.55316282440E+03  0.88874777798E+02 0.  0.
         23    2    4    4    0    0  0.97650952113E+03  0.90162432578E+03 -0.21589817006E+04  0.25369235063E+04  0.91003426149E+02 0.  0.
          2    1    3    3  502    0 -0.70310005084E+03 -0.81320683554E+03  0.25223463822E+03  0.11042089257E+04  0.00000000000E+00 0.  1.
         -2    1    3    3    0  502 -0.23748101752E+03 -0.35403419247E+03  0.12581297726E+03  0.44448436234E+03  0.00000000000E+00 0. -1.
         15    1    5    5    0    0 -0.19503835446E+01  0.19874500259E+03 -0.39973111485E+03  0.44642076784E+03  0.17770000000E+01 0. -1.
        -15    1    5    5    0    0 -0.33978069230E+02  0.66871699633E+02 -0.75923484577E+02  0.10674205657E+03  0.17770000000E+01 0.  1.
          3    1    6    6  503    0  0.79023360397E+03  0.70384434072E+03 -0.17756207844E+04  0.20670498723E+04  0.00000000000E+00 0. -1.
         -3    1    6    6    0  503  0.18627591717E+03  0.19777998506E+03 -0.38336091624E+03  0.46987363398E+03  0.00000000000E+00 0.  1.
<mgrwt>
<rscale>  0 0.15525204E+04</rscale>
<asrwt>0</asrwt>
<pdfrwt beam="1">  1        2 0.53041294E+00 0.15525204E+04</pdfrwt>
<pdfrwt beam="2">  1       -2 0.18324546E+00 0.15525204E+04</pdfrwt>
<totfact> 0.14345723E-01</totfact>
</mgrwt>
</event>
<event>
12    1  0.7781383E-008  0.1081960E+04  0.7818608E-02  0.9222955E-01
         -1   -1    0    0    0  501 -0.00000000000E+00  0.00000000000E+00  0.69608850305E+03  0.69608850305E+03  0.00000000000E+00 0.  1.
          1   -1    0    0  501    0  0.00000000000E+00 -0.00000000000E+00 -0.19048098552E+04  0.19048098552E+04  0.00000000000E+00 0. -1.
         23    2    1    2    0    0 -0.10025532721E+04 -0.24662369780E+03 -0.24113952502E+03  0.10639459743E+04  0.88861994725E+02 0.  0.
    5000000    2    1    2    0    0  0.10025532721E+04  0.24662369780E+03 -0.96758182708E+03  0.15369523839E+04  0.60005976921E+03 0.  0.
         23    2    4    4    0    0  0.37805408189E+03  0.31353911824E+03 -0.19296548436E+03  0.53561030560E+03  0.91711797577E+02 0.  0.
         23    2    4    4    0    0  0.62449919016E+03 -0.66915420432E+02 -0.77461634273E+03  0.10013420783E+04  0.90435431827E+02 0.  0.
          3    1    3    3  502    0 -0.31058058429E+03 -0.11301214055E+03 -0.98880128702E+02  0.34497727911E+03  0.00000000000E+00 0. -1.
         -3    1    3    3    0  502 -0.69197268776E+03 -0.13361155725E+03 -0.14225939632E+03  0.71896869520E+03  0.00000000000E+00 0.  1.
         15    1    5    5    0    0  0.23274383949E+03  0.22857979557E+03 -0.90502336484E+02  0.33854430789E+03  0.17770000000E+01 0.  1.
        -15    1    5    5    0    0  0.14531024240E+03  0.84959322663E+02 -0.10246314787E+03  0.19706599772E+03  0.17770000000E+01 0. -1.
          3    1    6    6  503    0  0.39173894047E+03  0.64555826744E+00 -0.49663252843E+03  0.63253749495E+03  0.00000000000E+00 0. -1.
         -3    1    6    6    0  503  0.23276024969E+03 -0.67560978700E+02 -0.27798381430E+03  0.36880458334E+03  0.00000000000E+00 0.  1.
<mgrwt>
<rscale>  0 0.10819602E+04</rscale>
<asrwt>0</asrwt>
<pdfrwt beam="1">  1        1 0.29304767E+00 0.10819602E+04</pdfrwt>
<pdfrwt beam="2">  1       -1 0.10709054E+00 0.10819602E+04</pdfrwt>
<totfact> 0.28085445E+00</totfact>
</mgrwt>
</event>
<event>
12    1  0.7781383E-008  0.4849754E+03  0.7818608E-02  0.1017777E+00
         -1   -1    0    0    0  501 -0.00000000000E+00  0.00000000000E+00  0.65429924910E+03  0.65429924910E+03  0.00000000000E+00 0.  1.
          1   -1    0    0  501    0  0.00000000000E+00 -0.00000000000E+00 -0.12803318640E+04  0.12803318640E+04  0.00000000000E+00 0. -1.
         23    2    1    2    0    0  0.20041078438E+03  0.24366841300E+03  0.51286496897E+03  0.60925246951E+03  0.92840277956E+02 0.  0.
    5000000    2    1    2    0    0 -0.20041078438E+03 -0.24366841300E+03 -0.11388975839E+04  0.13253786436E+04  0.60000172031E+03 0.  0.
         23    2    4    4    0    0 -0.38573683419E+03 -0.13751322769E+03 -0.89460204587E+03  0.98844469086E+03  0.94906761493E+02 0.  0.
         23    2    4    4    0    0  0.18532604981E+03 -0.10615518531E+03 -0.24429553802E+03  0.33693395276E+03  0.90716649620E+02 0.  0.
          1    1    3    3  502    0  0.11445432061E+03  0.71156928954E+02  0.18414387522E+03  0.22819304728E+03  0.00000000000E+00 0. -1.
         -1    1    3    3    0  502  0.85956463765E+02  0.17251148405E+03  0.32872109375E+03  0.38105942222E+03  0.00000000000E+00 0.  1.
         15    1    5    5    0    0 -0.28096733210E+03 -0.53531125666E+02 -0.60122972339E+03  0.66579918980E+03  0.17770000000E+01 0. -1.
        -15    1    5    5    0    0 -0.10476950209E+03 -0.83982102023E+02 -0.29337232247E+03  0.32264550105E+03  0.17770000000E+01 0.  1.
          1    1    6    6  503    0  0.19196513461E+02 -0.37974711622E+02 -0.92420593706E+02  0.10174552075E+03  0.00000000000E+00 0. -1.
         -1    1    6    6    0  503  0.16612953635E+03 -0.68180473690E+02 -0.15187494431E+03  0.23518843201E+03  0.00000000000E+00 0.  1.
<mgrwt>
<rscale>  0 0.48497544E+03</rscale>
<asrwt>0</asrwt>
<pdfrwt beam="1">  1        1 0.19697413E+00 0.48497544E+03</pdfrwt>
<pdfrwt beam="2">  1       -1 0.10066142E+00 0.48497544E+03</pdfrwt>
<totfact> 0.95415645E+00</totfact>
</mgrwt>
</event>
<event>
12    1  0.7781383E-008  0.1564590E+04  0.7818608E-02  0.8842602E-01
         -1   -1    0    0    0  501 -0.00000000000E+00  0.00000000000E+00  0.11635898110E+04  0.11635898110E+04  0.00000000000E+00 0.  1.
          1   -1    0    0  501    0  0.00000000000E+00 -0.00000000000E+00 -0.22578689503E+04  0.22578689503E+04  0.00000000000E+00 0. -1.
         23    2    1    2    0    0  0.11324970041E+04  0.10737441106E+04 -0.42020256489E+03  0.16187563662E+04  0.91247457251E+02 0.  0.
    5000000    2    1    2    0    0 -0.11324970041E+04 -0.10737441106E+04 -0.67407657442E+03  0.18027023950E+04  0.59990067313E+03 0.  0.
         23    2    4    4    0    0 -0.57258500442E+03 -0.59937564856E+03 -0.50429528790E+02  0.83531474664E+03  0.90015738695E+02 0.  0.
         23    2    4    4    0    0 -0.55991199963E+03 -0.47436846203E+03 -0.62364704563E+03  0.96738764838E+03  0.91522344861E+02 0.  0.
          2    1    3    3  502    0  0.66989679585E+03  0.67101247563E+03 -0.21759486260E+03  0.97281395126E+03  0.00000000000E+00 0. -1.
         -2    1    3    3    0  502  0.46260020820E+03  0.40273163496E+03 -0.20260770229E+03  0.64594241497E+03  0.00000000000E+00 0.  1.
         15    1    5    5    0    0 -0.31369248251E+03 -0.27932820499E+03  0.41626886660E+01  0.42005678830E+03  0.17770000000E+01 0. -1.
        -15    1    5    5    0    0 -0.25889252190E+03 -0.32004744357E+03 -0.54592217456E+02  0.41525795834E+03  0.17770000000E+01 0.  1.
          1    1    6    6  503    0 -0.49814642268E+03 -0.39707641708E+03 -0.57009605566E+03  0.85488540291E+03  0.00000000000E+00 0. -1.
         -1    1    6    6    0  503 -0.61765576958E+02 -0.77292044947E+02 -0.53550989976E+02  0.11250224547E+03  0.00000000000E+00 0.  1.
<mgrwt>
<rscale>  0 0.15645902E+04</rscale>
<asrwt>0</asrwt>
<pdfrwt beam="1">  1        1 0.34736445E+00 0.15645902E+04</pdfrwt>
<pdfrwt beam="2">  1       -1 0.17901382E+00 0.15645902E+04</pdfrwt>
<totfact> 0.39552294E-01</totfact>
</mgrwt>
</event>
<event>
12    1  0.7781383E-008  0.5627826E+03  0.7818608E-02  0.9985778E-01
         -3   -1    0    0    0  501 -0.00000000000E+00  0.00000000000E+00  0.66312988530E+03  0.66312988530E+03  0.00000000000E+00 0.  1.
          3   -1    0    0  501    0  0.00000000000E+00 -0.00000000000E+00 -0.55534824061E+03  0.55534824061E+03  0.00000000000E+00 0. -1.
         23    2    1    2    0    0 -0.33853948574E+03  0.27428137552E+03  0.16292040057E+03  0.47516275435E+03  0.96939825839E+02 0.  0.
    5000000    2    1    2    0    0  0.33853948574E+03 -0.27428137552E+03 -0.55138755886E+02  0.74331537156E+03  0.59969842657E+03 0.  0.
         23    2    4    4    0    0  0.46308304726E+03 -0.26145287534E+03 -0.15303691524E+03  0.56087559150E+03  0.91420003446E+02 0.  0.
         23    2    4    4    0    0 -0.12454356152E+03 -0.12828500173E+02  0.97898159358E+02  0.18243978006E+03  0.89579878375E+02 0.  0.
          2    1    3    3  502    0 -0.76742797032E+02  0.50535863768E+02 -0.49969337208E+01  0.92023365346E+02  0.00000000000E+00 0. -1.
         -2    1    3    3    0  502 -0.26179668871E+03  0.22374551175E+03  0.16791733429E+03  0.38313938900E+03  0.00000000000E+00 0.  1.
         15    1    5    5    0    0  0.23490691958E+03 -0.17473726262E+03 -0.11135879679E+03  0.31323842544E+03  0.17770000000E+01 0. -1.
        -15    1    5    5    0    0  0.22817612767E+03 -0.86715612720E+02 -0.41678118452E+02  0.24763716606E+03  0.17770000000E+01 0.  1.
          2    1    6    6  503    0 -0.36763625768E+02 -0.45726216106E+02  0.25400813579E+02  0.63934750719E+02  0.00000000000E+00 0. -1.
         -2    1    6    6    0  503 -0.87779935747E+02  0.32897715932E+02  0.72497345779E+02  0.11850502934E+03  0.00000000000E+00 0.  1.
<mgrwt>
<rscale>  0 0.56278260E+03</rscale>
<asrwt>0</asrwt>
<pdfrwt beam="1">  1        3 0.85438191E-01 0.56278260E+03</pdfrwt>
<pdfrwt beam="2">  1       -3 0.10201998E+00 0.56278260E+03</pdfrwt>
<totfact> 0.27349480E+00</totfact>
</mgrwt>
</event>
<event>
12    1  0.7781383E-008  0.7479370E+03  0.7818608E-02  0.9638592E-01
          2   -1    0    0  501    0  0.00000000000E+00  0.00000000000E+00  0.27271141235E+04  0.27271141235E+04  0.00000000000E+00 0. -1.
         -2   -1    0    0    0  501 -0.00000000000E+00 -0.00000000000E+00 -0.20918771420E+03  0.20918771420E+03  0.00000000000E+00 0.  1.
         23    2    1    2    0    0  0.42070692391E+03  0.46706095776E+03  0.11987607800E+04  0.13566216922E+04  0.90855677420E+02 0.  0.
    5000000    2    1    2    0    0 -0.42070692391E+03 -0.46706095776E+03  0.13191656294E+04  0.15796801455E+04  0.60004262377E+03 0.  0.
         23    2    4    4    0    0 -0.33247539571E+03  0.38364801156E+02  0.55955491283E+03  0.65888340770E+03  0.94941549125E+02 0.  0.
         23    2    4    4    0    0 -0.88231528203E+02 -0.50542575891E+03  0.75961071653E+03  0.92079673781E+03  0.87282251084E+02 0.  0.
          2    1    3    3  502    0  0.10469602542E+03  0.17101924215E+03  0.42523951916E+03  0.47014624063E+03  0.00000000000E+00 0. -1.
         -2    1    3    3    0  502  0.31601089849E+03  0.29604171560E+03  0.77352126082E+03  0.88647545159E+03  0.00000000000E+00 0.  1.
         15    1    5    5    0    0 -0.18771636621E+03 -0.25816633893E+02  0.30004747104E+03  0.35487402742E+03  0.17770000000E+01 0. -1.
        -15    1    5    5    0    0 -0.14475902950E+03  0.64181435049E+02  0.25950744179E+03  0.30400938028E+03  0.17770000000E+01 0.  1.
          1    1    6    6  503    0 -0.29358048252E+02 -0.27863272830E+03  0.48207292891E+03  0.55757726018E+03  0.00000000000E+00 0. -1.
         -1    1    6    6    0  503 -0.58873479952E+02 -0.22679303062E+03  0.27753778762E+03  0.36321947764E+03  0.00000000000E+00 0.  1.
<mgrwt>
<rscale>  0 0.74793703E+03</rscale>
<asrwt>0</asrwt>
<pdfrwt beam="1">  1        2 0.41955599E+00 0.74793703E+03</pdfrwt>
<pdfrwt beam="2">  1       -2 0.32182727E-01 0.74793703E+03</pdfrwt>
<totfact> 0.24155536E+01</totfact>
</mgrwt>
</event>
<event>
12    1  0.7781383E-008  0.7118484E+03  0.7818608E-02  0.9697182E-01
          1   -1    0    0  501    0  0.00000000000E+00  0.00000000000E+00  0.34960976461E+04  0.34960976461E+04  0.00000000000E+00 0. -1.
         -1   -1    0    0    0  501 -0.00000000000E+00 -0.00000000000E+00 -0.26827122621E+03  0.26827122621E+03  0.00000000000E+00 0.  1.
         23    2    1    2    0    0  0.57906226063E+03  0.30147022599E+03  0.25887109733E+04  0.26712989016E+04  0.90641711260E+02 0.  0.
    5000000    2    1    2    0    0 -0.57906226063E+03 -0.30147022599E+03  0.63911544667E+03  0.10930699707E+04  0.60011332923E+03 0.  0.
         23    2    4    4    0    0 -0.19235828089E+03 -0.31899420099E+03  0.57383789975E+03  0.69025668166E+03  0.91680657135E+02 0.  0.
         23    2    4    4    0    0 -0.38670397973E+03  0.17523974994E+02  0.65277546915E+02  0.40281328908E+03  0.90279178596E+02 0.  0.
          2    1    3    3  502    0  0.24747023907E+03  0.15624632320E+03  0.13129200085E+04  0.13451443720E+04  0.00000000000E+00 0. -1.
         -2    1    3    3    0  502  0.33159202156E+03  0.14522390280E+03  0.12757909647E+04  0.13261545296E+04  0.00000000000E+00 0.  1.
         15    1    5    5    0    0 -0.17785577770E+02 -0.89676138155E+02  0.98764543314E+02  0.13459468517E+03  0.17770000000E+01 0. -1.
        -15    1    5    5    0    0 -0.17457270312E+03 -0.22931806283E+03  0.47507335644E+03  0.55566199649E+03  0.17770000000E+01 0.  1.
          1    1    6    6  503    0 -0.13248769300E+03  0.26029508638E+02 -0.15569932638E+02  0.13591521960E+03  0.00000000000E+00 0. -1.
         -1    1    6    6    0  503 -0.25421628673E+03 -0.85055336438E+01  0.80847479553E+02  0.26689806948E+03  0.00000000000E+00 0.  1.
<mgrwt>
<rscale>  0 0.71184841E+03</rscale>
<asrwt>0</asrwt>
<pdfrwt beam="1">  1        1 0.53786114E+00 0.71184841E+03</pdfrwt>
<pdfrwt beam="2">  1       -1 0.41272499E-01 0.71184841E+03</pdfrwt>
<totfact> 0.15876312E+00</totfact>
</mgrwt>
</event>
<event>
12    1  0.7781383E-008  0.8785336E+03  0.7818608E-02  0.9452821E-01
          2   -1    0    0  501    0  0.00000000000E+00  0.00000000000E+00  0.15856791670E+04  0.15856791670E+04  0.00000000000E+00 0. -1.
         -2   -1    0    0    0  501 -0.00000000000E+00 -0.00000000000E+00 -0.50063983375E+03  0.50063983375E+03  0.00000000000E+00 0.  1.
         23    2    1    2    0    0  0.78426346201E+03 -0.62597715365E+02  0.51395644843E+03  0.94385750165E+03  0.87909616835E+02 0.  0.
    5000000    2    1    2    0    0 -0.78426346201E+03  0.62597715365E+02  0.57108288483E+03  0.11424614991E+04  0.60007913125E+03 0.  0.
         23    2    4    4    0    0 -0.20991538461E+03  0.28175151203E+03  0.15512870922E+03  0.39496899360E+03  0.92126034606E+02 0.  0.
         23    2    4    4    0    0 -0.57434807740E+03 -0.21915379667E+03  0.41595417560E+03  0.74749250550E+03  0.88448114541E+02 0.  0.
          1    1    3    3  502    0  0.40706575537E+03 -0.68657506826E+02  0.29838714974E+03  0.50936359663E+03  0.00000000000E+00 0. -1.
         -1    1    3    3    0  502  0.37719770664E+03  0.60597914619E+01  0.21556929868E+03  0.43449390503E+03  0.00000000000E+00 0.  1.
         15    1    5    5    0    0 -0.14518582676E+03  0.19728980797E+03  0.59947938948E+02  0.25218863125E+03  0.17770000000E+01 0.  1.
        -15    1    5    5    0    0 -0.64729557850E+02  0.84461704062E+02  0.95180770276E+02  0.14278036235E+03  0.17770000000E+01 0. -1.
          4    1    6    6  503    0 -0.10444056615E+03 -0.26490460142E+02  0.11295429873E+03  0.15610333097E+03  0.00000000000E+00 0. -1.
         -4    1    6    6    0  503 -0.46990751125E+03 -0.19266333652E+03  0.30299987687E+03  0.59138917453E+03  0.00000000000E+00 0.  1.
<mgrwt>
<rscale>  0 0.87853359E+03</rscale>
<asrwt>0</asrwt>
<pdfrwt beam="1">  1        2 0.24395064E+00 0.87853359E+03</pdfrwt>
<pdfrwt beam="2">  1       -2 0.77021513E-01 0.87853359E+03</pdfrwt>
<totfact> 0.17273303E+01</totfact>
</mgrwt>
</event>
<event>
12    1  0.7781383E-008  0.1109111E+04  0.7818608E-02  0.9196357E-01
         -2   -1    0    0    0  501 -0.00000000000E+00  0.00000000000E+00  0.99363013082E+03  0.99363013082E+03  0.00000000000E+00 0.  1.
          2   -1    0    0  501    0  0.00000000000E+00 -0.00000000000E+00 -0.13386008916E+04  0.13386008916E+04  0.00000000000E+00 0. -1.
         23    2    1    2    0    0 -0.79105286644E+03  0.66692771717E+03 -0.44930547126E+03  0.11316920074E+04  0.91072365594E+02 0.  0.
    5000000    2    1    2    0    0  0.79105286644E+03 -0.66692771717E+03  0.10433471051E+03  0.12005390150E+04  0.59987580145E+03 0.  0.
         23    2    4    4    0    0  0.31030088917E+03 -0.62058526324E+03  0.87408780135E+01  0.69990447821E+03  0.91526853420E+02 0.  0.
         23    2    4    4    0    0  0.48075197727E+03 -0.46342453928E+02  0.95593832501E+02  0.50063453674E+03  0.90701002663E+02 0.  0.
          3    1    3    3  502    0 -0.31462007264E+03  0.20804030922E+03 -0.16525795982E+03  0.41179698112E+03  0.00000000000E+00 0. -1.
         -3    1    3    3    0  502 -0.47643279380E+03  0.45888740794E+03 -0.28404751144E+03  0.71989502633E+03  0.00000000000E+00 0.  1.
         15    1    5    5    0    0  0.13903199281E+02 -0.61093045085E+02  0.22508008018E+02  0.66599003460E+02  0.17770000000E+01 0. -1.
        -15    1    5    5    0    0  0.29639768989E+03 -0.55949221815E+03 -0.13767130005E+02  0.63330547475E+03  0.17770000000E+01 0.  1.
          3    1    6    6  503    0  0.13941105184E+02 -0.59566490771E+01 -0.12643721528E+02  0.19740814980E+02  0.00000000000E+00 0. -1.
         -3    1    6    6    0  503  0.46681087208E+03 -0.40385804851E+02  0.10823755403E+03  0.48089372176E+03  0.00000000000E+00 0.  1.
<mgrwt>
<rscale>  0 0.11091105E+04</rscale>
<asrwt>0</asrwt>
<pdfrwt beam="1">  1        2 0.20593860E+00 0.11091105E+04</pdfrwt>
<pdfrwt beam="2">  1       -2 0.15286617E+00 0.11091105E+04</pdfrwt>
<totfact> 0.43856123E+00</totfact>
</mgrwt>
</event>
<event>
12    1  0.7781383E-008  0.8004015E+03  0.7818608E-02  0.9559436E-01
         -2   -1    0    0    0  501 -0.00000000000E+00  0.00000000000E+00  0.26037173447E+03  0.26037173447E+03  0.00000000000E+00 0.  1.
          2   -1    0    0  501    0  0.00000000000E+00 -0.00000000000E+00 -0.27110789038E+04  0.27110789038E+04  0.00000000000E+00 0. -1.
         23    2    1    2    0    0  0.42484498408E+03  0.56064327711E+03 -0.72814729238E+03  0.10164505949E+04  0.90328223111E+02 0.  0.
    5000000    2    1    2    0    0 -0.42484498408E+03 -0.56064327711E+03 -0.17225598769E+04  0.19550000433E+04  0.59999874588E+03 0.  0.
         23    2    4    4    0    0 -0.51381121968E+03 -0.57380526082E+03 -0.13071320211E+04  0.15198843268E+04  0.90552742872E+02 0.  0.
         23    2    4    4    0    0  0.88966235598E+02  0.13161983712E+02 -0.41542785579E+03  0.43511571654E+03  0.93043831200E+02 0.  0.
          2    1    3    3  502    0  0.28092098414E+03  0.37677961742E+03 -0.42369281548E+03  0.63276779416E+03  0.00000000000E+00 0. -1.
         -2    1    3    3    0  502  0.14392399994E+03  0.18386365968E+03 -0.30445447690E+03  0.38368280078E+03  0.00000000000E+00 0.  1.
         15    1    5    5    0    0 -0.43046160884E+03 -0.48066486748E+03 -0.10232861490E+04  0.12097328680E+04  0.17770000000E+01 0.  1.
        -15    1    5    5    0    0 -0.83349610839E+02 -0.93140393337E+02 -0.28384587213E+03  0.31015145873E+03  0.17770000000E+01 0. -1.
          1    1    6    6  503    0  0.79885122817E+02 -0.28216004171E+02 -0.31323535200E+03  0.32449061848E+03  0.00000000000E+00 0. -1.
         -1    1    6    6    0  503  0.90811127808E+01  0.41377987882E+02 -0.10219250379E+03  0.11062509806E+03  0.00000000000E+00 0.  1.
<mgrwt>
<rscale>  0 0.80040151E+03</rscale>
<asrwt>0</asrwt>
<pdfrwt beam="1">  1        2 0.41708907E+00 0.80040151E+03</pdfrwt>
<pdfrwt beam="2">  1       -2 0.40057189E-01 0.80040151E+03</pdfrwt>
<totfact> 0.16104429E+01</totfact>
</mgrwt>
</event>
<event>
12    1  0.7781383E-008  0.3496241E+03  0.7818608E-02  0.1062769E+00
          2   -1    0    0  501    0  0.00000000000E+00  0.00000000000E+00  0.35845952859E+04  0.35845952859E+04  0.00000000000E+00 0. -1.
         -2   -1    0    0    0  501 -0.00000000000E+00 -0.00000000000E+00 -0.65349569799E+02  0.65349569799E+02  0.00000000000E+00 0.  1.
         23    2    1    2    0    0  0.13216746245E+03  0.21032775129E+02  0.14182796383E+03  0.21701157761E+03  0.95227295106E+02 0.  0.
    5000000    2    1    2    0    0 -0.13216746245E+03 -0.21032775129E+02  0.33774177523E+04  0.34329332781E+04  0.60014131892E+03 0.  0.
         23    2    4    4    0    0  0.13403039349E+03 -0.16985460996E+03  0.22455262201E+04  0.22578314761E+04  0.92737447788E+02 0.  0.
         23    2    4    4    0    0 -0.26619785594E+03  0.14882183483E+03  0.11318915322E+04  0.11751018020E+04  0.81710265554E+02 0.  0.
          3    1    3    3  502    0  0.74826831752E+02  0.55254376778E+02  0.57145580693E+02  0.10916830262E+03  0.00000000000E+00 0. -1.
         -3    1    3    3    0  502  0.57340630698E+02 -0.34221601649E+02  0.84682383134E+02  0.10784327499E+03  0.00000000000E+00 0.  1.
         15    1    5    5    0    0  0.22392580215E+02 -0.71559819493E+02  0.45536800852E+03  0.46150343046E+03  0.17770000000E+01 0. -1.
        -15    1    5    5    0    0  0.11163781327E+03 -0.98294790466E+02  0.17901582116E+04  0.17963280456E+04  0.17770000000E+01 0.  1.
          2    1    6    6  503    0 -0.18835586818E+03  0.14510414915E+03  0.85973337450E+03  0.89200595425E+03  0.00000000000E+00 0.  1.
         -2    1    6    6    0  503 -0.77841987755E+02  0.37176856846E+01  0.27215815765E+03  0.28309584776E+03  0.00000000000E+00 0. -1.
<mgrwt>
<rscale>  0 0.34962408E+03</rscale>
<asrwt>0</asrwt>
<pdfrwt beam="1">  1        2 0.55147605E+00 0.34962408E+03</pdfrwt>
<pdfrwt beam="2">  1       -2 0.10053783E-01 0.34962408E+03</pdfrwt>
<totfact> 0.56942970E+01</totfact>
</mgrwt>
</event>
<event>
12    1  0.7781383E-008  0.6266052E+03  0.7818608E-02  0.9851696E-01
          2   -1    0    0  501    0  0.00000000000E+00  0.00000000000E+00  0.25796389232E+04  0.25796389232E+04  0.00000000000E+00 0. -1.
         -2   -1    0    0    0  501 -0.00000000000E+00 -0.00000000000E+00 -0.17064635894E+03  0.17064635894E+03  0.00000000000E+00 0.  1.
         23    2    1    2    0    0  0.18827359283E+03  0.45735992118E+03  0.60339480436E+03  0.78437938406E+03  0.80874501178E+02 0.  0.
    5000000    2    1    2    0    0 -0.18827359283E+03 -0.45735992118E+03  0.18055977599E+04  0.19659058981E+04  0.59998140497E+03 0.  0.
         23    2    4    4    0    0 -0.18301080247E+03  0.87722152828E+02  0.45273763820E+03  0.50442771862E+03  0.91037488727E+02 0.  0.
         23    2    4    4    0    0 -0.52627903539E+01 -0.54508207401E+03  0.13528601217E+04  0.14614781795E+04  0.92443473459E+02 0.  0.
          3    1    3    3  502    0  0.19530441420E+03  0.42212212700E+03  0.56439783277E+03  0.73135204789E+03  0.00000000000E+00 0. -1.
         -3    1    3    3    0  502 -0.70308213739E+01  0.35237794188E+02  0.38996971591E+02  0.53027336174E+02  0.00000000000E+00 0.  1.
         15    1    5    5    0    0 -0.13080134780E+03  0.50716376662E+02  0.39132262076E+03  0.41571347668E+03  0.17770000000E+01 0.  1.
        -15    1    5    5    0    0 -0.52209454674E+02  0.37005776166E+02  0.61415017441E+02  0.88714241942E+02  0.17770000000E+01 0. -1.
          3    1    6    6  503    0 -0.29373343605E+02 -0.23542927191E+03  0.48989774135E+03  0.54432484085E+03  0.00000000000E+00 0. -1.
         -3    1    6    6    0  503  0.24110553251E+02 -0.30965280211E+03  0.86296238035E+03  0.91715333861E+03  0.00000000000E+00 0.  1.
<mgrwt>
<rscale>  0 0.62660522E+03</rscale>
<asrwt>0</asrwt>
<pdfrwt beam="1">  1        2 0.39686750E+00 0.62660522E+03</pdfrwt>
<pdfrwt beam="2">  1       -2 0.26253288E-01 0.62660522E+03</pdfrwt>
<totfact> 0.43617684E+01</totfact>
</mgrwt>
</event>
<event>
12    1  0.7781383E-008  0.4307925E+03  0.7818608E-02  0.1033610E+00
          1   -1    0    0  501    0  0.00000000000E+00  0.00000000000E+00  0.25089216102E+04  0.25089216102E+04  0.00000000000E+00 0. -1.
         -1   -1    0    0    0  501 -0.00000000000E+00 -0.00000000000E+00 -0.12960384424E+04  0.12960384424E+04  0.00000000000E+00 0.  1.
         23    2    1    2    0    0 -0.24453290360E+03 -0.26506825615E+03 -0.12189536167E+04  0.12743800693E+04  0.90217071259E+02 0.  0.
    5000000    2    1    2    0    0  0.24453290360E+03  0.26506825615E+03  0.24318367845E+04  0.25305799832E+04  0.59995615155E+03 0.  0.
         23    2    4    4    0    0  0.11264680437E+03 -0.64112966367E+02  0.14397131569E+03  0.21367301831E+03  0.90158993020E+02 0.  0.
         23    2    4    4    0    0  0.13188609923E+03  0.32918122252E+03  0.22878654688E+04  0.23169069649E+04  0.89304313083E+02 0.  0.
          3    1    3    3  502    0 -0.12546426318E+03 -0.18755312069E+03 -0.65392661351E+03  0.69176402789E+03  0.00000000000E+00 0. -1.
         -3    1    3    3    0  502 -0.11906864042E+03 -0.77515135460E+02 -0.56502700323E+03  0.58261604144E+03  0.00000000000E+00 0.  1.
         15    1    5    5    0    0  0.64844735459E+02 -0.54843769399E+02  0.14130842616E+03  0.16487543113E+03  0.17770000000E+01 0.  1.
        -15    1    5    5    0    0  0.47802068915E+02 -0.92691969677E+01  0.26628895282E+01  0.48797587180E+02  0.17770000000E+01 0. -1.
          2    1    6    6  503    0  0.11255071627E+03  0.19937894300E+03  0.12520843009E+04  0.12728451293E+04  0.00000000000E+00 0.  1.
         -2    1    6    6    0  503  0.19335382957E+02  0.12980227953E+03  0.10357811679E+04  0.10440618356E+04  0.00000000000E+00 0. -1.
<mgrwt>
<rscale>  0 0.43079248E+03</rscale>
<asrwt>0</asrwt>
<pdfrwt beam="1">  1        1 0.38598794E+00 0.43079248E+03</pdfrwt>
<pdfrwt beam="2">  1       -1 0.19939053E+00 0.43079248E+03</pdfrwt>
<totfact> 0.24451816E-01</totfact>
</mgrwt>
</event>
<event>
12    1  0.7781383E-008  0.5746160E+03  0.7818608E-02  0.9959516E-01
         -2   -1    0    0    0  501 -0.00000000000E+00  0.00000000000E+00  0.37974622386E+03  0.37974622386E+03  0.00000000000E+00 0.  1.
          2   -1    0    0  501    0  0.00000000000E+00 -0.00000000000E+00 -0.16897003301E+04  0.16897003301E+04  0.00000000000E+00 0. -1.
         23    2    1    2    0    0  0.37223556826E+03  0.20968519788E+03 -0.12576945934E+04  0.13313987627E+04  0.91103098652E+02 0.  0.
    5000000    2    1    2    0    0 -0.37223556826E+03 -0.20968519788E+03 -0.52259512829E+02  0.73804779124E+03  0.59954673295E+03 0.  0.
         23    2    4    4    0    0 -0.34210026340E+03  0.12541509523E+03  0.39132454196E+02  0.37735333450E+03  0.90014741891E+02 0.  0.
         23    2    4    4    0    0 -0.30135304863E+02 -0.33510029310E+03 -0.91391967025E+02  0.36069445674E+03  0.92453536711E+02 0.  0.
          1    1    3    3  502    0  0.11345569532E+03  0.10303627604E+03 -0.36553412276E+03  0.39636329784E+03  0.00000000000E+00 0. -1.
         -1    1    3    3    0  502  0.25877987294E+03  0.10664892184E+03 -0.89216047068E+03  0.93503546490E+03  0.00000000000E+00 0.  1.
         15    1    5    5    0    0 -0.28952547180E+03  0.87572487726E+02  0.61738720772E+02  0.30872117970E+03  0.17770000000E+01 0.  1.
        -15    1    5    5    0    0 -0.52574791602E+02  0.37842607500E+02 -0.22606266576E+02  0.68632154795E+02  0.17770000000E+01 0. -1.
          1    1    6    6  503    0  0.29182763922E+02 -0.18681316075E+03 -0.54519412312E+02  0.19678200390E+03  0.00000000000E+00 0. -1.
         -1    1    6    6    0  503 -0.59318068785E+02 -0.14828713236E+03 -0.36872554713E+02  0.16391245285E+03  0.00000000000E+00 0.  1.
<mgrwt>
<rscale>  0 0.57461600E+03</rscale>
<asrwt>0</asrwt>
<pdfrwt beam="1">  1        2 0.25995389E+00 0.57461600E+03</pdfrwt>
<pdfrwt beam="2">  1       -2 0.58422497E-01 0.57461600E+03</pdfrwt>
<totfact> 0.28648953E+01</totfact>
</mgrwt>
</event>
<event>
12    1  0.7781383E-008  0.9803328E+03  0.7818608E-02  0.9330382E-01
         -1   -1    0    0    0  501 -0.00000000000E+00  0.00000000000E+00  0.82753018088E+03  0.82753018088E+03  0.00000000000E+00 0.  1.
          1   -1    0    0  501    0  0.00000000000E+00 -0.00000000000E+00 -0.12409151547E+04  0.12409151547E+04  0.00000000000E+00 0. -1.
         23    2    1    2    0    0 -0.46458219059E+03  0.77983554997E+03 -0.23992907905E+02  0.91276863930E+03  0.92686743724E+02 0.  0.
    5000000    2    1    2    0    0  0.46458219059E+03 -0.77983554997E+03 -0.38939206595E+03  0.11556766963E+04  0.59998529031E+03 0.  0.
         23    2    4    4    0    0  0.54723163081E+03 -0.77221795384E+03 -0.28157486262E+03  0.99170561187E+03  0.91720179705E+02 0.  0.
         23    2    4    4    0    0 -0.82649440227E+02 -0.76175961303E+01 -0.10781720333E+03  0.16397108445E+03  0.91504149969E+02 0.  0.
          4    1    3    3  502    0 -0.62723997326E+02  0.17065611102E+03  0.10928752075E+02  0.18214622063E+03  0.00000000000E+00 0. -1.
         -4    1    3    3    0  502 -0.40185819326E+03  0.60917943895E+03 -0.34921659979E+02  0.73062241867E+03  0.00000000000E+00 0.  1.
         15    1    5    5    0    0  0.28805489965E+03 -0.34604539565E+03 -0.10279348187E+03  0.46183622498E+03  0.17770000000E+01 0.  1.
        -15    1    5    5    0    0  0.25917673117E+03 -0.42617255819E+03 -0.17878138076E+03  0.52986938689E+03  0.17770000000E+01 0. -1.
          4    1    6    6  503    0 -0.76948211067E+02  0.13512647285E+02 -0.30923004110E+02  0.84022919529E+02  0.00000000000E+00 0. -1.
         -4    1    6    6    0  503 -0.57012291599E+01 -0.21130243415E+02 -0.76894199219E+02  0.79948164921E+02  0.00000000000E+00 0.  1.
<mgrwt>
<rscale>  0 0.98033278E+03</rscale>
<asrwt>0</asrwt>
<pdfrwt beam="1">  1        1 0.19091002E+00 0.98033278E+03</pdfrwt>
<pdfrwt beam="2">  1       -1 0.12731234E+00 0.98033278E+03</pdfrwt>
<totfact> 0.53644707E+00</totfact>
</mgrwt>
</event>
<event>
12    1  0.7781383E-008  0.8840138E+03  0.7818608E-02  0.9445789E-01
         -1   -1    0    0    0  501 -0.00000000000E+00  0.00000000000E+00  0.48392309867E+03  0.48392309867E+03  0.00000000000E+00 0.  1.
          1   -1    0    0  501    0  0.00000000000E+00 -0.00000000000E+00 -0.17377896870E+04  0.17377896870E+04  0.00000000000E+00 0. -1.
         23    2    1    2    0    0 -0.76417498160E+03 -0.21436551707E+03 -0.79084324708E+03  0.11242183486E+04  0.92292342299E+02 0.  0.
    5000000    2    1    2    0    0  0.76417498160E+03  0.21436551707E+03 -0.46302334122E+03  0.10974944370E+04  0.60015618586E+03 0.  0.
         23    2    4    4    0    0  0.81367303794E+03  0.10594615472E+03 -0.46307043112E+03  0.94665341752E+03  0.91815403673E+02 0.  0.
         23    2    4    4    0    0 -0.49498056342E+02  0.10841936235E+03  0.47089906279E-01  0.15084101953E+03  0.92456450510E+02 0.  0.
          1    1    3    3  502    0 -0.46247958932E+03 -0.83294432883E+02 -0.45401218563E+03  0.65341594546E+03  0.00000000000E+00 0. -1.
         -1    1    3    3    0  502 -0.30169539228E+03 -0.13107108419E+03 -0.33683106145E+03  0.47080240313E+03  0.00000000000E+00 0.  1.
         15    1    5    5    0    0  0.60671786980E+03  0.70283068393E+02 -0.38814446941E+03  0.72367504454E+03  0.17770000000E+01 0.  1.
        -15    1    5    5    0    0  0.20695516814E+03  0.35663086328E+02 -0.74925961715E+02  0.22297837298E+03  0.17770000000E+01 0. -1.
          3    1    6    6  503    0  0.22546286957E+02  0.52639826030E+02 -0.13206612300E+02  0.58768196743E+02  0.00000000000E+00 0. -1.
         -3    1    6    6    0  503 -0.72044343299E+02  0.55779536317E+02  0.13253702206E+02  0.92072822783E+02  0.00000000000E+00 0.  1.
<mgrwt>
<rscale>  0 0.88401377E+03</rscale>
<asrwt>0</asrwt>
<pdfrwt beam="1">  1        1 0.26735226E+00 0.88401377E+03</pdfrwt>
<pdfrwt beam="2">  1       -1 0.74449708E-01 0.88401377E+03</pdfrwt>
<totfact> 0.83406475E+00</totfact>
</mgrwt>
</event>
<event>
12    1  0.7781383E-008  0.7844689E+03  0.7818608E-02  0.9582774E-01
         -2   -1    0    0    0  501 -0.00000000000E+00  0.00000000000E+00  0.36789139149E+03  0.36789139149E+03  0.00000000000E+00 0.  1.
          2   -1    0    0  501    0  0.00000000000E+00 -0.00000000000E+00 -0.20498039108E+04  0.20498039108E+04  0.00000000000E+00 0. -1.
         23    2    1    2    0    0 -0.53050897666E+03 -0.41822321135E+03 -0.12347347143E+04  0.14096684629E+04  0.79024881099E+02 0.  0.
    5000000    2    1    2    0    0  0.53050897666E+03  0.41822321135E+03 -0.44717780503E+03  0.10080268394E+04  0.59983305241E+03 0.  0.
         23    2    4    4    0    0  0.31101662785E+03 -0.83155330484E+02 -0.25590525738E+03  0.42122366861E+03  0.91080878646E+02 0.  0.
         23    2    4    4    0    0  0.21949234882E+03  0.50137854184E+03 -0.19127254764E+03  0.58680317077E+03  0.90528671352E+02 0.  0.
          3    1    3    3  502    0 -0.38256357091E+03 -0.34452748495E+03 -0.93985706874E+03  0.10716274461E+04  0.00000000000E+00 0. -1.
         -3    1    3    3    0  502 -0.14794540575E+03 -0.73695726400E+02 -0.29487764554E+03  0.33804101676E+03  0.00000000000E+00 0.  1.
         15    1    5    5    0    0  0.11487879700E+03  0.13108163458E+02 -0.98999305644E+02  0.15222674600E+03  0.17770000000E+01 0.  1.
        -15    1    5    5    0    0  0.19613783084E+03 -0.96263493942E+02 -0.15690595174E+03  0.26899692261E+03  0.17770000000E+01 0. -1.
          4    1    6    6  503    0  0.89691824840E+02  0.31530453540E+03 -0.10853186263E+03  0.34531252322E+03  0.00000000000E+00 0. -1.
         -4    1    6    6    0  503  0.12980052398E+03  0.18607400644E+03 -0.82740685014E+02  0.24149064755E+03  0.00000000000E+00 0.  1.
<mgrwt>
<rscale>  0 0.78446893E+03</rscale>
<asrwt>0</asrwt>
<pdfrwt beam="1">  1        2 0.31535445E+00 0.78446893E+03</pdfrwt>
<pdfrwt beam="2">  1       -2 0.56598676E-01 0.78446893E+03</pdfrwt>
<totfact> 0.18912659E+01</totfact>
</mgrwt>
</event>
<event>
12    1  0.7781383E-008  0.1257306E+04  0.7818608E-02  0.9064124E-01
          2   -1    0    0  501    0  0.00000000000E+00  0.00000000000E+00  0.11898777336E+04  0.11898777336E+04  0.00000000000E+00 0. -1.
         -2   -1    0    0    0  501 -0.00000000000E+00 -0.00000000000E+00 -0.13840930067E+04  0.13840930067E+04  0.00000000000E+00 0.  1.
         23    2    1    2    0    0 -0.12051051773E+04 -0.12076946733E+03 -0.70649178077E+02  0.12167145681E+04  0.92408231911E+02 0.  0.
    5000000    2    1    2    0    0  0.12051051773E+04  0.12076946733E+03 -0.12356609503E+03  0.13572561722E+04  0.60000998698E+03 0.  0.
         23    2    4    4    0    0  0.71405314782E+03 -0.15869487951E+03  0.96963839052E+02  0.74371532465E+03  0.93029755067E+02 0.  0.
         23    2    4    4    0    0  0.49105202949E+03  0.27946434684E+03 -0.22052993408E+03  0.61354084754E+03  0.92555404780E+02 0.  0.
          1    1    3    3  502    0 -0.74033815990E+03 -0.11702914467E+03 -0.29430616384E+02  0.75010837410E+03  0.00000000000E+00 0. -1.
         -1    1    3    3    0  502 -0.46476701741E+03 -0.37403226526E+01 -0.41218561693E+02  0.46660619404E+03  0.00000000000E+00 0.  1.
         15    1    5    5    0    0  0.10609041138E+03 -0.51472286791E+02 -0.48367825843E+01  0.11803018211E+03  0.17770000000E+01 0.  1.
        -15    1    5    5    0    0  0.60796273644E+03 -0.10722259272E+03  0.10180062164E+03  0.62568514254E+03  0.17770000000E+01 0. -1.
          1    1    6    6  503    0  0.46171780893E+03  0.26170029369E+03 -0.17993384131E+03  0.56039857784E+03  0.00000000000E+00 0. -1.
         -1    1    6    6    0  503  0.29334220562E+02  0.17764053153E+02 -0.40596092775E+02  0.53142269701E+02  0.00000000000E+00 0.  1.
<mgrwt>
<rscale>  0 0.12573059E+04</rscale>
<asrwt>0</asrwt>
<pdfrwt beam="1">  1        2 0.18305811E+00 0.12573059E+04</pdfrwt>
<pdfrwt beam="2">  1       -2 0.21293739E+00 0.12573059E+04</pdfrwt>
<totfact> 0.20335947E+00</totfact>
</mgrwt>
</event>
<event>
12    1  0.7781383E-008  0.4884651E+03  0.7818608E-02  0.1016834E+00
         -1   -1    0    0    0  501 -0.00000000000E+00  0.00000000000E+00  0.18382884092E+03  0.18382884092E+03  0.00000000000E+00 0.  1.
          1   -1    0    0  501    0  0.00000000000E+00 -0.00000000000E+00 -0.13294193852E+04  0.13294193852E+04  0.00000000000E+00 0. -1.
         23    2    1    2    0    0  0.17897961243E+03 -0.24345461730E+03 -0.36204593286E+03  0.48112663695E+03  0.95402992260E+02 0.  0.
    5000000    2    1    2    0    0 -0.17897961243E+03  0.24345461730E+03 -0.78354461144E+03  0.10321215892E+04  0.60002413653E+03 0.  0.
         23    2    4    4    0    0 -0.37240188305E+03  0.24325257457E+03 -0.47908105848E+03  0.66008589672E+03  0.91322247709E+02 0.  0.
         23    2    4    4    0    0  0.19342227062E+03  0.20204272510E+00 -0.30446355296E+03  0.37203569247E+03  0.91105904305E+02 0.  0.
          2    1    3    3  502    0  0.15240015364E+02 -0.91990792322E+02 -0.12018352212E+03  0.15211391432E+03  0.00000000000E+00 0. -1.
         -2    1    3    3    0  502  0.16373959706E+03 -0.15146382497E+03 -0.24186241074E+03  0.32901272263E+03  0.00000000000E+00 0.  1.
         15    1    5    5    0    0 -0.10525441016E+03  0.24245007675E+02 -0.12906512166E+03  0.16830708426E+03  0.17770000000E+01 0.  1.
        -15    1    5    5    0    0 -0.26714747289E+03  0.21900756690E+03 -0.35001593682E+03  0.49177881246E+03  0.17770000000E+01 0. -1.
          3    1    6    6  503    0  0.57007991955E+02  0.34322317563E+02 -0.57962165646E+02  0.88247069504E+02  0.00000000000E+00 0. -1.
         -3    1    6    6    0  503  0.13641427866E+03 -0.34120274838E+02 -0.24650138732E+03  0.28378862297E+03  0.00000000000E+00 0.  1.
<mgrwt>
<rscale>  0 0.48846506E+03</rscale>
<asrwt>0</asrwt>
<pdfrwt beam="1">  1        1 0.20452606E+00 0.48846506E+03</pdfrwt>
<pdfrwt beam="2">  1       -1 0.28281360E-01 0.48846506E+03</pdfrwt>
<totfact> 0.10242229E+02</totfact>
</mgrwt>
</event>
<event>
12    1  0.7781383E-008  0.1295564E+04  0.7818608E-02  0.9033090E-01
          2   -1    0    0  501    0  0.00000000000E+00  0.00000000000E+00  0.20330375263E+04  0.20330375263E+04  0.00000000000E+00 0. -1.
         -2   -1    0    0    0  501 -0.00000000000E+00 -0.00000000000E+00 -0.89454700089E+03  0.89454700089E+03  0.00000000000E+00 0.  1.
         23    2    1    2    0    0 -0.45743093349E+02  0.12308652934E+04  0.16313288428E+03  0.12457951497E+04  0.90947324404E+02 0.  0.
    5000000    2    1    2    0    0  0.45743093349E+02 -0.12308652934E+04  0.97535764113E+03  0.16817893775E+04  0.59997598379E+03 0.  0.
         23    2    4    4    0    0  0.28279674514E+03 -0.87968566964E+03  0.57970730184E+03  0.10948280445E+04  0.93632338226E+02 0.  0.
         23    2    4    4    0    0 -0.23705365180E+03 -0.35117962379E+03  0.39565033928E+03  0.58696133304E+03  0.91993768905E+02 0.  0.
          3    1    3    3  502    0 -0.37362269046E+01  0.93754719599E+03  0.10038633120E+03  0.94291363316E+03  0.00000000000E+00 0. -1.
         -3    1    3    3    0  502 -0.42006866444E+02  0.29331809744E+03  0.62746553084E+02  0.30288151650E+03  0.00000000000E+00 0.  1.
         15    1    5    5    0    0  0.18035883504E+03 -0.60825530710E+03  0.34853274612E+03  0.72386605173E+03  0.17770000000E+01 0.  1.
        -15    1    5    5    0    0  0.10243791010E+03 -0.27143036254E+03  0.23117455572E+03  0.37096199276E+03  0.17770000000E+01 0. -1.
          1    1    6    6  503    0 -0.20072358821E+03 -0.22556400566E+03  0.29280403528E+03  0.42059871920E+03  0.00000000000E+00 0. -1.
         -1    1    6    6    0  503 -0.36330063585E+02 -0.12561561813E+03  0.10284630400E+03  0.16636261385E+03  0.00000000000E+00 0.  1.
<mgrwt>
<rscale>  0 0.12955642E+04</rscale>
<asrwt>0</asrwt>
<pdfrwt beam="1">  1        2 0.31277500E+00 0.12955642E+04</pdfrwt>
<pdfrwt beam="2">  1       -2 0.13762262E+00 0.12955642E+04</pdfrwt>
<totfact> 0.23198804E+00</totfact>
</mgrwt>
</event>
<event>
12    1  0.7781383E-008  0.4395602E+03  0.7818608E-02  0.1030882E+00
          2   -1    0    0  501    0  0.00000000000E+00  0.00000000000E+00  0.33152971731E+03  0.33152971731E+03  0.00000000000E+00 0. -1.
         -2   -1    0    0    0  501 -0.00000000000E+00 -0.00000000000E+00 -0.61730273997E+03  0.61730273997E+03  0.00000000000E+00 0.  1.
         23    2    1    2    0    0  0.23472019540E+03 -0.55115308167E+02 -0.96334958522E+02  0.27494397277E+03  0.90457153445E+02 0.  0.
    5000000    2    1    2    0    0 -0.23472019540E+03  0.55115308167E+02 -0.18943806414E+03  0.67388848450E+03  0.60008969502E+03 0.  0.
         23    2    4    4    0    0  0.17973218927E+03 -0.49817288965E+02 -0.86648688440E+02  0.22424671899E+03  0.89404550385E+02 0.  0.
         23    2    4    4    0    0 -0.41445238467E+03  0.10493259713E+03 -0.10278937570E+03  0.44964176551E+03  0.93970380628E+02 0.  0.
          3    1    3    3  502    0  0.12866811176E+03 -0.75510301555E+02 -0.48990244695E+02  0.15702653502E+03  0.00000000000E+00 0. -1.
         -3    1    3    3    0  502  0.10605208364E+03  0.20394993388E+02 -0.47344713827E+02  0.11791743776E+03  0.00000000000E+00 0.  1.
         15    1    5    5    0    0  0.15243320757E+02 -0.12243909101E+02  0.17211970960E+02  0.26109036962E+02  0.17770000000E+01 0.  1.
        -15    1    5    5    0    0  0.16448886851E+03 -0.37573379865E+02 -0.10386065940E+03  0.19813768203E+03  0.17770000000E+01 0. -1.
          3    1    6    6  503    0 -0.20173051625E+03  0.88264266559E+02 -0.83129033882E+02  0.23536401214E+03  0.00000000000E+00 0. -1.
         -3    1    6    6    0  503 -0.21272186842E+03  0.16668330573E+02 -0.19660341817E+02  0.21427775337E+03  0.00000000000E+00 0.  1.
<mgrwt>
<rscale>  0 0.43956015E+03</rscale>
<asrwt>0</asrwt>
<pdfrwt beam="1">  1        2 0.51004573E-01 0.43956015E+03</pdfrwt>
<pdfrwt beam="2">  1       -2 0.94969651E-01 0.43956015E+03</pdfrwt>
<totfact> 0.94219178E+01</totfact>
</mgrwt>
</event>
<event>
12    1  0.7781383E-008  0.8789348E+03  0.7818608E-02  0.9452304E-01
          2   -1    0    0  501    0  0.00000000000E+00  0.00000000000E+00  0.27637470008E+04  0.27637470008E+04  0.00000000000E+00 0. -1.
         -2   -1    0    0    0  501 -0.00000000000E+00 -0.00000000000E+00 -0.70068277499E+03  0.70068277499E+03  0.00000000000E+00 0.  1.
         23    2    1    2    0    0 -0.82233282370E+03 -0.25451992787E+03 -0.26955526242E+03  0.90670337044E+03  0.91865640256E+02 0.  0.
    5000000    2    1    2    0    0  0.82233282370E+03  0.25451992787E+03  0.23326194882E+04  0.25577264054E+04  0.59986583592E+03 0.  0.
         23    2    4    4    0    0  0.68001731797E+03  0.10816560352E+03  0.21766184070E+04  0.22847630378E+04  0.91384344654E+02 0.  0.
         23    2    4    4    0    0  0.14231550572E+03  0.14635432435E+03  0.15600108120E+03  0.27296336757E+03  0.92192034753E+02 0.  0.
          3    1    3    3  502    0 -0.27826852293E+03 -0.10465711547E+03 -0.51568060933E+02  0.30173787893E+03  0.00000000000E+00 0. -1.
         -3    1    3    3    0  502 -0.54406430077E+03 -0.14986281240E+03 -0.21798720149E+03  0.60496549152E+03  0.00000000000E+00 0.  1.
         15    1    5    5    0    0  0.42333167351E+03  0.86248730185E+02  0.12278989655E+04  0.13016864356E+04  0.17770000000E+01 0.  1.
        -15    1    5    5    0    0  0.25668564446E+03  0.21916873339E+02  0.94871944151E+03  0.98307660222E+03  0.17770000000E+01 0. -1.
          4    1    6    6  503    0  0.70342644944E+02  0.49925837527E+02  0.14923010976E+02  0.87540694577E+02  0.00000000000E+00 0. -1.
         -4    1    6    6    0  503  0.71972860780E+02  0.96428486820E+02  0.14107807023E+03  0.18542267299E+03  0.00000000000E+00 0.  1.
<mgrwt>
<rscale>  0 0.87893476E+03</rscale>
<asrwt>0</asrwt>
<pdfrwt beam="1">  1        2 0.42519184E+00 0.87893476E+03</pdfrwt>
<pdfrwt beam="2">  1       -2 0.10779735E+00 0.87893476E+03</pdfrwt>
<totfact> 0.17343971E+00</totfact>
</mgrwt>
</event>
<event>
12    1  0.7781383E-008  0.6247143E+03  0.7818608E-02  0.9855418E-01
         -1   -1    0    0    0  501 -0.00000000000E+00  0.00000000000E+00  0.55972602228E+03  0.55972602228E+03  0.00000000000E+00 0.  1.
          1   -1    0    0  501    0  0.00000000000E+00 -0.00000000000E+00 -0.10460493849E+04  0.10460493849E+04  0.00000000000E+00 0. -1.
         23    2    1    2    0    0 -0.10747719356E+03 -0.57379805756E+03  0.84707584038E+02  0.59235668120E+03  0.53995416267E+02 0.  0.
    5000000    2    1    2    0    0  0.10747719356E+03  0.57379805756E+03 -0.57103094667E+03  0.10134187260E+04  0.60012133287E+03 0.  0.
         23    2    4    4    0    0 -0.74159748942E+00  0.14595689748E+02 -0.40025783817E+03  0.41101494836E+03  0.92267906855E+02 0.  0.
         23    2    4    4    0    0  0.10821879105E+03  0.55920236781E+03 -0.17077310850E+03  0.60240377764E+03  0.96479333672E+02 0.  0.
          1    1    3    3  502    0 -0.10145811352E+03 -0.43468904283E+03  0.52575037366E+02  0.44945794832E+03  0.00000000000E+00 0. -1.
         -1    1    3    3    0  502 -0.60190800416E+01 -0.13910901473E+03  0.32132546672E+02  0.14289873288E+03  0.00000000000E+00 0.  1.
         15    1    5    5    0    0 -0.28762554072E+02  0.40032928707E+02 -0.14991161367E+03  0.15781815339E+03  0.17770000000E+01 0. -1.
        -15    1    5    5    0    0  0.28020956583E+02 -0.25437238959E+02 -0.25034622451E+03  0.25319679498E+03  0.17770000000E+01 0.  1.
          1    1    6    6  503    0  0.94859652357E+02  0.25441145340E+03 -0.98869444275E+02  0.28896143043E+03  0.00000000000E+00 0.  1.
         -1    1    6    6    0  503  0.13359138696E+02  0.30479091441E+03 -0.71903664228E+02  0.31344234720E+03  0.00000000000E+00 0. -1.
<mgrwt>
<rscale>  0 0.62471431E+03</rscale>
<asrwt>0</asrwt>
<pdfrwt beam="1">  1        1 0.16093067E+00 0.62471431E+03</pdfrwt>
<pdfrwt beam="2">  1       -1 0.86111696E-01 0.62471431E+03</pdfrwt>
<totfact> 0.19427036E+01</totfact>
</mgrwt>
</event>
<event>
12    1  0.7781383E-008  0.4041507E+03  0.7818608E-02  0.1042352E+00
          1   -1    0    0  501    0  0.00000000000E+00  0.00000000000E+00  0.18298192775E+04  0.18298192775E+04  0.00000000000E+00 0. -1.
         -1   -1    0    0    0  501 -0.00000000000E+00 -0.00000000000E+00 -0.12034713936E+03  0.12034713936E+03  0.00000000000E+00 0.  1.
         23    2    1    2    0    0  0.15609233962E+03  0.14250407965E+03  0.85086587525E+03  0.88162616453E+03  0.92842474707E+02 0.  0.
    5000000    2    1    2    0    0 -0.15609233962E+03 -0.14250407965E+03  0.85860626285E+03  0.10685402523E+04  0.59991776516E+03 0.  0.
         23    2    4    4    0    0 -0.15527258405E+03  0.18902707649E+03  0.53939591039E+03  0.59929280173E+03  0.91450003025E+02 0.  0.
         23    2    4    4    0    0 -0.81975556852E+00 -0.33153115615E+03  0.31921035246E+03  0.46924745056E+03  0.91566048521E+02 0.  0.
          2    1    3    3  502    0  0.13683016533E+03  0.11475547991E+03  0.53628734149E+03  0.56523926523E+03  0.00000000000E+00 0. -1.
         -2    1    3    3    0  502  0.19262174292E+02  0.27748599745E+02  0.31457853376E+03  0.31638689930E+03  0.00000000000E+00 0.  1.
         15    1    5    5    0    0 -0.46389954071E+01  0.65935211786E+02  0.15344384120E+03  0.16708423792E+03  0.17770000000E+01 0.  1.
        -15    1    5    5    0    0 -0.15063358865E+03  0.12309186471E+03  0.38595206920E+03  0.43220856381E+03  0.17770000000E+01 0. -1.
          3    1    6    6  503    0 -0.25131432455E+02 -0.14349432961E+03  0.19163827798E+03  0.24072274740E+03  0.00000000000E+00 0. -1.
         -3    1    6    6    0  503  0.24311676887E+02 -0.18803682654E+03  0.12757207448E+03  0.22852470316E+03  0.00000000000E+00 0.  1.
<mgrwt>
<rscale>  0 0.40415068E+03</rscale>
<asrwt>0</asrwt>
<pdfrwt beam="1">  1        1 0.28151064E+00 0.40415068E+03</pdfrwt>
<pdfrwt beam="2">  1       -1 0.18514946E-01 0.40415068E+03</pdfrwt>
<totfact> 0.97292959E+01</totfact>
</mgrwt>
</event>
<event>
12    1  0.7781383E-008  0.1146811E+04  0.7818608E-02  0.9160731E-01
          2   -1    0    0  501    0  0.00000000000E+00  0.00000000000E+00  0.31257396163E+04  0.31257396163E+04  0.00000000000E+00 0.  1.
         -2   -1    0    0    0  501 -0.00000000000E+00 -0.00000000000E+00 -0.48542490584E+03  0.48542490584E+03  0.00000000000E+00 0. -1.
         23    2    1    2    0    0  0.65446564516E+03 -0.87895489694E+03  0.70007811397E+03  0.13034734647E+04  0.89703489804E+02 0.  0.
    5000000    2    1    2    0    0 -0.65446564516E+03  0.87895489694E+03  0.19402365965E+04  0.23076910574E+04  0.60002747808E+03 0.  0.
         23    2    4    4    0    0 -0.39897261130E+03  0.83520428584E+03  0.17205426126E+04  0.19557939856E+04  0.90099325063E+02 0.  0.
         23    2    4    4    0    0 -0.25549303386E+03  0.43750611093E+02  0.21969398383E+03  0.35189707181E+03  0.91516644925E+02 0.  0.
          1    1    3    3  502    0  0.30621661932E+03 -0.47705833063E+03  0.38676833561E+03  0.68625287920E+03  0.00000000000E+00 0. -1.
         -1    1    3    3    0  502  0.34824902585E+03 -0.40189656630E+03  0.31330977836E+03  0.61722058555E+03  0.00000000000E+00 0.  1.
         15    1    5    5    0    0 -0.70864437987E+02  0.23980298075E+03  0.47517876044E+03  0.53695926311E+03  0.17770000000E+01 0. -1.
        -15    1    5    5    0    0 -0.32810817332E+03  0.59540130510E+03  0.12453638522E+04  0.14188347224E+04  0.17770000000E+01 0.  1.
          4    1    6    6  503    0 -0.22489770755E+03  0.18970140679E+02  0.14736504720E+03  0.26954647509E+03  0.00000000000E+00 0. -1.
         -4    1    6    6    0  503 -0.30595326306E+02  0.24780470413E+02  0.72328936633E+02  0.82350596720E+02  0.00000000000E+00 0.  1.
<mgrwt>
<rscale>  0 0.11468106E+04</rscale>
<asrwt>0</asrwt>
<pdfrwt beam="1">  1        2 0.48088300E+00 0.11468106E+04</pdfrwt>
<pdfrwt beam="2">  1       -2 0.74680757E-01 0.11468106E+04</pdfrwt>
<totfact> 0.23435664E+00</totfact>
</mgrwt>
</event>
<event>
12    1  0.7781383E-008  0.3180613E+03  0.7818608E-02  0.1076545E+00
         -2   -1    0    0    0  501 -0.00000000000E+00  0.00000000000E+00  0.17491914497E+03  0.17491914497E+03  0.00000000000E+00 0.  1.
          2   -1    0    0  501    0  0.00000000000E+00 -0.00000000000E+00 -0.20345278424E+04  0.20345278424E+04  0.00000000000E+00 0. -1.
         23    2    1    2    0    0  0.27560395296E+03 -0.10191910116E+03 -0.13059938115E+04  0.13417989775E+04  0.91976182963E+02 0.  0.
    5000000    2    1    2    0    0 -0.27560395296E+03  0.10191910116E+03 -0.55361488596E+03  0.86764800991E+03  0.59998215396E+03 0.  0.
         23    2    4    4    0    0 -0.19307031924E+02 -0.11948225387E+02  0.10975661684E+03  0.14183271795E+03  0.86916531040E+02 0.  0.
         23    2    4    4    0    0 -0.25629692104E+03  0.11386732654E+03 -0.66337150280E+03  0.72581529196E+03  0.89956698090E+02 0.  0.
          2    1    3    3  502    0  0.76507077384E+02 -0.28384192257E+02 -0.57006350546E+03  0.57587446159E+03  0.00000000000E+00 0. -1.
         -2    1    3    3    0  502  0.19909687558E+03 -0.73534908901E+02 -0.73593030602E+03  0.76592451587E+03  0.00000000000E+00 0.  1.
         15    1    5    5    0    0 -0.21117066999E+02 -0.32522775422E+02  0.11421258065E+03  0.12062890511E+03  0.17770000000E+01 0.  1.
        -15    1    5    5    0    0  0.18100350745E+01  0.20574550035E+02 -0.44559638152E+01  0.21203812833E+02  0.17770000000E+01 0. -1.
          2    1    6    6  503    0 -0.13338443791E+03  0.78757283532E+02 -0.25969739824E+03  0.30238527847E+03  0.00000000000E+00 0.  1.
         -2    1    6    6    0  503 -0.12291248313E+03  0.35110043013E+02 -0.40367410456E+03  0.42343001349E+03  0.00000000000E+00 0. -1.
<mgrwt>
<rscale>  0 0.31806127E+03</rscale>
<asrwt>0</asrwt>
<pdfrwt beam="1">  1        2 0.31300429E+00 0.31806127E+03</pdfrwt>
<pdfrwt beam="2">  1       -2 0.26910637E-01 0.31806127E+03</pdfrwt>
<totfact> 0.88433460E+01</totfact>
</mgrwt>
</event>
<event>
12    1  0.7781383E-008  0.2830653E+03  0.7818608E-02  0.1094026E+00
          2   -1    0    0  501    0  0.00000000000E+00  0.00000000000E+00  0.74399955631E+03  0.74399955631E+03  0.00000000000E+00 0.  1.
         -2   -1    0    0    0  501 -0.00000000000E+00 -0.00000000000E+00 -0.27721769637E+03  0.27721769637E+03  0.00000000000E+00 0. -1.
         23    2    1    2    0    0 -0.21417755940E+03 -0.99412789099E+02  0.10719608617E+03  0.28288997136E+03  0.11305222429E+03 0.  0.
    5000000    2    1    2    0    0  0.21417755940E+03  0.99412789099E+02  0.35958577378E+03  0.73832728132E+03  0.60005859385E+03 0.  0.
         23    2    4    4    0    0  0.21505015821E+03  0.12182272895E+03 -0.90959966447E+02  0.27806879373E+03  0.89225504843E+02 0.  0.
         23    2    4    4    0    0 -0.87259880460E+00 -0.22409939852E+02  0.45054574023E+03  0.46025848760E+03  0.91342457457E+02 0.  0.
          3    1    3    3  502    0 -0.12710841168E+03 -0.30824032694E+02  0.11164202403E+03  0.17196107362E+03  0.00000000000E+00 0. -1.
         -3    1    3    3    0  502 -0.87069147717E+02 -0.68588756405E+02 -0.44459378607E+01  0.11092889774E+03  0.00000000000E+00 0.  1.
         15    1    5    5    0    0  0.77903139246E+02  0.24944899731E+02  0.95351745794E+01  0.82372473620E+02  0.17770000000E+01 0. -1.
        -15    1    5    5    0    0  0.13714701896E+03  0.96877829221E+02 -0.10049514103E+03  0.19569632011E+03  0.17770000000E+01 0.  1.
          1    1    6    6  503    0  0.31404286156E+02  0.57464228205E+01  0.65801746521E+02  0.73137681187E+02  0.00000000000E+00 0. -1.
         -1    1    6    6    0  503 -0.32276884961E+02 -0.28156362673E+02  0.38474399371E+03  0.38712080641E+03  0.00000000000E+00 0.  1.
<mgrwt>
<rscale>  0 0.28306529E+03</rscale>
<asrwt>0</asrwt>
<pdfrwt beam="1">  1        2 0.11446147E+00 0.28306529E+03</pdfrwt>
<pdfrwt beam="2">  1       -2 0.42648877E-01 0.28306529E+03</pdfrwt>
<totfact> 0.20637733E+02</totfact>
</mgrwt>
</event>
<event>
12    1  0.7781383E-008  0.7310206E+03  0.7818608E-02  0.9665606E-01
          2   -1    0    0  501    0  0.00000000000E+00  0.00000000000E+00  0.72338456839E+03  0.72338456839E+03  0.00000000000E+00 0. -1.
         -2   -1    0    0    0  501 -0.00000000000E+00 -0.00000000000E+00 -0.96508149508E+03  0.96508149508E+03  0.00000000000E+00 0.  1.
         23    2    1    2    0    0 -0.66136951694E+03  0.62690885748E+02 -0.39704050698E+03  0.77995445868E+03  0.96685098918E+02 0.  0.
    5000000    2    1    2    0    0  0.66136951694E+03 -0.62690885748E+02  0.15534358028E+03  0.90851160479E+03  0.59993493231E+03 0.  0.
         23    2    4    4    0    0 -0.26520164984E+02 -0.47531776692E+02  0.18341927256E+03  0.21365276342E+03  0.95090929223E+02 0.  0.
         23    2    4    4    0    0  0.68788968192E+03 -0.15159109056E+02 -0.28075692287E+02  0.69485884137E+03  0.92836155974E+02 0.  0.
          3    1    3    3  502    0 -0.22936037217E+03  0.39740179824E+02 -0.90545165539E+02  0.24976767048E+03  0.00000000000E+00 0. -1.
         -3    1    3    3    0  502 -0.43200914477E+03  0.22950705924E+02 -0.30649534144E+03  0.53018678821E+03  0.00000000000E+00 0.  1.
         15    1    5    5    0    0  0.32536872288E+02 -0.52657861889E+01  0.33337940887E+02  0.46914311186E+02  0.17770000000E+01 0.  1.
        -15    1    5    5    0    0 -0.59057037272E+02 -0.42265990503E+02  0.15008133168E+03  0.16673845223E+03  0.17770000000E+01 0. -1.
          2    1    6    6  503    0  0.63977845154E+03 -0.30469097597E+02 -0.43742405000E+02  0.64199550696E+03  0.00000000000E+00 0. -1.
         -2    1    6    6    0  503  0.48111230383E+02  0.15309988541E+02  0.15666712714E+02  0.52863334413E+02  0.00000000000E+00 0.  1.
<mgrwt>
<rscale>  0 0.73102064E+03</rscale>
<asrwt>0</asrwt>
<pdfrwt beam="1">  1        2 0.11128993E+00 0.73102064E+03</pdfrwt>
<pdfrwt beam="2">  1       -2 0.14847408E+00 0.73102064E+03</pdfrwt>
<totfact> 0.12306226E+01</totfact>
</mgrwt>
</event>
<event>
12    1  0.7781383E-008  0.5696786E+03  0.7818608E-02  0.9970390E-01
         -2   -1    0    0    0  501 -0.00000000000E+00  0.00000000000E+00  0.47088499595E+03  0.47088499595E+03  0.00000000000E+00 0.  1.
          2   -1    0    0  501    0  0.00000000000E+00 -0.00000000000E+00 -0.87128343459E+03  0.87128343459E+03  0.00000000000E+00 0. -1.
         23    2    1    2    0    0  0.48088991637E+03 -0.68638230501E+02 -0.25911472422E+03  0.55734080905E+03  0.86729572644E+02 0.  0.
    5000000    2    1    2    0    0 -0.48088991637E+03  0.68638230501E+02 -0.14128371442E+03  0.78482762149E+03  0.60002249053E+03 0.  0.
         23    2    4    4    0    0  0.57792248553E+02  0.10134737467E+02 -0.20577850065E+03  0.23242072411E+03  0.90730065425E+02 0.  0.
         23    2    4    4    0    0 -0.53868216492E+03  0.58503493034E+02  0.64494786226E+02  0.55240689738E+03  0.85980633372E+02 0.  0.
          1    1    3    3  502    0  0.18454593691E+03  0.11035192039E+02 -0.12004829048E+03  0.22043268891E+03  0.00000000000E+00 0. -1.
         -1    1    3    3    0  502  0.29634397946E+03 -0.79673422540E+02 -0.13906643374E+03  0.33690812014E+03  0.00000000000E+00 0.  1.
         15    1    5    5    0    0 -0.17325484326E+02  0.23609417711E+02 -0.37305859441E+02  0.47460108400E+02  0.17770000000E+01 0. -1.
        -15    1    5    5    0    0  0.75117732879E+02 -0.13474680244E+02 -0.16847264121E+03  0.18496061571E+03  0.17770000000E+01 0.  1.
          1    1    6    6  503    0 -0.35319524247E+03  0.43046613222E+02  0.12041566987E+01  0.35581082081E+03  0.00000000000E+00 0. -1.
         -1    1    6    6    0  503 -0.18548692245E+03  0.15456879812E+02  0.63290629527E+02  0.19659607657E+03  0.00000000000E+00 0.  1.
<mgrwt>
<rscale>  0 0.56967864E+03</rscale>
<asrwt>0</asrwt>
<pdfrwt beam="1">  1        2 0.13404360E+00 0.56967864E+03</pdfrwt>
<pdfrwt beam="2">  1       -2 0.72443846E-01 0.56967864E+03</pdfrwt>
<totfact> 0.54535309E+01</totfact>
</mgrwt>
</event>
<event>
12    1  0.7781383E-008  0.1071476E+04  0.7818608E-02  0.9233448E-01
          2   -1    0    0  501    0  0.00000000000E+00  0.00000000000E+00  0.22457819132E+04  0.22457819132E+04  0.00000000000E+00 0. -1.
         -2   -1    0    0    0  501 -0.00000000000E+00 -0.00000000000E+00 -0.55951665565E+03  0.55951665565E+03  0.00000000000E+00 0.  1.
         23    2    1    2    0    0 -0.73794083309E+03 -0.66400333608E+03  0.11658986436E+04  0.15339607176E+04  0.90877568885E+02 0.  0.
    5000000    2    1    2    0    0  0.73794083309E+03  0.66400333608E+03  0.52036661396E+03  0.12713378513E+04  0.60005117753E+03 0.  0.
         23    2    4    4    0    0  0.70053256931E+03  0.74823271530E+03  0.44189646443E+03  0.11199759855E+04  0.92063270891E+02 0.  0.
         23    2    4    4    0    0  0.37408263780E+02 -0.84229379221E+02  0.78470149537E+02  0.15136186579E+03  0.90878399654E+02 0.  0.
          1    1    3    3  502    0 -0.12317429306E+03 -0.15573657148E+03  0.21108804135E+03  0.28979984018E+03  0.00000000000E+00 0. -1.
         -1    1    3    3    0  502 -0.61476654003E+03 -0.50826676460E+03  0.95481060222E+03  0.12441608774E+04  0.00000000000E+00 0.  1.
         15    1    5    5    0    0  0.63479650260E+03  0.66470243970E+03  0.42383232671E+03  0.10121427429E+04  0.17770000000E+01 0. -1.
        -15    1    5    5    0    0  0.65736066710E+02  0.83530275605E+02  0.18064137714E+02  0.10783324260E+03  0.17770000000E+01 0.  1.
          2    1    6    6  503    0 -0.19414135865E+02  0.32155321594E+00  0.36181660614E+02  0.41062447962E+02  0.00000000000E+00 0. -1.
         -2    1    6    6    0  503  0.56822399645E+02 -0.84550932437E+02  0.42288488923E+02  0.11029941783E+03  0.00000000000E+00 0.  1.
<mgrwt>
<rscale>  0 0.10714765E+04</rscale>
<asrwt>0</asrwt>
<pdfrwt beam="1">  1        2 0.34550491E+00 0.10714765E+04</pdfrwt>
<pdfrwt beam="2">  1       -2 0.86079486E-01 0.10714765E+04</pdfrwt>
<totfact> 0.56770978E+00</totfact>
</mgrwt>
</event>
<event>
12    1  0.7781383E-008  0.6833373E+03  0.7818608E-02  0.9746160E-01
          3   -1    0    0  501    0  0.00000000000E+00  0.00000000000E+00  0.13882693601E+04  0.13882693601E+04  0.00000000000E+00 0. -1.
         -3   -1    0    0    0  501 -0.00000000000E+00 -0.00000000000E+00 -0.36472274221E+03  0.36472274221E+03  0.00000000000E+00 0.  1.
         23    2    1    2    0    0 -0.40261974723E+03  0.40408985414E+03  0.28881196981E+03  0.64606936520E+03  0.92746965776E+02 0.  0.
    5000000    2    1    2    0    0  0.40261974723E+03 -0.40408985414E+03  0.73473464804E+03  0.11069227371E+04  0.60004305824E+03 0.  0.
         23    2    4    4    0    0  0.25034552149E+03 -0.52339164063E+03  0.40401625839E+03  0.71297947377E+03  0.92189496982E+02 0.  0.
         23    2    4    4    0    0  0.15227422574E+03  0.11930178649E+03  0.33071838965E+03  0.39394326331E+03  0.91631246680E+02 0.  0.
          3    1    3    3  502    0 -0.16561689297E+03  0.14129280761E+03  0.64373929736E+02  0.22701677372E+03  0.00000000000E+00 0. -1.
         -3    1    3    3    0  502 -0.23700285426E+03  0.26279704653E+03  0.22443804007E+03  0.41905259148E+03  0.00000000000E+00 0.  1.
         15    1    5    5    0    0  0.19731117932E+03 -0.37427889276E+03  0.24646656443E+03  0.48965836679E+03  0.17770000000E+01 0.  1.
        -15    1    5    5    0    0  0.53034342166E+02 -0.14911274787E+03  0.15754969396E+03  0.22332110698E+03  0.17770000000E+01 0. -1.
          3    1    6    6  503    0  0.15717112608E+03  0.84262191279E+02  0.28381545306E+03  0.33519261798E+03  0.00000000000E+00 0. -1.
         -3    1    6    6    0  503 -0.48969003409E+01  0.35039595214E+02  0.46902936598E+02  0.58750645334E+02  0.00000000000E+00 0.  1.
<mgrwt>
<rscale>  0 0.68333733E+03</rscale>
<asrwt>0</asrwt>
<pdfrwt beam="1">  1        3 0.21357990E+00 0.68333733E+03</pdfrwt>
<pdfrwt beam="2">  1       -3 0.56111192E-01 0.68333733E+03</pdfrwt>
<totfact> 0.99727012E-01</totfact>
</mgrwt>
</event>
<event>
12    1  0.7781383E-008  0.9458814E+03  0.7818608E-02  0.9369978E-01
          2   -1    0    0  501    0  0.00000000000E+00  0.00000000000E+00  0.14471919739E+04  0.14471919739E+04  0.00000000000E+00 0. -1.
         -2   -1    0    0    0  501 -0.00000000000E+00 -0.00000000000E+00 -0.72562367690E+03  0.72562367690E+03  0.00000000000E+00 0.  1.
         23    2    1    2    0    0  0.69546348681E+03  0.61565257379E+03  0.22113809654E+03  0.95918867765E+03  0.91887477335E+02 0.  0.
    5000000    2    1    2    0    0 -0.69546348681E+03 -0.61565257379E+03  0.50043020048E+03  0.12136269732E+04  0.59980204349E+03 0.  0.
         23    2    4    4    0    0 -0.43204047328E+03 -0.46670060804E+03  0.25964891386E+02  0.64360407805E+03  0.95307951456E+02 0.  0.
         23    2    4    4    0    0 -0.26342301353E+03 -0.14895196576E+03  0.47446530910E+03  0.57002289513E+03  0.90721548015E+02 0.  0.
          3    1    3    3  502    0  0.55134672743E+03  0.43538736796E+03  0.16970851719E+03  0.72273532834E+03  0.00000000000E+00 0. -1.
         -3    1    3    3    0  502  0.14411675938E+03  0.18026520583E+03  0.51429579350E+02  0.23645334930E+03  0.00000000000E+00 0.  1.
         15    1    5    5    0    0 -0.27718682754E+03 -0.36185480152E+03  0.10422927715E+02  0.45594213438E+03  0.17770000000E+01 0.  1.
        -15    1    5    5    0    0 -0.15485364573E+03 -0.10484580651E+03  0.15541963671E+02  0.18766194367E+03  0.17770000000E+01 0. -1.
          3    1    6    6  503    0 -0.13106180499E+03 -0.23337270832E+02  0.18748150288E+03  0.22993724983E+03  0.00000000000E+00 0. -1.
         -3    1    6    6    0  503 -0.13236120854E+03 -0.12561469492E+03  0.28698380622E+03  0.34008564530E+03  0.00000000000E+00 0.  1.
<mgrwt>
<rscale>  0 0.94588141E+03</rscale>
<asrwt>0</asrwt>
<pdfrwt beam="1">  1        2 0.22264492E+00 0.94588141E+03</pdfrwt>
<pdfrwt beam="2">  1       -2 0.11163441E+00 0.94588141E+03</pdfrwt>
<totfact> 0.86205370E+00</totfact>
</mgrwt>
</event>
<event>
12    1  0.7781383E-008  0.5407894E+03  0.7818608E-02  0.1003649E+00
         -1   -1    0    0    0  501 -0.00000000000E+00  0.00000000000E+00  0.34246688754E+03  0.34246688754E+03  0.00000000000E+00 0.  1.
          1   -1    0    0  501    0  0.00000000000E+00 -0.00000000000E+00 -0.14647128412E+04  0.14647128412E+04  0.00000000000E+00 0. -1.
         23    2    1    2    0    0  0.44854594124E+03  0.15902630429E+03 -0.46414669640E+02  0.48662575555E+03  0.90374097745E+02 0.  0.
    5000000    2    1    2    0    0 -0.44854594124E+03 -0.15902630429E+03 -0.10758312840E+04  0.13205539732E+04  0.59997251398E+03 0.  0.
         23    2    4    4    0    0 -0.42555991259E+03 -0.70987811459E+01 -0.31126800134E+03  0.53542723842E+03  0.92967344149E+02 0.  0.
         23    2    4    4    0    0 -0.22986028651E+02 -0.15192752315E+03 -0.76456328267E+03  0.78512673476E+03  0.90866091678E+02 0.  0.
          4    1    3    3  502    0  0.23007869965E+03  0.11712970561E+03  0.53542766774E+01  0.25823292634E+03  0.00000000000E+00 0. -1.
         -4    1    3    3    0  502  0.21846724159E+03  0.41896598688E+02 -0.51768946317E+02  0.22839282921E+03  0.00000000000E+00 0.  1.
         15    1    5    5    0    0 -0.16446832927E+03 -0.14576386319E+02 -0.68301626223E+02  0.17869127635E+03  0.17770000000E+01 0.  1.
        -15    1    5    5    0    0 -0.26109158332E+03  0.74776051729E+01 -0.24296637512E+03  0.35673596206E+03  0.17770000000E+01 0. -1.
          3    1    6    6  503    0 -0.44101074869E+02 -0.36394631235E+02 -0.33272544324E+03  0.33760286516E+03  0.00000000000E+00 0. -1.
         -3    1    6    6    0  503  0.21115046218E+02 -0.11553289191E+03 -0.43183783944E+03  0.44752386960E+03  0.00000000000E+00 0.  1.
<mgrwt>
<rscale>  0 0.54078943E+03</rscale>
<asrwt>0</asrwt>
<pdfrwt beam="1">  1        1 0.22534044E+00 0.54078943E+03</pdfrwt>
<pdfrwt beam="2">  1       -1 0.52687213E-01 0.54078943E+03</pdfrwt>
<totfact> 0.26760230E+01</totfact>
</mgrwt>
</event>
<event>
12    1  0.7781383E-008  0.5312561E+03  0.7818608E-02  0.1005928E+00
         -2   -1    0    0    0  501 -0.00000000000E+00  0.00000000000E+00  0.23402295649E+03  0.23402295649E+03  0.00000000000E+00 0.  1.
          2   -1    0    0  501    0  0.00000000000E+00 -0.00000000000E+00 -0.29058186062E+04  0.29058186062E+04  0.00000000000E+00 0. -1.
         23    2    1    2    0    0  0.32976745056E+03  0.32363259992E+03 -0.13242856848E+03  0.48994726399E+03  0.95007181662E+02 0.  0.
    5000000    2    1    2    0    0 -0.32976745056E+03 -0.32363259992E+03 -0.25393670812E+04  0.26498942987E+04  0.60005832206E+03 0.  0.
         23    2    4    4    0    0  0.72310340923E+02 -0.13030418030E+03 -0.19292150535E+03  0.25975037496E+03  0.89686037159E+02 0.  0.
         23    2    4    4    0    0 -0.40207779148E+03 -0.19332841963E+03 -0.23464455759E+04  0.23901439238E+04  0.89099424019E+02 0.  0.
          3    1    3    3  502    0  0.10660222066E+03  0.14235803734E+03 -0.12062447768E+02  0.17825640771E+03  0.00000000000E+00 0. -1.
         -3    1    3    3    0  502  0.22316522990E+03  0.18127456258E+03 -0.12036612071E+03  0.31169085628E+03  0.00000000000E+00 0.  1.
         15    1    5    5    0    0  0.50283409207E+02 -0.81135630026E+02 -0.18085966916E+03  0.20451109838E+03  0.17770000000E+01 0.  1.
        -15    1    5    5    0    0  0.22026931716E+02 -0.49168550270E+02 -0.12061836183E+02  0.55239276584E+02  0.17770000000E+01 0. -1.
          3    1    6    6  503    0 -0.11796008580E+03 -0.76386381940E+02 -0.55337920998E+03  0.57094484079E+03  0.00000000000E+00 0. -1.
         -3    1    6    6    0  503 -0.28411770568E+03 -0.11694203769E+03 -0.17930663659E+04  0.18191990830E+04  0.00000000000E+00 0.  1.
<mgrwt>
<rscale>  0 0.53125615E+03</rscale>
<asrwt>0</asrwt>
<pdfrwt beam="1">  1        2 0.44704903E+00 0.53125615E+03</pdfrwt>
<pdfrwt beam="2">  1       -2 0.36003531E-01 0.53125615E+03</pdfrwt>
<totfact> 0.15985094E+01</totfact>
</mgrwt>
</event>
<event>
12    1  0.7781383E-008  0.1086107E+04  0.7818608E-02  0.9218840E-01
          1   -1    0    0  501    0  0.00000000000E+00  0.00000000000E+00  0.25274661583E+04  0.25274661583E+04  0.00000000000E+00 0. -1.
         -1   -1    0    0    0  501 -0.00000000000E+00 -0.00000000000E+00 -0.49821720801E+03  0.49821720801E+03  0.00000000000E+00 0.  1.
         23    2    1    2    0    0 -0.55741433726E+03 -0.87006267210E+03  0.78746680972E+03  0.13023283962E+04  0.90749536072E+02 0.  0.
    5000000    2    1    2    0    0  0.55741433726E+03  0.87006267210E+03  0.12417821406E+04  0.17233549701E+04  0.60017470097E+03 0.  0.
         23    2    4    4    0    0 -0.64468698518E+02  0.11077961367E+03  0.29256229505E+02  0.16074643448E+03  0.92494071929E+02 0.  0.
         23    2    4    4    0    0  0.62188303578E+03  0.75928305843E+03  0.12125259111E+04  0.15626085357E+04  0.90978446179E+02 0.  0.
          3    1    3    3  502    0 -0.37052944040E+03 -0.53558553647E+03  0.44843687319E+03  0.79072091304E+03  0.00000000000E+00 0. -1.
         -3    1    3    3    0  502 -0.18688489686E+03 -0.33447713563E+03  0.33902993653E+03  0.51160748313E+03  0.00000000000E+00 0.  1.
         15    1    5    5    0    0 -0.86344658413E+02  0.75064371269E+02  0.31760474031E+02  0.11875161182E+03  0.17770000000E+01 0. -1.
        -15    1    5    5    0    0  0.21875959895E+02  0.35715242398E+02 -0.25042445263E+01  0.41994822663E+02  0.17770000000E+01 0.  1.
          2    1    6    6  503    0  0.17312037542E+03  0.21385608237E+03  0.40699133580E+03  0.49127083749E+03  0.00000000000E+00 0. -1.
         -2    1    6    6    0  503  0.44876266036E+03  0.54542697607E+03  0.80553457527E+03  0.10713376982E+04  0.00000000000E+00 0.  1.
<mgrwt>
<rscale>  0 0.10861070E+04</rscale>
<asrwt>0</asrwt>
<pdfrwt beam="1">  1        1 0.38884094E+00 0.10861070E+04</pdfrwt>
<pdfrwt beam="2">  1       -1 0.76648803E-01 0.10861070E+04</pdfrwt>
<totfact> 0.22300791E+00</totfact>
</mgrwt>
</event>
<event>
12    1  0.7781383E-008  0.5021722E+03  0.7818608E-02  0.1013213E+00
         -2   -1    0    0    0  501 -0.00000000000E+00  0.00000000000E+00  0.37295795361E+03  0.37295795361E+03  0.00000000000E+00 0.  1.
          2   -1    0    0  501    0  0.00000000000E+00 -0.00000000000E+00 -0.11109340609E+04  0.11109340609E+04  0.00000000000E+00 0. -1.
         23    2    1    2    0    0 -0.45609433660E+03  0.61885305563E+02 -0.51211701117E+03  0.69467144471E+03  0.91938827733E+02 0.  0.
    5000000    2    1    2    0    0  0.45609433660E+03 -0.61885305563E+02 -0.22585909608E+03  0.78922056976E+03  0.60000411793E+03 0.  0.
         23    2    4    4    0    0  0.41872458060E+03 -0.58977275873E+01 -0.39372744413E+03  0.58209542033E+03  0.91916921822E+02 0.  0.
         23    2    4    4    0    0  0.37369756001E+02 -0.55987577976E+02  0.16786834805E+03  0.20712514944E+03  0.10094522128E+03 0.  0.
          3    1    3    3  502    0 -0.40821507891E+03  0.81790872292E+02 -0.43884788905E+03  0.60491054476E+03  0.00000000000E+00 0. -1.
         -3    1    3    3    0  502 -0.47879257691E+02 -0.19905566729E+02 -0.73269122116E+02  0.89760899948E+02  0.00000000000E+00 0.  1.
         15    1    5    5    0    0  0.35809246969E+03  0.19226281837E+02 -0.36057629115E+03  0.50854526468E+03  0.17770000000E+01 0. -1.
        -15    1    5    5    0    0  0.60632110905E+02 -0.25124009425E+02 -0.33151152983E+02  0.73550155645E+02  0.17770000000E+01 0.  1.
          4    1    6    6  503    0 -0.11273221904E+01  0.23526090653E+02  0.76451216808E+02  0.79997102124E+02  0.00000000000E+00 0. -1.
         -4    1    6    6    0  503  0.38497078192E+02 -0.79513668629E+02  0.91417131246E+02  0.12712804731E+03  0.00000000000E+00 0.  1.
<mgrwt>
<rscale>  0 0.50217223E+03</rscale>
<asrwt>0</asrwt>
<pdfrwt beam="1">  1        2 0.17091293E+00 0.50217223E+03</pdfrwt>
<pdfrwt beam="2">  1       -2 0.57378148E-01 0.50217223E+03</pdfrwt>
<totfact> 0.63665837E+01</totfact>
</mgrwt>
</event>
<event>
12    1  0.7781383E-008  0.7591970E+03  0.7818608E-02  0.9621031E-01
         -2   -1    0    0    0  501 -0.00000000000E+00  0.00000000000E+00  0.41419997146E+03  0.41419997146E+03  0.00000000000E+00 0.  1.
          2   -1    0    0  501    0  0.00000000000E+00 -0.00000000000E+00 -0.15416668167E+04  0.15416668167E+04  0.00000000000E+00 0. -1.
         23    2    1    2    0    0 -0.41121169963E+03 -0.51012189263E+03 -0.72079459612E+03  0.97843096208E+03  0.91993969971E+02 0.  0.
    5000000    2    1    2    0    0  0.41121169963E+03  0.51012189263E+03 -0.40667224916E+03  0.97743582611E+03  0.60056562394E+03 0.  0.
         23    2    4    4    0    0  0.54019637637E+03  0.41371243156E+03 -0.23726107769E+03  0.72638203262E+03  0.91476430004E+02 0.  0.
         23    2    4    4    0    0 -0.12898467673E+03  0.96409461070E+02 -0.16941117147E+03  0.25105379349E+03  0.91629859715E+02 0.  0.
          3    1    3    3  502    0 -0.31159279410E+03 -0.34741417205E+03 -0.45974206794E+03  0.65509498954E+03  0.00000000000E+00 0. -1.
         -3    1    3    3    0  502 -0.99618905531E+02 -0.16270772058E+03 -0.26105252818E+03  0.32333597255E+03  0.00000000000E+00 0.  1.
         15    1    5    5    0    0  0.10067563589E+03  0.10335851523E+03 -0.83827530177E+02  0.16687953403E+03  0.17770000000E+01 0. -1.
        -15    1    5    5    0    0  0.43952074048E+03  0.31035391633E+03 -0.15343354751E+03  0.55950249859E+03  0.17770000000E+01 0.  1.
          3    1    6    6  503    0 -0.69377107005E+02  0.96656183167E+02 -0.79197706205E+02  0.14292612563E+03  0.00000000000E+00 0. -1.
         -3    1    6    6    0  503 -0.59607569730E+02 -0.24672209702E+00 -0.90213465268E+02  0.10812766786E+03  0.00000000000E+00 0.  1.
<mgrwt>
<rscale>  0 0.75919699E+03</rscale>
<asrwt>0</asrwt>
<pdfrwt beam="1">  1        2 0.23717952E+00 0.75919699E+03</pdfrwt>
<pdfrwt beam="2">  1       -2 0.63723071E-01 0.75919699E+03</pdfrwt>
<totfact> 0.28026857E+01</totfact>
</mgrwt>
</event>
<event>
12    1  0.7781383E-008  0.1047891E+04  0.7818608E-02  0.9257524E-01
         -1   -1    0    0    0  501 -0.00000000000E+00  0.00000000000E+00  0.10245890609E+04  0.10245890609E+04  0.00000000000E+00 0.  1.
          1   -1    0    0  501    0  0.00000000000E+00 -0.00000000000E+00 -0.12499771046E+04  0.12499771046E+04  0.00000000000E+00 0. -1.
         23    2    1    2    0    0  0.81751831827E+03 -0.61706335285E+03 -0.33709086675E+03  0.10824571879E+04  0.94762487406E+02 0.  0.
    5000000    2    1    2    0    0 -0.81751831827E+03  0.61706335285E+03  0.11170282308E+03  0.11921089776E+04  0.59961897207E+03 0.  0.
         23    2    4    4    0    0 -0.76648828498E+03  0.56804711964E+03  0.27111001220E+03  0.99601434308E+03  0.91444583022E+02 0.  0.
         23    2    4    4    0    0 -0.51030033283E+02  0.49016233219E+02 -0.15940718913E+03  0.19609463452E+03  0.89642614465E+02 0.  0.
          1    1    3    3  502    0  0.41127827901E+03 -0.25639594272E+03 -0.17939663979E+03  0.51678995403E+03  0.00000000000E+00 0. -1.
         -1    1    3    3    0  502  0.40624003926E+03 -0.36066741014E+03 -0.15769422696E+03  0.56566723385E+03  0.00000000000E+00 0.  1.
         15    1    5    5    0    0 -0.59498483163E+03  0.39548016310E+03  0.21837788659E+03  0.74706329608E+03  0.17770000000E+01 0.  1.
        -15    1    5    5    0    0 -0.17150345336E+03  0.17256695654E+03  0.52732125611E+02  0.24895104700E+03  0.17770000000E+01 0. -1.
          4    1    6    6  503    0 -0.10015088231E+02  0.65269730170E+02 -0.69051786475E+02  0.95543649104E+02  0.00000000000E+00 0. -1.
         -4    1    6    6    0  503 -0.41014945052E+02 -0.16253496951E+02 -0.90355402650E+02  0.10055098542E+03  0.00000000000E+00 0.  1.
<mgrwt>
<rscale>  0 0.10478911E+04</rscale>
<asrwt>0</asrwt>
<pdfrwt beam="1">  1        1 0.19230417E+00 0.10478911E+04</pdfrwt>
<pdfrwt beam="2">  1       -1 0.15762909E+00 0.10478911E+04</pdfrwt>
<totfact> 0.29871920E+00</totfact>
</mgrwt>
</event>
<event>
12    1  0.7781383E-008  0.7046857E+03  0.7818608E-02  0.9709252E-01
         -1   -1    0    0    0  501 -0.00000000000E+00  0.00000000000E+00  0.60285310085E+03  0.60285310085E+03  0.00000000000E+00 0.  1.
          1   -1    0    0  501    0  0.00000000000E+00 -0.00000000000E+00 -0.88046946778E+03  0.88046946778E+03  0.00000000000E+00 0. -1.
         23    2    1    2    0    0  0.20490343319E+03 -0.55124188437E+03 -0.24089170169E+03  0.64240417866E+03  0.93815162943E+02 0.  0.
    5000000    2    1    2    0    0 -0.20490343319E+03  0.55124188437E+03 -0.36724665247E+02  0.84091838997E+03  0.59995166933E+03 0.  0.
         23    2    4    4    0    0  0.18947370796E+03  0.10484390001E+03 -0.49907715034E+02  0.23958438403E+03  0.89539754701E+02 0.  0.
         23    2    4    4    0    0 -0.39437714116E+03  0.44639798436E+03  0.13183049787E+02  0.60133400594E+03  0.81389827289E+02 0.  0.
          4    1    3    3  502    0  0.35530370700E+02 -0.22593199925E+03 -0.96915073256E+02  0.24839526354E+03  0.00000000000E+00 0. -1.
         -4    1    3    3    0  502  0.16937306249E+03 -0.32530988512E+03 -0.14397662844E+03  0.39400891512E+03  0.00000000000E+00 0.  1.
         15    1    5    5    0    0  0.11755883947E+03  0.54288320642E+02 -0.73025255326E+02  0.14867127544E+03  0.17770000000E+01 0.  1.
        -15    1    5    5    0    0  0.71914868497E+02  0.50555579370E+02  0.23117540292E+02  0.90913108596E+02  0.17770000000E+01 0. -1.
          1    1    6    6  503    0 -0.99117978829E+02  0.92402716555E+02  0.34645431947E+02  0.13986758634E+03  0.00000000000E+00 0. -1.
         -1    1    6    6    0  503 -0.29525916233E+03  0.35399526780E+03 -0.21462382160E+02  0.46146641960E+03  0.00000000000E+00 0.  1.
<mgrwt>
<rscale>  0 0.70468568E+03</rscale>
<asrwt>0</asrwt>
<pdfrwt beam="1">  1        1 0.13545684E+00 0.70468568E+03</pdfrwt>
<pdfrwt beam="2">  1       -1 0.92746631E-01 0.70468568E+03</pdfrwt>
<totfact> 0.22047537E+01</totfact>
</mgrwt>
</event>
<event>
12    1  0.7781383E-008  0.3273392E+03  0.7818608E-02  0.1072320E+00
         -2   -1    0    0    0  501 -0.00000000000E+00  0.00000000000E+00  0.19602079896E+03  0.19602079896E+03  0.00000000000E+00 0.  1.
          2   -1    0    0  501    0  0.00000000000E+00 -0.00000000000E+00 -0.93346083068E+03  0.93346083068E+03  0.00000000000E+00 0. -1.
         23    2    1    2    0    0 -0.17445059603E+03 -0.91313046060E+02 -0.24955407989E+03  0.33119712391E+03  0.92968883281E+02 0.  0.
    5000000    2    1    2    0    0  0.17445059603E+03  0.91313046060E+02 -0.48788595182E+03  0.79828450573E+03  0.60037851999E+03 0.  0.
         23    2    4    4    0    0  0.28342642897E+03  0.11415388031E+03 -0.32158112289E+02  0.32033082523E+03  0.90642398347E+02 0.  0.
         23    2    4    4    0    0 -0.10897583294E+03 -0.22840834249E+02 -0.45572783953E+03  0.47795368050E+03  0.91402522426E+02 0.  0.
          1    1    3    3  502    0 -0.11393215176E+03 -0.60502886514E+02 -0.22428737297E+03  0.25873917398E+03  0.00000000000E+00 0. -1.
         -1    1    3    3    0  502 -0.60518444274E+02 -0.30810159546E+02 -0.25266706922E+02  0.72457949924E+02  0.00000000000E+00 0.  1.
         15    1    5    5    0    0  0.63482377447E+02  0.69137954130E+02 -0.29172737332E+01  0.93924103204E+02  0.17770000000E+01 0.  1.
        -15    1    5    5    0    0  0.21994405152E+03  0.45015926178E+02 -0.29240838556E+02  0.22640672202E+03  0.17770000000E+01 0. -1.
          2    1    6    6  503    0 -0.13344650769E+01 -0.31371514644E+02 -0.16181951093E+03  0.16483781983E+03  0.00000000000E+00 0. -1.
         -2    1    6    6    0  503 -0.10764136786E+03  0.85306803956E+01 -0.29390832860E+03  0.31311586067E+03  0.00000000000E+00 0.  1.
<mgrwt>
<rscale>  0 0.32733922E+03</rscale>
<asrwt>0</asrwt>
<pdfrwt beam="1">  1        2 0.14360936E+00 0.32733922E+03</pdfrwt>
<pdfrwt beam="2">  1       -2 0.30157046E-01 0.32733922E+03</pdfrwt>
<totfact> 0.29335115E+02</totfact>
</mgrwt>
</event>
<event>
12    1  0.7781383E-008  0.1141088E+04  0.7818608E-02  0.9166045E-01
         -2   -1    0    0    0  501 -0.00000000000E+00  0.00000000000E+00  0.33116721360E+03  0.33116721360E+03  0.00000000000E+00 0. -1.
          2   -1    0    0  501    0  0.00000000000E+00 -0.00000000000E+00 -0.41238283043E+04  0.41238283043E+04  0.00000000000E+00 0.  1.
         23    2    1    2    0    0  0.68952745675E+02 -0.10840487888E+04 -0.19374128250E+04  0.22230081800E+04  0.90998110560E+02 0.  0.
    5000000    2    1    2    0    0 -0.68952745675E+02  0.10840487888E+04 -0.18552482657E+04  0.22319873379E+04  0.59992090450E+03 0.  0.
         23    2    4    4    0    0 -0.20172467072E+03  0.10158427760E+04 -0.13965572465E+04  0.17410812862E+04  0.91446783021E+02 0.  0.
         23    2    4    4    0    0  0.13277192504E+03  0.68206012754E+02 -0.45869101917E+03  0.49090605166E+03  0.91163897677E+02 0.  0.
          3    1    3    3  502    0 -0.15481315070E+02 -0.36664747329E+03 -0.61497925940E+03  0.71614909780E+03  0.00000000000E+00 0. -1.
         -3    1    3    3    0  502  0.84434060745E+02 -0.71740131550E+03 -0.13224335656E+04  0.15068590822E+04  0.00000000000E+00 0.  1.
         15    1    5    5    0    0 -0.41130261258E+02  0.19517517310E+03 -0.21193888458E+03  0.29104345915E+03  0.17770000000E+01 0. -1.
        -15    1    5    5    0    0 -0.16059440946E+03  0.82066760293E+03 -0.11846183619E+04  0.14500378271E+04  0.17770000000E+01 0.  1.
          3    1    6    6  503    0  0.56361905492E+02  0.56564817695E+02 -0.12460264440E+03  0.14799345250E+03  0.00000000000E+00 0. -1.
         -3    1    6    6    0  503  0.76410019550E+02  0.11641195060E+02 -0.33408837477E+03  0.34291259916E+03  0.00000000000E+00 0.  1.
<mgrwt>
<rscale>  0 0.11410875E+04</rscale>
<asrwt>0</asrwt>
<pdfrwt beam="1">  1        2 0.63443515E+00 0.11410875E+04</pdfrwt>
<pdfrwt beam="2">  1       -2 0.50948800E-01 0.11410875E+04</pdfrwt>
<totfact> 0.10177409E+00</totfact>
</mgrwt>
</event>
<event>
12    1  0.7781383E-008  0.8824112E+03  0.7818608E-02  0.9447839E-01
          1   -1    0    0  501    0  0.00000000000E+00  0.00000000000E+00  0.96629212798E+03  0.96629212798E+03  0.00000000000E+00 0. -1.
         -1   -1    0    0    0  501 -0.00000000000E+00 -0.00000000000E+00 -0.14413834454E+04  0.14413834454E+04  0.00000000000E+00 0.  1.
         23    2    1    2    0    0  0.68164503821E+03  0.46846516272E+03 -0.96516097024E+03  0.12744097324E+04  0.92113521369E+02 0.  0.
    5000000    2    1    2    0    0 -0.68164503821E+03 -0.46846516272E+03  0.49006965279E+03  0.11332658410E+04  0.60001969550E+03 0.  0.
         23    2    4    4    0    0 -0.45076103401E+03 -0.55254013019E+02  0.24605623173E+02  0.46359327584E+03  0.89859740552E+02 0.  0.
         23    2    4    4    0    0 -0.23088400420E+03 -0.41321114970E+03  0.46546402962E+03  0.66967256516E+03  0.88055119270E+02 0.  0.
          4    1    3    3  502    0  0.23935416583E+03  0.12399502780E+03 -0.35604287460E+03  0.44657777841E+03  0.00000000000E+00 0.  1.
         -4    1    3    3    0  502  0.44229087239E+03  0.34447013491E+03 -0.60911809564E+03  0.82783195401E+03  0.00000000000E+00 0. -1.
         15    1    5    5    0    0 -0.17287791938E+03  0.16707858686E+02 -0.12540453051E+02  0.17414461876E+03  0.17770000000E+01 0. -1.
        -15    1    5    5    0    0 -0.27788311463E+03 -0.71961871705E+02  0.37146076224E+02  0.28944865708E+03  0.17770000000E+01 0.  1.
          1    1    6    6  503    0 -0.20761404836E+03 -0.35562181053E+03  0.35848346357E+03  0.54596781851E+03  0.00000000000E+00 0. -1.
         -1    1    6    6    0  503 -0.23269955835E+02 -0.57589339172E+02  0.10698056605E+03  0.12370474664E+03  0.00000000000E+00 0.  1.
<mgrwt>
<rscale>  0 0.88241123E+03</rscale>
<asrwt>0</asrwt>
<pdfrwt beam="1">  1        1 0.14866033E+00 0.88241123E+03</pdfrwt>
<pdfrwt beam="2">  1       -1 0.22175130E+00 0.88241123E+03</pdfrwt>
<totfact> 0.17621899E+00</totfact>
</mgrwt>
</event>
<event>
12    1  0.7781383E-008  0.5766665E+03  0.7818608E-02  0.9955034E-01
         -2   -1    0    0    0  501 -0.00000000000E+00  0.00000000000E+00  0.20028143304E+03  0.20028143304E+03  0.00000000000E+00 0.  1.
          2   -1    0    0  501    0  0.00000000000E+00 -0.00000000000E+00 -0.28729350068E+04  0.28729350068E+04  0.00000000000E+00 0. -1.
         23    2    1    2    0    0 -0.11666577317E+03 -0.55112876029E+03 -0.53347518190E+03  0.78120030765E+03  0.91237809713E+02 0.  0.
    5000000    2    1    2    0    0  0.11666577317E+03  0.55112876029E+03 -0.21391783919E+04  0.22920161322E+04  0.59991661502E+03 0.  0.
         23    2    4    4    0    0  0.91357232376E+02  0.11887099134E+03 -0.92815000390E+02  0.19828005204E+03  0.90685711393E+02 0.  0.
         23    2    4    4    0    0  0.25308540796E+02  0.43225776895E+03 -0.20463633915E+04  0.20937360801E+04  0.92953441725E+02 0.  0.
          2    1    3    3  502    0 -0.15262798707E+02 -0.51863286729E+02 -0.93729554845E+02  0.10820343334E+03  0.00000000000E+00 0. -1.
         -2    1    3    3    0  502 -0.10140297446E+03 -0.49926547356E+03 -0.43974562705E+03  0.67299687431E+03  0.00000000000E+00 0.  1.
         15    1    5    5    0    0  0.24962181995E+02  0.49490613690E+02  0.11333632054E+02  0.56604242932E+02  0.17770000000E+01 0. -1.
        -15    1    5    5    0    0  0.66395050381E+02  0.69380377646E+02 -0.10414863244E+03  0.14167580911E+03  0.17770000000E+01 0.  1.
          3    1    6    6  503    0  0.48888535894E+02  0.28090438354E+03 -0.14678827007E+04  0.14953183556E+04  0.00000000000E+00 0. -1.
         -3    1    6    6    0  503 -0.23579995099E+02  0.15135338541E+03 -0.57848069080E+03  0.59841772456E+03  0.00000000000E+00 0.  1.
<mgrwt>
<rscale>  0 0.57666654E+03</rscale>
<asrwt>0</asrwt>
<pdfrwt beam="1">  1        2 0.44198998E+00 0.57666654E+03</pdfrwt>
<pdfrwt beam="2">  1       -2 0.30812529E-01 0.57666654E+03</pdfrwt>
<totfact> 0.22174536E+01</totfact>
</mgrwt>
</event>
<event>
12    1  0.7781383E-008  0.8860905E+03  0.7818608E-02  0.9443138E-01
         -1   -1    0    0    0  501 -0.00000000000E+00  0.00000000000E+00  0.14854355918E+04  0.14854355918E+04  0.00000000000E+00 0.  1.
          1   -1    0    0  501    0  0.00000000000E+00 -0.00000000000E+00 -0.58218057796E+03  0.58218057796E+03  0.00000000000E+00 0. -1.
         23    2    1    2    0    0 -0.29548606265E+03  0.74358587723E+03  0.65293358466E+03  0.10366477139E+04  0.89912439618E+02 0.  0.
    5000000    2    1    2    0    0  0.29548606265E+03 -0.74358587723E+03  0.25032142922E+03  0.10309684559E+04  0.60000264087E+03 0.  0.
         23    2    4    4    0    0  0.14546983157E+03  0.41928484703E+02 -0.28323755260E+02  0.17942222589E+03  0.92036027208E+02 0.  0.
         23    2    4    4    0    0  0.15001623108E+03 -0.78551436193E+03  0.27864518448E+03  0.85154622999E+03  0.89163673004E+02 0.  0.
          3    1    3    3  502    0 -0.65231364653E+02  0.21510120776E+03  0.23063842245E+03  0.32205239081E+03  0.00000000000E+00 0. -1.
         -3    1    3    3    0  502 -0.23025469799E+03  0.52848466946E+03  0.42229516221E+03  0.71459532313E+03  0.00000000000E+00 0.  1.
         15    1    5    5    0    0  0.49739671290E+02  0.55470770590E+02  0.10416844723E+02  0.75250977886E+02  0.17770000000E+01 0. -1.
        -15    1    5    5    0    0  0.95730160278E+02 -0.13542285887E+02 -0.38740599983E+02  0.10417124800E+03  0.17770000000E+01 0.  1.
          2    1    6    6  503    0  0.57382226257E+02 -0.29480087379E+03  0.59371960789E+02  0.30614588811E+03  0.00000000000E+00 0. -1.
         -2    1    6    6    0  503  0.92634004822E+02 -0.49071348814E+03  0.21927322369E+03  0.54540034187E+03  0.00000000000E+00 0.  1.
<mgrwt>
<rscale>  0 0.88609050E+03</rscale>
<asrwt>0</asrwt>
<pdfrwt beam="1">  1        1 0.89566243E-01 0.88609050E+03</pdfrwt>
<pdfrwt beam="2">  1       -1 0.22852855E+00 0.88609050E+03</pdfrwt>
<totfact> 0.35234375E+00</totfact>
</mgrwt>
</event>
<event>
12    1  0.7781383E-008  0.2153477E+04  0.7818608E-02  0.8538045E-01
          2   -1    0    0  501    0  0.00000000000E+00  0.00000000000E+00  0.27684217796E+04  0.27684217796E+04  0.00000000000E+00 0. -1.
         -2   -1    0    0    0  501 -0.00000000000E+00 -0.00000000000E+00 -0.17566655507E+04  0.17566655507E+04  0.00000000000E+00 0.  1.
         23    2    1    2    0    0 -0.29829884979E+02 -0.21396708783E+04  0.82104851087E+03  0.22944229231E+04  0.10570999497E+03 0.  0.
    5000000    2    1    2    0    0  0.29829884979E+02  0.21396708783E+04  0.19070771803E+03  0.22306644071E+04  0.60034404624E+03 0.  0.
         23    2    4    4    0    0  0.15978340552E+03  0.15185457842E+04 -0.86181595117E+02  0.15320680074E+04  0.91066330742E+02 0.  0.
         23    2    4    4    0    0 -0.12995352054E+03  0.62112509413E+03  0.27688931315E+03  0.69859639971E+03  0.93193014176E+02 0.  0.
          2    1    3    3  502    0 -0.65500442650E+02 -0.12030236282E+04  0.44100203864E+03  0.12829804972E+04  0.00000000000E+00 0. -1.
         -2    1    3    3    0  502  0.35670557671E+02 -0.93664725013E+03  0.38004647223E+03  0.10114424259E+04  0.00000000000E+00 0.  1.
         15    1    5    5    0    0 -0.55721179208E+01  0.28518108842E+03 -0.16028052679E+02  0.28569101822E+03  0.17770000000E+01 0.  1.
        -15    1    5    5    0    0  0.16535552344E+03  0.12333646958E+04 -0.70153542438E+02  0.12463769892E+04  0.17770000000E+01 0. -1.
          1    1    6    6  503    0 -0.95110968427E+02  0.50740769980E+03  0.26141277503E+03  0.57865819710E+03  0.00000000000E+00 0. -1.
         -1    1    6    6    0  503 -0.34842552113E+02  0.11371739433E+03  0.15476538120E+02  0.11993820261E+03  0.00000000000E+00 0.  1.
<mgrwt>
<rscale>  0 0.21534770E+04</rscale>
<asrwt>0</asrwt>
<pdfrwt beam="1">  1        2 0.42591104E+00 0.21534770E+04</pdfrwt>
<pdfrwt beam="2">  1       -2 0.27025624E+00 0.21534770E+04</pdfrwt>
<totfact> 0.10202698E-01</totfact>
</mgrwt>
</event>
<event>
12    1  0.7781383E-008  0.2978241E+04  0.7818608E-02  0.8249972E-01
          2   -1    0    0  501    0  0.00000000000E+00  0.00000000000E+00  0.39191766029E+04  0.39191766029E+04  0.00000000000E+00 0. -1.
         -2   -1    0    0    0  501 -0.00000000000E+00 -0.00000000000E+00 -0.27104886421E+04  0.27104886421E+04  0.00000000000E+00 0.  1.
         23    2    1    2    0    0 -0.20239384055E+04 -0.21757269942E+04  0.18894080726E+04  0.35225439084E+04  0.91313195091E+02 0.  0.
    5000000    2    1    2    0    0  0.20239384055E+04  0.21757269942E+04 -0.68072011183E+03  0.31071213366E+04  0.60059013260E+03 0.  0.
         23    2    4    4    0    0  0.14911055297E+04  0.14770387038E+04 -0.22431268492E+03  0.21127498483E+04  0.91415029165E+02 0.  0.
         23    2    4    4    0    0  0.53283287578E+03  0.69868829038E+03 -0.45640742692E+03  0.99437148833E+03  0.91600856060E+02 0.  0.
          1    1    3    3  502    0 -0.10047860837E+04 -0.10134531769E+04  0.91202166308E+03  0.16936546075E+04  0.00000000000E+00 0. -1.
         -1    1    3    3    0  502 -0.10191523218E+04 -0.11622738173E+04  0.97738640954E+03  0.18288893009E+04  0.00000000000E+00 0.  1.
         15    1    5    5    0    0  0.75823655360E+03  0.69560492742E+03 -0.13308450655E+03  0.10375468808E+04  0.17770000000E+01 0.  1.
        -15    1    5    5    0    0  0.73286897614E+03  0.78143377635E+03 -0.91228178363E+02  0.10752029675E+04  0.17770000000E+01 0. -1.
          1    1    6    6  503    0  0.32399390002E+03  0.49434620786E+03 -0.31537975468E+03  0.66993627319E+03  0.00000000000E+00 0. -1.
         -1    1    6    6    0  503  0.20883897576E+03  0.20434208252E+03 -0.14102767224E+03  0.32443521514E+03  0.00000000000E+00 0.  1.
<mgrwt>
<rscale>  0 0.29782412E+04</rscale>
<asrwt>0</asrwt>
<pdfrwt beam="1">  1        2 0.60295024E+00 0.29782412E+04</pdfrwt>
<pdfrwt beam="2">  1       -2 0.41699826E+00 0.29782412E+04</pdfrwt>
<totfact> 0.18008268E-03</totfact>
</mgrwt>
</event>
<event>
12    1  0.7781383E-008  0.8201666E+03  0.7818608E-02  0.9531277E-01
          2   -1    0    0  501    0  0.00000000000E+00  0.00000000000E+00  0.21119036239E+04  0.21119036239E+04  0.00000000000E+00 0. -1.
         -2   -1    0    0    0  501 -0.00000000000E+00 -0.00000000000E+00 -0.36558259890E+03  0.36558259890E+03  0.00000000000E+00 0.  1.
         23    2    1    2    0    0 -0.59328996125E+03  0.46561482523E+03  0.10142705591E+04  0.12672069225E+04  0.90986119561E+02 0.  0.
    5000000    2    1    2    0    0  0.59328996125E+03 -0.46561482523E+03  0.73205046592E+03  0.12102793002E+04  0.60007329247E+03 0.  0.
         23    2    4    4    0    0  0.14069834970E+03  0.68085516991E+02  0.37949816050E+03  0.42143593530E+03  0.95696031832E+02 0.  0.
         23    2    4    4    0    0  0.45259161155E+03 -0.53370034222E+03  0.35255230542E+03  0.78884336493E+03  0.91134539094E+02 0.  0.
          1    1    3    3  502    0 -0.55717730309E+03  0.45755154357E+03  0.98104699527E+03  0.12174782006E+04  0.00000000000E+00 0. -1.
         -1    1    3    3    0  502 -0.36112658164E+02  0.80632816564E+01  0.33223563795E+02  0.49728721902E+02  0.00000000000E+00 0.  1.
         15    1    5    5    0    0  0.37154248615E+02  0.69404233784E+02  0.18555492991E+03  0.20157176290E+03  0.17770000000E+01 0.  1.
        -15    1    5    5    0    0  0.10354410108E+03 -0.13187167933E+01  0.19394323059E+03  0.21986417240E+03  0.17770000000E+01 0. -1.
          3    1    6    6  503    0  0.43951493321E+03 -0.52296689249E+03  0.35776045542E+03  0.77114219870E+03  0.00000000000E+00 0. -1.
         -3    1    6    6    0  503  0.13076678346E+02 -0.10733449723E+02 -0.52081500035E+01  0.17701166232E+02  0.00000000000E+00 0.  1.
<mgrwt>
<rscale>  0 0.82016660E+03</rscale>
<asrwt>0</asrwt>
<pdfrwt beam="1">  1        2 0.32490824E+00 0.82016660E+03</pdfrwt>
<pdfrwt beam="2">  1       -2 0.56243478E-01 0.82016660E+03</pdfrwt>
<totfact> 0.17633052E+01</totfact>
</mgrwt>
</event>
<event>
12    1  0.7781383E-008  0.7707789E+03  0.7818608E-02  0.9603304E-01
         -1   -1    0    0    0  501 -0.00000000000E+00  0.00000000000E+00  0.25345210291E+03  0.25345210291E+03  0.00000000000E+00 0.  1.
          1   -1    0    0  501    0  0.00000000000E+00 -0.00000000000E+00 -0.33364038103E+04  0.33364038103E+04  0.00000000000E+00 0. -1.
         23    2    1    2    0    0 -0.71622072948E+03 -0.14451610297E+02 -0.60623051814E+03  0.94273463168E+03  0.89733841234E+02 0.  0.
    5000000    2    1    2    0    0  0.71622072948E+03  0.14451610297E+02 -0.24767211892E+04  0.26471212815E+04  0.59993520279E+03 0.  0.
         23    2    4    4    0    0  0.29752190601E+03 -0.18294676206E+03 -0.17027781449E+04  0.17406460733E+04  0.91687184154E+02 0.  0.
         23    2    4    4    0    0  0.41869882346E+03  0.19739837235E+03 -0.77394304438E+03  0.90647520818E+03  0.91840323044E+02 0.  0.
          4    1    3    3  502    0 -0.22167252749E+03 -0.33740822253E+02 -0.15135628309E+03  0.27052888378E+03  0.00000000000E+00 0. -1.
         -4    1    3    3    0  502 -0.49454820199E+03  0.19289211956E+02 -0.45487423506E+03  0.67220574790E+03  0.00000000000E+00 0.  1.
         15    1    5    5    0    0  0.13565136522E+03 -0.13247387635E+03 -0.80887330957E+03  0.83080070382E+03  0.17770000000E+01 0.  1.
        -15    1    5    5    0    0  0.16187054079E+03 -0.50472885710E+02 -0.89390483528E+03  0.90984536952E+03  0.17770000000E+01 0. -1.
          3    1    6    6  503    0  0.28340890020E+03  0.14257073890E+03 -0.60552067384E+03  0.68359513365E+03  0.00000000000E+00 0. -1.
         -3    1    6    6    0  503  0.13528992327E+03  0.54827633459E+02 -0.16842237054E+03  0.22288007454E+03  0.00000000000E+00 0.  1.
<mgrwt>
<rscale>  0 0.77077886E+03</rscale>
<asrwt>0</asrwt>
<pdfrwt beam="1">  1        1 0.51329289E+00 0.77077886E+03</pdfrwt>
<pdfrwt beam="2">  1       -1 0.38992632E-01 0.77077886E+03</pdfrwt>
<totfact> 0.23011323E+00</totfact>
</mgrwt>
</event>
<event>
12    1  0.7781383E-008  0.3804123E+03  0.7818608E-02  0.1050781E+00
         -2   -1    0    0    0  501 -0.00000000000E+00  0.00000000000E+00  0.14821225975E+03  0.14821225975E+03  0.00000000000E+00 0.  1.
          2   -1    0    0  501    0  0.00000000000E+00 -0.00000000000E+00 -0.25900228777E+04  0.25900228777E+04  0.00000000000E+00 0. -1.
         23    2    1    2    0    0  0.17534765235E+03 -0.57611675972E+02 -0.18936585501E+04  0.19047753872E+04  0.90336410695E+02 0.  0.
    5000000    2    1    2    0    0 -0.17534765235E+03  0.57611675972E+02 -0.54815206790E+03  0.83345975026E+03  0.60009879301E+03 0.  0.
         23    2    4    4    0    0 -0.32219192276E+03 -0.10723988160E+03 -0.45630077166E+03  0.57730173154E+03  0.98786981562E+02 0.  0.
         23    2    4    4    0    0  0.14684427041E+03  0.16485155757E+03 -0.91851296245E+02  0.25615801872E+03  0.91874883129E+02 0.  0.
          3    1    3    3  502    0  0.72166275060E+02 -0.10704477688E+01 -0.11088388233E+04  0.11111852470E+04  0.00000000000E+00 0. -1.
         -3    1    3    3    0  502  0.10318137729E+03 -0.56541228203E+02 -0.78481972681E+03  0.79359014025E+03  0.00000000000E+00 0.  1.
         15    1    5    5    0    0 -0.46697106293E+02 -0.23385223546E+02 -0.14054381459E+03  0.14994402278E+03  0.17770000000E+01 0.  1.
        -15    1    5    5    0    0 -0.27549481646E+03 -0.83854658050E+02 -0.31575695706E+03  0.42735770876E+03  0.17770000000E+01 0. -1.
          3    1    6    6  503    0  0.50725784974E+02  0.15302702017E+02  0.58495241751E+01  0.53305674026E+02  0.00000000000E+00 0. -1.
         -3    1    6    6    0  503  0.96118485437E+02  0.14954885555E+03 -0.97700820420E+02  0.20285234470E+03  0.00000000000E+00 0.  1.
<mgrwt>
<rscale>  0 0.38041232E+03</rscale>
<asrwt>0</asrwt>
<pdfrwt beam="1">  1        2 0.39846507E+00 0.38041232E+03</pdfrwt>
<pdfrwt beam="2">  1       -2 0.22801885E-01 0.38041232E+03</pdfrwt>
<totfact> 0.58280666E+01</totfact>
</mgrwt>
</event>
<event>
12    1  0.7781383E-008  0.4162635E+03  0.7818608E-02  0.1038289E+00
          1   -1    0    0  501    0  0.00000000000E+00  0.00000000000E+00  0.39143794103E+03  0.39143794103E+03  0.00000000000E+00 0. -1.
         -1   -1    0    0    0  501 -0.00000000000E+00 -0.00000000000E+00 -0.63141358301E+03  0.63141358301E+03  0.00000000000E+00 0.  1.
         23    2    1    2    0    0 -0.20578682430E+03  0.16959974543E+03 -0.22806530548E+03  0.36606967968E+03  0.10431172570E+03 0.  0.
    5000000    2    1    2    0    0  0.20578682430E+03 -0.16959974543E+03 -0.11910336501E+02  0.65678184435E+03  0.60009019676E+03 0.  0.
         23    2    4    4    0    0 -0.14549564237E+03 -0.57168909733E+02  0.15726753887E+03  0.23978096605E+03  0.91239063511E+02 0.  0.
         23    2    4    4    0    0  0.35128246667E+03 -0.11243083569E+03 -0.16917787537E+03  0.41700087830E+03  0.96065159037E+02 0.  0.
          3    1    3    3  502    0 -0.76588329567E+02  0.12874311587E+03 -0.13525829615E+03  0.20183004927E+03  0.00000000000E+00 0. -1.
         -3    1    3    3    0  502 -0.12919849473E+03  0.40856629558E+02 -0.92807009321E+02  0.16423963041E+03  0.00000000000E+00 0.  1.
         15    1    5    5    0    0 -0.44729331351E+02 -0.52256441224E+02  0.10658434487E+03  0.12686539730E+03  0.17770000000E+01 0.  1.
        -15    1    5    5    0    0 -0.10076631102E+03 -0.49124685088E+01  0.50683194004E+02  0.11291556876E+03  0.17770000000E+01 0. -1.
          3    1    6    6  503    0  0.98144162432E+02 -0.70694866870E+02 -0.81612352711E+02  0.14591304581E+03  0.00000000000E+00 0. -1.
         -3    1    6    6    0  503  0.25313830424E+03 -0.41735968824E+02 -0.87565522660E+02  0.27108783249E+03  0.00000000000E+00 0.  1.
<mgrwt>
<rscale>  0 0.41626353E+03</rscale>
<asrwt>0</asrwt>
<pdfrwt beam="1">  1        1 0.60221223E-01 0.41626353E+03</pdfrwt>
<pdfrwt beam="2">  1       -1 0.97140550E-01 0.41626353E+03</pdfrwt>
<totfact> 0.66239850E+01</totfact>
</mgrwt>
</event>
<event>
12    1  0.8784754E-008  0.1186907E+04  0.7818608E-02  0.9124395E-01
          1   -1    0    0  501    0  0.00000000000E+00  0.00000000000E+00  0.21927802534E+04  0.21927802534E+04  0.00000000000E+00 0. -1.
         -1   -1    0    0    0  501 -0.00000000000E+00 -0.00000000000E+00 -0.67671464727E+03  0.67671464727E+03  0.00000000000E+00 0.  1.
         23    2    1    2    0    0  0.10729871583E+04  0.38908628085E+03  0.64933035491E+03  0.13157401353E+04  0.82780542203E+02 0.  0.
    5000000    2    1    2    0    0 -0.10729871583E+04 -0.38908628085E+03  0.86673525121E+03  0.15537547653E+04  0.60019521767E+03 0.  0.
         23    2    4    4    0    0 -0.76145061962E+03 -0.47167568653E+03  0.82128528694E+03  0.12182817315E+04  0.86115361605E+02 0.  0.
         23    2    4    4    0    0 -0.31153653866E+03  0.82589405689E+02  0.45449964276E+02  0.33547303378E+03  0.81243044558E+02 0.  0.
          3    1    3    3  502    0  0.46086238904E+03  0.12555470922E+03  0.28470042959E+03  0.55606875586E+03  0.00000000000E+00 0. -1.
         -3    1    3    3    0  502  0.61212476923E+03  0.26353157163E+03  0.36462992532E+03  0.75967137948E+03  0.00000000000E+00 0.  1.
         15    1    5    5    0    0 -0.46829927224E+03 -0.25896753248E+03  0.44480493359E+03  0.69586132090E+03  0.17770000000E+01 0. -1.
        -15    1    5    5    0    0 -0.29315134738E+03 -0.21270815405E+03  0.37648035335E+03  0.52242041064E+03  0.17770000000E+01 0.  1.
          1    1    6    6  503    0 -0.43775537448E+02  0.43619836908E+02  0.83497162709E+01  0.62359486949E+02  0.00000000000E+00 0. -1.
         -1    1    6    6    0  503 -0.26776100121E+03  0.38969568781E+02  0.37100248006E+02  0.27311354683E+03  0.00000000000E+00 0.  1.
<mgrwt>
<rscale>  0 0.11869070E+04</rscale>
<asrwt>0</asrwt>
<pdfrwt beam="1">  1        1 0.33735081E+00 0.11869070E+04</pdfrwt>
<pdfrwt beam="2">  1       -1 0.10410995E+00 0.11869070E+04</pdfrwt>
<totfact> 0.18919269E+00</totfact>
</mgrwt>
</event>
<event>
12    1  0.7781383E-008  0.1137986E+04  0.7818608E-02  0.9168939E-01
          1   -1    0    0  501    0  0.00000000000E+00  0.00000000000E+00  0.14540034588E+04  0.14540034588E+04  0.00000000000E+00 0. -1.
         -1   -1    0    0    0  501 -0.00000000000E+00 -0.00000000000E+00 -0.11375438052E+04  0.11375438052E+04  0.00000000000E+00 0.  1.
         23    2    1    2    0    0  0.88082904523E+03  0.64120573931E+03  0.69005519648E+03  0.12928498919E+04  0.90994844455E+02 0.  0.
    5000000    2    1    2    0    0 -0.88082904523E+03 -0.64120573931E+03 -0.37359554282E+03  0.12986973721E+04  0.60003052227E+03 0.  0.
         23    2    4    4    0    0 -0.77668339899E+02  0.70013832062E+02 -0.14241977875E+03  0.19774463136E+03  0.88798863442E+02 0.  0.
         23    2    4    4    0    0 -0.80316070533E+03 -0.71121957137E+03 -0.23117576407E+03  0.11009527407E+04  0.88058538368E+02 0.  0.
          1    1    3    3  502    0  0.68276703714E+03  0.50613945098E+03  0.49316729313E+03  0.98263011854E+03  0.00000000000E+00 0. -1.
         -1    1    3    3    0  502  0.19806200809E+03  0.13506628833E+03  0.19688790334E+03  0.31021977334E+03  0.00000000000E+00 0.  1.
         15    1    5    5    0    0 -0.59258380175E+02  0.31124083806E+02 -0.23001598979E+02  0.70798979500E+02  0.17770000000E+01 0. -1.
        -15    1    5    5    0    0 -0.18409959724E+02  0.38889748256E+02 -0.11941817977E+03  0.12694565186E+03  0.17770000000E+01 0.  1.
          3    1    6    6  503    0 -0.66335678770E+03 -0.54069310787E+03 -0.17773763590E+03  0.87406059968E+03  0.00000000000E+00 0. -1.
         -3    1    6    6    0  503 -0.13980391763E+03 -0.17052646350E+03 -0.53438128174E+02  0.22689214107E+03  0.00000000000E+00 0.  1.
<mgrwt>
<rscale>  0 0.11379865E+04</rscale>
<asrwt>0</asrwt>
<pdfrwt beam="1">  1        1 0.22369284E+00 0.11379865E+04</pdfrwt>
<pdfrwt beam="2">  1       -1 0.17500674E+00 0.11379865E+04</pdfrwt>
<totfact> 0.15727236E+00</totfact>
</mgrwt>
</event>
<event>
12    1  0.7781383E-008  0.4473762E+03  0.7818608E-02  0.1028507E+00
         -1   -1    0    0    0  501 -0.00000000000E+00  0.00000000000E+00  0.34048445702E+03  0.34048445702E+03  0.00000000000E+00 0.  1.
          1   -1    0    0  501    0  0.00000000000E+00 -0.00000000000E+00 -0.12272108458E+04  0.12272108458E+04  0.00000000000E+00 0. -1.
         23    2    1    2    0    0  0.83388286988E+02  0.26355226898E+03 -0.85871206495E+03  0.90663912464E+03  0.90524510222E+02 0.  0.
    5000000    2    1    2    0    0 -0.83388286988E+02 -0.26355226898E+03 -0.28014323877E+02  0.66105617822E+03  0.59983086243E+03 0.  0.
         23    2    4    4    0    0 -0.27540756400E+02  0.16867943141E+03 -0.86198711300E+02  0.21182453524E+03  0.90709272170E+02 0.  0.
         23    2    4    4    0    0 -0.55847530588E+02 -0.43223170039E+03  0.58184387423E+02  0.44923164297E+03  0.92089394683E+02 0.  0.
          3    1    3    3  502    0  0.60322803245E+02  0.11981232688E+03 -0.28888165126E+03  0.31850658187E+03  0.00000000000E+00 0. -1.
         -3    1    3    3    0  502  0.23065483743E+02  0.14373994210E+03 -0.56983041369E+03  0.58813254277E+03  0.00000000000E+00 0.  1.
         15    1    5    5    0    0  0.12038434954E+02  0.74040138249E+02  0.41054117046E+01  0.75145712602E+02  0.17770000000E+01 0. -1.
        -15    1    5    5    0    0 -0.39579191354E+02  0.94639293160E+02 -0.90304123005E+02  0.13667882264E+03  0.17770000000E+01 0.  1.
          1    1    6    6  503    0 -0.97679512371E+01 -0.16887602323E+02  0.22557174529E+02  0.29823314811E+02  0.00000000000E+00 0. -1.
         -1    1    6    6    0  503 -0.46079579351E+02 -0.41534409807E+03  0.35627212894E+02  0.41940832816E+03  0.00000000000E+00 0.  1.
<mgrwt>
<rscale>  0 0.44737622E+03</rscale>
<asrwt>0</asrwt>
<pdfrwt beam="1">  1        1 0.18880167E+00 0.44737622E+03</pdfrwt>
<pdfrwt beam="2">  1       -1 0.52382225E-01 0.44737622E+03</pdfrwt>
<totfact> 0.40199054E+01</totfact>
</mgrwt>
</event>
<event>
12    1  0.7781383E-008  0.5090463E+03  0.7818608E-02  0.1011444E+00
          2   -1    0    0  501    0  0.00000000000E+00  0.00000000000E+00  0.19074151934E+04  0.19074151934E+04  0.00000000000E+00 0.  1.
         -2   -1    0    0    0  501 -0.00000000000E+00 -0.00000000000E+00 -0.16826771494E+03  0.16826771494E+03  0.00000000000E+00 0. -1.
         23    2    1    2    0    0  0.33093025324E+03  0.84807676708E+02  0.25143020736E+03  0.43559598663E+03  0.99093591376E+02 0.  0.
    5000000    2    1    2    0    0 -0.33093025324E+03 -0.84807676708E+02  0.14877172711E+04  0.16400869217E+04  0.59989603891E+03 0.  0.
         23    2    4    4    0    0 -0.78525304707E+01 -0.27995038369E+03  0.75031279231E+03  0.80590699783E+03  0.89905079331E+02 0.  0.
         23    2    4    4    0    0 -0.32307772277E+03  0.19514270698E+03  0.73740447884E+03  0.83417992392E+03  0.98137093004E+02 0.  0.
          1    1    3    3  502    0  0.57011948197E+02  0.47725712986E+02  0.85053875798E+02  0.11297020716E+03  0.00000000000E+00 0. -1.
         -1    1    3    3    0  502  0.27391830505E+03  0.37081963722E+02  0.16637633156E+03  0.32262577947E+03  0.00000000000E+00 0.  1.
         15    1    5    5    0    0 -0.38866688063E+02 -0.14461733524E+03  0.46648738946E+03  0.48993717490E+03  0.17770000000E+01 0.  1.
        -15    1    5    5    0    0  0.31014157592E+02 -0.13533304845E+03  0.28382540284E+03  0.31596982293E+03  0.17770000000E+01 0. -1.
          3    1    6    6  503    0 -0.15989329073E+03  0.11469020376E+03  0.28282194279E+03  0.34454021330E+03  0.00000000000E+00 0. -1.
         -3    1    6    6    0  503 -0.16318443204E+03  0.80452503225E+02  0.45458253605E+03  0.48963971062E+03  0.00000000000E+00 0.  1.
<mgrwt>
<rscale>  0 0.50904631E+03</rscale>
<asrwt>0</asrwt>
<pdfrwt beam="1">  1        2 0.29344848E+00 0.50904631E+03</pdfrwt>
<pdfrwt beam="2">  1       -2 0.25887342E-01 0.50904631E+03</pdfrwt>
<totfact> 0.10676769E+02</totfact>
</mgrwt>
</event>
<event>
12    1  0.7781383E-008  0.1374365E+04  0.7818608E-02  0.8972586E-01
          2   -1    0    0  501    0  0.00000000000E+00  0.00000000000E+00  0.84536103626E+03  0.84536103626E+03  0.00000000000E+00 0.  1.
         -2   -1    0    0    0  501 -0.00000000000E+00 -0.00000000000E+00 -0.24894390867E+04  0.24894390867E+04  0.00000000000E+00 0. -1.
         23    2    1    2    0    0 -0.51210987903E+03 -0.12406121087E+04 -0.11920732424E+04  0.17969355910E+04  0.81018334506E+02 0.  0.
    5000000    2    1    2    0    0  0.51210987903E+03  0.12406121087E+04 -0.45200480801E+03  0.15378645319E+04  0.59945311720E+03 0.  0.
         23    2    4    4    0    0  0.38371838591E+03  0.42825118748E+03  0.25297074976E+02  0.58285304876E+03  0.91863241681E+02 0.  0.
         23    2    4    4    0    0  0.12839149311E+03  0.81236092120E+03 -0.47730188298E+03  0.95501148318E+03  0.88403640829E+02 0.  0.
          1    1    3    3  502    0 -0.11320746335E+03 -0.23663240972E+03 -0.27239224099E+03  0.37816446163E+03  0.00000000000E+00 0. -1.
         -1    1    3    3    0  502 -0.39890241568E+03 -0.10039796990E+04 -0.91968100141E+03  0.14187711294E+04  0.00000000000E+00 0.  1.
         15    1    5    5    0    0  0.36820651271E+03  0.42726341768E+03  0.15209069637E+02  0.56423801504E+03  0.17770000000E+01 0.  1.
        -15    1    5    5    0    0  0.15511873207E+02  0.98776980447E+00  0.10088005339E+02  0.18615033717E+02  0.17770000000E+01 0. -1.
          3    1    6    6  503    0  0.29667869047E+02  0.44590149281E+03 -0.23753799452E+03  0.50609546785E+03  0.00000000000E+00 0. -1.
         -3    1    6    6    0  503  0.98723624067E+02  0.36645942840E+03 -0.23976388846E+03  0.44891601533E+03  0.00000000000E+00 0.  1.
<mgrwt>
<rscale>  0 0.13743654E+04</rscale>
<asrwt>0</asrwt>
<pdfrwt beam="1">  1        2 0.13005555E+00 0.13743654E+04</pdfrwt>
<pdfrwt beam="2">  1       -2 0.38299062E+00 0.13743654E+04</pdfrwt>
<totfact> 0.29588633E-01</totfact>
</mgrwt>
</event>
<event>
12    1  0.7781383E-008  0.8714851E+03  0.7818608E-02  0.9461946E-01
          2   -1    0    0  501    0  0.00000000000E+00  0.00000000000E+00  0.28819912318E+04  0.28819912318E+04  0.00000000000E+00 0. -1.
         -2   -1    0    0    0  501 -0.00000000000E+00 -0.00000000000E+00 -0.32419450935E+03  0.32419450935E+03  0.00000000000E+00 0.  1.
         23    2    1    2    0    0 -0.75889512172E+03 -0.16051881379E+03  0.50166446987E+03  0.92816860123E+03  0.90230907325E+02 0.  0.
    5000000    2    1    2    0    0  0.75889512172E+03  0.16051881379E+03  0.20561322526E+04  0.22780171399E+04  0.59999512852E+03 0.  0.
         23    2    4    4    0    0  0.28894978000E+03  0.33788428602E+03  0.11712857034E+04  0.12561116221E+04  0.90820933481E+02 0.  0.
         23    2    4    4    0    0  0.46994534172E+03 -0.17736547223E+03  0.88484654917E+03  0.10219055178E+04  0.95028084704E+02 0.  0.
          4    1    3    3  502    0 -0.69759182505E+03 -0.13020153783E+03  0.43328709980E+03  0.83145926279E+03  0.00000000000E+00 0.  1.
         -4    1    3    3    0  502 -0.61303296668E+02 -0.30317275965E+02  0.68377370064E+02  0.96709338438E+02  0.00000000000E+00 0. -1.
         15    1    5    5    0    0  0.22988472318E+02  0.80090391554E+02  0.22033834939E+03  0.23557395148E+03  0.17770000000E+01 0. -1.
        -15    1    5    5    0    0  0.26596130769E+03  0.25779389447E+03  0.95094735402E+03  0.10205376706E+04  0.17770000000E+01 0.  1.
          1    1    6    6  503    0  0.45014790848E+02 -0.50680185764E+02  0.11481391206E+03  0.13333059299E+03  0.00000000000E+00 0. -1.
         -1    1    6    6    0  503  0.42493055087E+03 -0.12668528647E+03  0.77003263710E+03  0.88857492485E+03  0.00000000000E+00 0.  1.
<mgrwt>
<rscale>  0 0.87148514E+03</rscale>
<asrwt>0</asrwt>
<pdfrwt beam="1">  1        2 0.44338325E+00 0.87148514E+03</pdfrwt>
<pdfrwt beam="2">  1       -2 0.49876080E-01 0.87148514E+03</pdfrwt>
<totfact> 0.81456795E+00</totfact>
</mgrwt>
</event>
<event>
12    1  0.7781383E-008  0.1506517E+04  0.7818608E-02  0.8880131E-01
          1   -1    0    0  501    0  0.00000000000E+00  0.00000000000E+00  0.19851518912E+04  0.19851518912E+04  0.00000000000E+00 0. -1.
         -1   -1    0    0    0  501 -0.00000000000E+00 -0.00000000000E+00 -0.23483445482E+04  0.23483445482E+04  0.00000000000E+00 0.  1.
         23    2    1    2    0    0 -0.91515407887E+03 -0.11838809739E+04  0.13238800902E+04  0.20000055358E+04  0.91008248910E+02 0.  0.
    5000000    2    1    2    0    0  0.91515407887E+03  0.11838809739E+04 -0.16870727473E+04  0.23334909037E+04  0.59990348776E+03 0.  0.
         23    2    4    4    0    0  0.26266321963E+03  0.23603278594E+03 -0.79262419162E+03  0.87242339597E+03  0.90366087199E+02 0.  0.
         23    2    4    4    0    0  0.65249085924E+03  0.94784818796E+03 -0.89444855563E+03  0.14610675077E+04  0.10256478254E+03 0.  0.
          2    1    3    3  502    0 -0.29564548281E+03 -0.45291413189E+03  0.46798245320E+03  0.71522376840E+03  0.00000000000E+00 0. -1.
         -2    1    3    3    0  502 -0.61950859606E+03 -0.73096684201E+03  0.85589763700E+03  0.12847817674E+04  0.00000000000E+00 0.  1.
         15    1    5    5    0    0  0.19903207063E+03  0.13510769729E+03 -0.46112779879E+03  0.52010562345E+03  0.17770000000E+01 0.  1.
        -15    1    5    5    0    0  0.63631149000E+02  0.10092508866E+03 -0.33149639283E+03  0.35231777252E+03  0.17770000000E+01 0. -1.
          3    1    6    6  503    0  0.19615444773E+03  0.21726910204E+03 -0.19857263896E+03  0.35371389993E+03  0.00000000000E+00 0. -1.
         -3    1    6    6    0  503  0.45633641151E+03  0.73057908592E+03 -0.69587591668E+03  0.11073536078E+04  0.00000000000E+00 0.  1.
<mgrwt>
<rscale>  0 0.15065173E+04</rscale>
<asrwt>0</asrwt>
<pdfrwt beam="1">  1        1 0.30540799E+00 0.15065173E+04</pdfrwt>
<pdfrwt beam="2">  1       -1 0.36128377E+00 0.15065173E+04</pdfrwt>
<totfact> 0.37610893E-02</totfact>
</mgrwt>
</event>
<event>
12    1  0.7781383E-008  0.4646933E+03  0.7818608E-02  0.1023429E+00
          2   -1    0    0  501    0  0.00000000000E+00  0.00000000000E+00  0.21630174940E+04  0.21630174940E+04  0.00000000000E+00 0. -1.
         -2   -1    0    0    0  501 -0.00000000000E+00 -0.00000000000E+00 -0.15927892593E+03  0.15927892593E+03  0.00000000000E+00 0.  1.
         23    2    1    2    0    0 -0.29523293248E+03 -0.90245214779E+02  0.14696655159E+03  0.34645125445E+03  0.55880418845E+02 0.  0.
    5000000    2    1    2    0    0  0.29523293248E+03  0.90245214779E+02  0.18567720164E+04  0.19758451655E+04  0.60087861802E+03 0.  0.
         23    2    4    4    0    0  0.42830700663E+03  0.14035208340E+03  0.16279461626E+04  0.16913830013E+04  0.86151897635E+02 0.  0.
         23    2    4    4    0    0 -0.13307407416E+03 -0.50106868616E+02  0.22882585383E+03  0.28446216416E+03  0.91312890443E+02 0.  0.
          3    1    3    3  502    0 -0.99588417168E+02 -0.48480866822E+02  0.30161329698E+02  0.11479526598E+03  0.00000000000E+00 0. -1.
         -3    1    3    3    0  502 -0.19564451531E+03 -0.41764347957E+02  0.11680522190E+03  0.23165598847E+03  0.00000000000E+00 0.  1.
         15    1    5    5    0    0  0.18485724437E+03  0.48999295919E+02  0.54247738959E+03  0.57520257974E+03  0.17770000000E+01 0.  1.
        -15    1    5    5    0    0  0.24344976226E+03  0.91352787476E+02  0.10854687730E+04  0.11161804216E+04  0.17770000000E+01 0. -1.
          1    1    6    6  503    0 -0.82540910656E+02  0.16005086707E+02  0.94879767949E+02  0.12677276955E+03  0.00000000000E+00 0. -1.
         -1    1    6    6    0  503 -0.50533163500E+02 -0.66111955323E+02  0.13394608588E+03  0.15768939461E+03  0.00000000000E+00 0.  1.
<mgrwt>
<rscale>  0 0.46469327E+03</rscale>
<asrwt>0</asrwt>
<pdfrwt beam="1">  1        2 0.33277190E+00 0.46469327E+03</pdfrwt>
<pdfrwt beam="2">  1       -2 0.24504452E-01 0.46469327E+03</pdfrwt>
<totfact> 0.86430488E+01</totfact>
</mgrwt>
</event>
<event>
12    1  0.7781383E-008  0.1185186E+04  0.7818608E-02  0.9125923E-01
         -2   -1    0    0    0  501 -0.00000000000E+00  0.00000000000E+00  0.72211987844E+03  0.72211987844E+03  0.00000000000E+00 0.  1.
          2   -1    0    0  501    0  0.00000000000E+00 -0.00000000000E+00 -0.20778824095E+04  0.20778824095E+04  0.00000000000E+00 0. -1.
         23    2    1    2    0    0 -0.83084129723E+03 -0.78224584776E+03 -0.48351508394E+03  0.12427739663E+04  0.92165434770E+02 0.  0.
    5000000    2    1    2    0    0  0.83084129723E+03  0.78224584776E+03 -0.87224744713E+03  0.15572283217E+04  0.60161333863E+03 0.  0.
         23    2    4    4    0    0  0.48066032715E+02  0.31134828534E+03 -0.66069743529E+02  0.33542003063E+03  0.94304229249E+02 0.  0.
         23    2    4    4    0    0  0.78277526452E+03  0.47089756242E+03 -0.80617770360E+03  0.12218082910E+04  0.91713582385E+02 0.  0.
          4    1    3    3  502    0 -0.11041277495E+03 -0.10539901539E+03 -0.31658511563E+02  0.15589161194E+03  0.00000000000E+00 0. -1.
         -4    1    3    3    0  502 -0.72042852228E+03 -0.67684683237E+03 -0.45185657238E+03  0.10868823544E+04  0.00000000000E+00 0.  1.
         15    1    5    5    0    0  0.32904943251E+02  0.26211875364E+03 -0.89325073268E+02  0.27887470796E+03  0.17770000000E+01 0. -1.
        -15    1    5    5    0    0  0.15161089464E+02  0.49229531704E+02  0.23255329739E+02  0.56545322670E+02  0.17770000000E+01 0.  1.
          3    1    6    6  503    0  0.53448333813E+03  0.32265937782E+03 -0.60630063300E+03  0.87027695041E+03  0.00000000000E+00 0. -1.
         -3    1    6    6    0  503  0.24829192639E+03  0.14823818460E+03 -0.19987707060E+03  0.35153134061E+03  0.00000000000E+00 0.  1.
<mgrwt>
<rscale>  0 0.11851862E+04</rscale>
<asrwt>0</asrwt>
<pdfrwt beam="1">  1        2 0.31967422E+00 0.11851862E+04</pdfrwt>
<pdfrwt beam="2">  1       -2 0.11109537E+00 0.11851862E+04</pdfrwt>
<totfact> 0.37980846E+00</totfact>
</mgrwt>
</event>
<event>
12    1  0.7781383E-008  0.6163130E+03  0.7818608E-02  0.9872128E-01
         -2   -1    0    0    0  501 -0.00000000000E+00  0.00000000000E+00  0.20395087830E+04  0.20395087830E+04  0.00000000000E+00 0. -1.
          2   -1    0    0  501    0  0.00000000000E+00 -0.00000000000E+00 -0.34654194761E+03  0.34654194761E+03  0.00000000000E+00 0.  1.
         23    2    1    2    0    0 -0.22948411054E+03 -0.47200630548E+03  0.14622361174E+04  0.15562243662E+04  0.90812475343E+02 0.  0.
    5000000    2    1    2    0    0  0.22948411054E+03  0.47200630548E+03  0.23073071804E+03  0.82982636439E+03  0.59993518099E+03 0.  0.
         23    2    4    4    0    0 -0.11279278018E+03  0.28113899502E+03  0.28533764558E+03  0.42616411401E+03  0.91852786034E+02 0.  0.
         23    2    4    4    0    0  0.34227689072E+03  0.19086731046E+03 -0.54606927541E+02  0.40366225039E+03  0.79859224414E+02 0.  0.
          4    1    3    3  502    0 -0.20285230760E+03 -0.36074188432E+03  0.10566036831E+04  0.11347665438E+04  0.00000000000E+00 0. -1.
         -4    1    3    3    0  502 -0.26631802945E+02 -0.11126442117E+03  0.40563243428E+03  0.42145782243E+03  0.00000000000E+00 0.  1.
         15    1    5    5    0    0  0.73327834324E+00  0.90531783002E+02  0.11546638236E+03  0.14673849057E+03  0.17770000000E+01 0. -1.
        -15    1    5    5    0    0 -0.11352605852E+03  0.19060721202E+03  0.16987126322E+03  0.27942562344E+03  0.17770000000E+01 0.  1.
          4    1    6    6  503    0  0.31686006698E+03  0.17841633922E+03 -0.27832251900E+02  0.36470169508E+03  0.00000000000E+00 0. -1.
         -4    1    6    6    0  503  0.25416823741E+02  0.12450971241E+02 -0.26774675640E+02  0.38960555303E+02  0.00000000000E+00 0.  1.
<mgrwt>
<rscale>  0 0.61631300E+03</rscale>
<asrwt>0</asrwt>
<pdfrwt beam="1">  1        2 0.53314147E-01 0.61631300E+03</pdfrwt>
<pdfrwt beam="2">  1       -2 0.31377058E+00 0.61631300E+03</pdfrwt>
<totfact> 0.26076264E+00</totfact>
</mgrwt>
</event>
<event>
12    1  0.7781383E-008  0.5314961E+03  0.7818608E-02  0.1005870E+00
          2   -1    0    0  501    0  0.00000000000E+00  0.00000000000E+00  0.72585055100E+03  0.72585055100E+03  0.00000000000E+00 0. -1.
         -2   -1    0    0    0  501 -0.00000000000E+00 -0.00000000000E+00 -0.41794971910E+03  0.41794971910E+03  0.00000000000E+00 0.  1.
         23    2    1    2    0    0 -0.23072350357E+03  0.29554248990E+03  0.64712545475E+02  0.39578071987E+03  0.10897690691E+03 0.  0.
    5000000    2    1    2    0    0  0.23072350357E+03 -0.29554248990E+03  0.24318828643E+03  0.74801955023E+03  0.59984498534E+03 0.  0.
         23    2    4    4    0    0  0.41058753234E+03 -0.15018061582E+03  0.22354514356E+03  0.49931491444E+03  0.90590360936E+02 0.  0.
         23    2    4    4    0    0 -0.17986402876E+03 -0.14536187408E+03  0.19643142874E+02  0.24870463579E+03  0.89370014676E+02 0.  0.
          1    1    3    3  502    0 -0.15865557385E+03  0.13588488169E+03 -0.42205433707E+00  0.20889344249E+03  0.00000000000E+00 0. -1.
         -1    1    3    3    0  502 -0.72067929728E+02  0.15965760821E+03  0.65134599812E+02  0.18688727738E+03  0.00000000000E+00 0.  1.
         15    1    5    5    0    0  0.34441813393E+03 -0.12173664817E+03  0.22155957845E+03  0.42724169626E+03  0.17770000000E+01 0. -1.
        -15    1    5    5    0    0  0.66169398407E+02 -0.28443967656E+02  0.19855651042E+01  0.72073218184E+02  0.17770000000E+01 0.  1.
          4    1    6    6  503    0 -0.18639729276E+03 -0.13975618815E+03  0.30378701650E+02  0.23494384092E+03  0.00000000000E+00 0. -1.
         -4    1    6    6    0  503  0.65332639935E+01 -0.56056859232E+01 -0.10735558777E+02  0.13760794865E+02  0.00000000000E+00 0.  1.
<mgrwt>
<rscale>  0 0.53149609E+03</rscale>
<asrwt>0</asrwt>
<pdfrwt beam="1">  1        2 0.11166931E+00 0.53149609E+03</pdfrwt>
<pdfrwt beam="2">  1       -2 0.64299957E-01 0.53149609E+03</pdfrwt>
<totfact> 0.89978390E+01</totfact>
</mgrwt>
</event>
<event>
12    1  0.7781383E-008  0.6006600E+03  0.7818608E-02  0.9904038E-01
          2   -1    0    0  501    0  0.00000000000E+00  0.00000000000E+00  0.51303563260E+03  0.51303563260E+03  0.00000000000E+00 0. -1.
         -2   -1    0    0    0  501 -0.00000000000E+00 -0.00000000000E+00 -0.10907961184E+04  0.10907961184E+04  0.00000000000E+00 0.  1.
         23    2    1    2    0    0 -0.98432874734E+01 -0.46178476169E+03 -0.69276600235E+03  0.83781954350E+03  0.93138590410E+02 0.  0.
    5000000    2    1    2    0    0  0.98432874734E+01  0.46178476169E+03  0.11500551657E+03  0.76601220748E+03  0.60017195597E+03 0.  0.
         23    2    4    4    0    0  0.12952936954E+03  0.55536205186E+03  0.62897682235E+02  0.58107677761E+03  0.92137054583E+02 0.  0.
         23    2    4    4    0    0 -0.11968608207E+03 -0.93577290165E+02  0.52107834331E+02  0.18493542988E+03  0.91675620253E+02 0.  0.
          4    1    3    3  502    0 -0.44316624120E+02 -0.12549479895E+03 -0.19053903913E+03  0.23241779874E+03  0.00000000000E+00 0. -1.
         -4    1    3    3    0  502  0.34473336647E+02 -0.33628996274E+03 -0.50222696322E+03  0.60540174477E+03  0.00000000000E+00 0.  1.
         15    1    5    5    0    0  0.52381394859E+02  0.35686986567E+03  0.72430716626E+02  0.36789846153E+03  0.17770000000E+01 0. -1.
        -15    1    5    5    0    0  0.77147974684E+02  0.19849218618E+03 -0.95330343903E+01  0.21317831608E+03  0.17770000000E+01 0.  1.
          3    1    6    6  503    0 -0.84877719107E+02 -0.43084610480E+02 -0.12325713128E+02  0.95981425626E+02  0.00000000000E+00 0. -1.
         -3    1    6    6    0  503 -0.34808362963E+02 -0.50492679685E+02  0.64433547459E+02  0.88954004250E+02  0.00000000000E+00 0.  1.
<mgrwt>
<rscale>  0 0.60066001E+03</rscale>
<asrwt>0</asrwt>
<pdfrwt beam="1">  1        2 0.78928560E-01 0.60066001E+03</pdfrwt>
<pdfrwt beam="2">  1       -2 0.16781479E+00 0.60066001E+03</pdfrwt>
<totfact> 0.13623872E+01</totfact>
</mgrwt>
</event>
<event>
12    1  0.7781383E-008  0.3801626E+03  0.7818608E-02  0.1050874E+00
         -2   -1    0    0    0  501 -0.00000000000E+00  0.00000000000E+00  0.13964502103E+03  0.13964502103E+03  0.00000000000E+00 0.  1.
          2   -1    0    0  501    0  0.00000000000E+00 -0.00000000000E+00 -0.17397368743E+04  0.17397368743E+04  0.00000000000E+00 0. -1.
         23    2    1    2    0    0  0.20202537857E+03 -0.21504924940E+03 -0.39904838670E+03  0.50478008288E+03  0.92211083374E+02 0.  0.
    5000000    2    1    2    0    0 -0.20202537857E+03  0.21504924940E+03 -0.12010434666E+04  0.13746018125E+04  0.59997025005E+03 0.  0.
         23    2    4    4    0    0  0.42142447456E+02  0.21645744758E+03 -0.12802444108E+03  0.27039455724E+03  0.89961917400E+02 0.  0.
         23    2    4    4    0    0 -0.24416782602E+03 -0.14081981785E+01 -0.10730190255E+04  0.11042072552E+04  0.91016059551E+02 0.  0.
          3    1    3    3  502    0  0.13926468683E+03 -0.14352363775E+03 -0.33474591551E+03  0.38993398870E+03  0.00000000000E+00 0. -1.
         -3    1    3    3    0  502  0.62760691731E+02 -0.71525611652E+02 -0.64302471191E+02  0.11484609419E+03  0.00000000000E+00 0.  1.
         15    1    5    5    0    0  0.33578633679E+02  0.14784947667E+03 -0.36998833488E+02  0.15607390493E+03  0.17770000000E+01 0. -1.
        -15    1    5    5    0    0  0.85638137767E+01  0.68607970904E+02 -0.91025607589E+02  0.11432065231E+03  0.17770000000E+01 0.  1.
          1    1    6    6  503    0 -0.15557439092E+03 -0.59283806100E+01 -0.85096679597E+03  0.86509133891E+03  0.00000000000E+00 0. -1.
         -1    1    6    6    0  503 -0.88593435106E+02  0.45201824315E+01 -0.22205222954E+03  0.23911591632E+03  0.00000000000E+00 0.  1.
<mgrwt>
<rscale>  0 0.38016262E+03</rscale>
<asrwt>0</asrwt>
<pdfrwt beam="1">  1        2 0.26765181E+00 0.38016262E+03</pdfrwt>
<pdfrwt beam="2">  1       -2 0.21483851E-01 0.38016262E+03</pdfrwt>
<totfact> 0.18646991E+02</totfact>
</mgrwt>
</event>
<event>
12    1  0.7781383E-008  0.3973120E+03  0.7818608E-02  0.1044714E+00
         -2   -1    0    0    0  501 -0.00000000000E+00  0.00000000000E+00  0.30651456340E+03  0.30651456340E+03  0.00000000000E+00 0.  1.
          2   -1    0    0  501    0  0.00000000000E+00 -0.00000000000E+00 -0.11599910571E+04  0.11599910571E+04  0.00000000000E+00 0. -1.
         23    2    1    2    0    0 -0.22533826088E+03 -0.23454202902E+03 -0.68145504518E+03  0.76276106394E+03  0.10787106595E+03 0.  0.
    5000000    2    1    2    0    0  0.22533826088E+03  0.23454202902E+03 -0.17202144852E+03  0.70374455657E+03  0.59989809714E+03 0.  0.
         23    2    4    4    0    0  0.24215071118E+03  0.57838477037E+02  0.16459054999E+03  0.31218715458E+03  0.91588831124E+02 0.  0.
         23    2    4    4    0    0 -0.16812450298E+02  0.17670355198E+03 -0.33661199850E+03  0.39155740199E+03  0.92210399337E+02 0.  0.
          1    1    3    3  502    0 -0.12863605110E+03 -0.80657589245E+02 -0.39871314620E+03  0.42664394207E+03  0.00000000000E+00 0. -1.
         -1    1    3    3    0  502 -0.96702209786E+02 -0.15388443977E+03 -0.28274189898E+03  0.33611712188E+03  0.00000000000E+00 0.  1.
         15    1    5    5    0    0  0.61679559122E+02  0.55122131457E+02  0.70135630414E+02  0.10846650069E+03  0.17770000000E+01 0.  1.
        -15    1    5    5    0    0  0.18047115206E+03  0.27163455809E+01  0.94454919573E+02  0.20372065389E+03  0.17770000000E+01 0. -1.
          4    1    6    6  503    0  0.34937722819E+02  0.93575153409E+02 -0.14086231284E+03  0.17268220808E+03  0.00000000000E+00 0.  1.
         -4    1    6    6    0  503 -0.51750173116E+02  0.83128398571E+02 -0.19574968567E+03  0.21887519390E+03  0.00000000000E+00 0. -1.
<mgrwt>
<rscale>  0 0.39731200E+03</rscale>
<asrwt>0</asrwt>
<pdfrwt beam="1">  1        2 0.17846016E+00 0.39731200E+03</pdfrwt>
<pdfrwt beam="2">  1       -2 0.47156086E-01 0.39731200E+03</pdfrwt>
<totfact> 0.90090682E+01</totfact>
</mgrwt>
</event>
<event>
12    1  0.7781383E-008  0.5576578E+03  0.7818608E-02  0.9997368E-01
          1   -1    0    0  501    0  0.00000000000E+00  0.00000000000E+00  0.38494321117E+03  0.38494321117E+03  0.00000000000E+00 0. -1.
         -1   -1    0    0    0  501 -0.00000000000E+00 -0.00000000000E+00 -0.14069677965E+04  0.14069677965E+04  0.00000000000E+00 0.  1.
         23    2    1    2    0    0 -0.53974433123E+03 -0.85736069835E+02 -0.98989945458E+02  0.56277827396E+03  0.90806164890E+02 0.  0.
    5000000    2    1    2    0    0  0.53974433123E+03  0.85736069835E+02 -0.92303463990E+03  0.12291327337E+04  0.60008308917E+03 0.  0.
         23    2    4    4    0    0  0.46630983565E+03  0.58928469771E+02 -0.98563553888E+03  0.10958651407E+04  0.92333978933E+02 0.  0.
         23    2    4    4    0    0  0.73434495580E+02  0.26807600064E+02  0.62600898978E+02  0.13326759306E+03  0.87921022769E+02 0.  0.
          2    1    3    3  502    0 -0.50483238366E+03 -0.98113753355E+02 -0.77873191730E+02  0.52014063308E+03  0.00000000000E+00 0. -1.
         -2    1    3    3    0  502 -0.34911947564E+02  0.12377683520E+02 -0.21116753728E+02  0.42637640882E+02  0.00000000000E+00 0.  1.
         15    1    5    5    0    0  0.17577229834E+03  0.42857342667E+02 -0.28988355596E+03  0.34171374926E+03  0.17770000000E+01 0.  1.
        -15    1    5    5    0    0  0.29053753730E+03  0.16071127104E+02 -0.69575198292E+03  0.75415139141E+03  0.17770000000E+01 0. -1.
          1    1    6    6  503    0  0.80601852137E+02  0.26704993690E+02  0.16357407864E+02  0.86471845406E+02  0.00000000000E+00 0. -1.
         -1    1    6    6    0  503 -0.71673565562E+01  0.10260637415E+00  0.46243491114E+02  0.46795747654E+02  0.00000000000E+00 0.  1.
<mgrwt>
<rscale>  0 0.55765781E+03</rscale>
<asrwt>0</asrwt>
<pdfrwt beam="1">  1        1 0.59222033E-01 0.55765781E+03</pdfrwt>
<pdfrwt beam="2">  1       -1 0.21645658E+00 0.55765781E+03</pdfrwt>
<totfact> 0.78139713E+00</totfact>
</mgrwt>
</event>
<event>
12    1  0.7781383E-008  0.8933927E+03  0.7818608E-02  0.9433879E-01
          1   -1    0    0  501    0  0.00000000000E+00  0.00000000000E+00  0.14111890222E+04  0.14111890222E+04  0.00000000000E+00 0. -1.
         -1   -1    0    0    0  501 -0.00000000000E+00 -0.00000000000E+00 -0.65372132849E+03  0.65372132849E+03  0.00000000000E+00 0.  1.
         23    2    1    2    0    0 -0.48279677270E+03  0.71239508929E+03  0.25691295866E+03  0.90251568071E+03  0.89055031466E+02 0.  0.
    5000000    2    1    2    0    0  0.48279677270E+03 -0.71239508929E+03  0.50055473501E+03  0.11623946699E+04  0.60000569913E+03 0.  0.
         23    2    4    4    0    0  0.42164602479E+03 -0.69508774822E+03  0.20066699015E+03  0.84217627971E+03  0.89784727157E+02 0.  0.
         23    2    4    4    0    0  0.61150747909E+02 -0.17307341075E+02  0.29988774487E+03  0.32021839023E+03  0.92564571500E+02 0.  0.
          4    1    3    3  502    0 -0.38113029159E+03  0.50379899272E+03  0.21046852271E+03  0.66586088884E+03  0.00000000000E+00 0. -1.
         -4    1    3    3    0  502 -0.10166648111E+03  0.20859609657E+03  0.46444435948E+02  0.23665479187E+03  0.00000000000E+00 0.  1.
         15    1    5    5    0    0  0.82802918460E+02 -0.96421395927E+02  0.57585332644E+02  0.13954439137E+03  0.17770000000E+01 0. -1.
        -15    1    5    5    0    0  0.33884310633E+03 -0.59866635229E+03  0.14308165751E+03  0.70263188834E+03  0.17770000000E+01 0.  1.
          2    1    6    6  503    0  0.80818539820E+02  0.14249409339E+01  0.18037782403E+03  0.19766088697E+03  0.00000000000E+00 0. -1.
         -2    1    6    6    0  503 -0.19667791911E+02 -0.18732282009E+02  0.11950992084E+03  0.12255750326E+03  0.00000000000E+00 0.  1.
<mgrwt>
<rscale>  0 0.89339266E+03</rscale>
<asrwt>0</asrwt>
<pdfrwt beam="1">  1        1 0.21710600E+00 0.89339266E+03</pdfrwt>
<pdfrwt beam="2">  1       -1 0.10057251E+00 0.89339266E+03</pdfrwt>
<totfact> 0.72250545E+00</totfact>
</mgrwt>
</event>
<event>
12    1  0.7781383E-008  0.4798368E+03  0.7818608E-02  0.1019180E+00
          1   -1    0    0  501    0  0.00000000000E+00  0.00000000000E+00  0.15443091142E+04  0.15443091142E+04  0.00000000000E+00 0. -1.
         -1   -1    0    0    0  501 -0.00000000000E+00 -0.00000000000E+00 -0.17460982389E+03  0.17460982389E+03  0.00000000000E+00 0.  1.
         23    2    1    2    0    0  0.27046848712E+03  0.12675563392E+03  0.72399370973E+03  0.78830673753E+03  0.89668430599E+02 0.  0.
    5000000    2    1    2    0    0 -0.27046848712E+03 -0.12675563392E+03  0.64570558056E+03  0.93061220053E+03  0.59990264024E+03 0.  0.
         23    2    4    4    0    0 -0.39032867072E+00 -0.31577038497E+03  0.33012075263E+03  0.46536830465E+03  0.88751671991E+02 0.  0.
         23    2    4    4    0    0 -0.27007815845E+03  0.18901475105E+03  0.31558482793E+03  0.46524389588E+03  0.90494813372E+02 0.  0.
          1    1    3    3  502    0  0.76828720090E+02  0.70246379179E+02  0.17752390207E+03  0.20579587417E+03  0.00000000000E+00 0. -1.
         -1    1    3    3    0  502  0.19363976703E+03  0.56509254739E+02  0.54646980766E+03  0.58251086336E+03  0.00000000000E+00 0.  1.
         15    1    5    5    0    0  0.65563866018E+00 -0.18788412865E+02  0.63532686062E+02  0.66279666922E+02  0.17770000000E+01 0.  1.
        -15    1    5    5    0    0 -0.10459673309E+01 -0.29698197211E+03  0.26658806656E+03  0.39908863773E+03  0.17770000000E+01 0. -1.
          1    1    6    6  503    0 -0.31037440912E+02  0.57019656528E+02  0.90463965779E+02  0.11134762267E+03  0.00000000000E+00 0. -1.
         -1    1    6    6    0  503 -0.23904071753E+03  0.13199509452E+03  0.22512086215E+03  0.35389627321E+03  0.00000000000E+00 0.  1.
<mgrwt>
<rscale>  0 0.47983685E+03</rscale>
<asrwt>0</asrwt>
<pdfrwt beam="1">  1        1 0.23758601E+00 0.47983685E+03</pdfrwt>
<pdfrwt beam="2">  1       -1 0.26863051E-01 0.47983685E+03</pdfrwt>
<totfact> 0.79899997E+01</totfact>
</mgrwt>
</event>
<event>
12    1  0.7781383E-008  0.5785420E+03  0.7818608E-02  0.9950953E-01
          2   -1    0    0  501    0  0.00000000000E+00  0.00000000000E+00  0.13074394823E+04  0.13074394823E+04  0.00000000000E+00 0. -1.
         -2   -1    0    0    0  501 -0.00000000000E+00 -0.00000000000E+00 -0.47355991394E+03  0.47355991394E+03  0.00000000000E+00 0.  1.
         23    2    1    2    0    0  0.44122692867E+03 -0.33064775923E+03 -0.71119633098E+02  0.56318235520E+03  0.90040100661E+02 0.  0.
    5000000    2    1    2    0    0 -0.44122692867E+03  0.33064775923E+03  0.90499920151E+03  0.12178170411E+04  0.60003803843E+03 0.  0.
         23    2    4    4    0    0 -0.87293151683E+02  0.21889555808E+02  0.67474644540E+03  0.68676057861E+03  0.90873977368E+02 0.  0.
         23    2    4    4    0    0 -0.35393377699E+03  0.30875820343E+03  0.23025275610E+03  0.53105646248E+03  0.91672722077E+02 0.  0.
          3    1    3    3  502    0  0.42281521351E+03 -0.28879685466E+03 -0.56293664995E+02  0.51511678749E+03  0.00000000000E+00 0. -1.
         -3    1    3    3    0  502  0.18411715158E+02 -0.41850904577E+02 -0.14825968103E+02  0.48065567709E+02  0.00000000000E+00 0.  1.
         15    1    5    5    0    0 -0.62151168209E+02 -0.27011228778E+02  0.46517316496E+03  0.47008680616E+03  0.17770000000E+01 0. -1.
        -15    1    5    5    0    0 -0.25141983474E+02  0.48900784586E+02  0.20957328044E+03  0.21667377245E+03  0.17770000000E+01 0.  1.
          3    1    6    6  503    0 -0.12397163154E+03  0.16094438302E+03  0.74207469415E+02  0.21628409181E+03  0.00000000000E+00 0. -1.
         -3    1    6    6    0  503 -0.22996214544E+03  0.14781382041E+03  0.15604528669E+03  0.31477237067E+03  0.00000000000E+00 0.  1.
<mgrwt>
<rscale>  0 0.57854196E+03</rscale>
<asrwt>0</asrwt>
<pdfrwt beam="1">  1        2 0.20114453E+00 0.57854196E+03</pdfrwt>
<pdfrwt beam="2">  1       -2 0.72855372E-01 0.57854196E+03</pdfrwt>
<totfact> 0.29044147E+01</totfact>
</mgrwt>
</event>
<event>
12    1  0.7781383E-008  0.8048671E+03  0.7818608E-02  0.9552999E-01
          2   -1    0    0  501    0  0.00000000000E+00  0.00000000000E+00  0.19706122170E+04  0.19706122170E+04  0.00000000000E+00 0. -1.
         -2   -1    0    0    0  501 -0.00000000000E+00 -0.00000000000E+00 -0.51776150475E+03  0.51776150475E+03  0.00000000000E+00 0.  1.
         23    2    1    2    0    0 -0.58303090916E+03  0.40041128790E+03 -0.58011040553E+02  0.71552242590E+03  0.91393766846E+02 0.  0.
    5000000    2    1    2    0    0  0.58303090916E+03 -0.40041128790E+03  0.15108617528E+04  0.17728512958E+04  0.60003686603E+03 0.  0.
         23    2    4    4    0    0  0.59136798831E+02  0.13372549829E+03  0.25541224744E+03  0.30829244078E+03  0.91810364504E+02 0.  0.
         23    2    4    4    0    0  0.52389411033E+03 -0.53413678619E+03  0.12554495054E+04  0.14645588551E+04  0.94931734617E+02 0.  0.
          2    1    3    3  502    0 -0.17869328746E+03  0.14957133414E+03 -0.56125822968E+02  0.23969351886E+03  0.00000000000E+00 0. -1.
         -2    1    3    3    0  502 -0.40433762170E+03  0.25083995376E+03 -0.18852175853E+01  0.47582890703E+03  0.00000000000E+00 0.  1.
         15    1    5    5    0    0  0.28198525633E+02  0.40221757887E+02  0.19936054931E+02  0.53042913482E+02  0.17770000000E+01 0. -1.
        -15    1    5    5    0    0  0.30938273197E+02  0.93503740406E+02  0.23547619251E+03  0.25524952730E+03  0.17770000000E+01 0.  1.
          1    1    6    6  503    0  0.11699787618E+03 -0.71545242615E+02  0.20114258078E+03  0.24344519419E+03  0.00000000000E+00 0. -1.
         -1    1    6    6    0  503  0.40689623415E+03 -0.46259154358E+03  0.10543069246E+04  0.12211136609E+04  0.00000000000E+00 0.  1.
<mgrwt>
<rscale>  0 0.80486713E+03</rscale>
<asrwt>0</asrwt>
<pdfrwt beam="1">  1        2 0.30317111E+00 0.80486713E+03</pdfrwt>
<pdfrwt beam="2">  1       -2 0.79655617E-01 0.80486713E+03</pdfrwt>
<totfact> 0.99398064E+00</totfact>
</mgrwt>
</event>
<event>
12    1  0.1249451E-007  0.7387253E+03  0.7818608E-02  0.9653207E-01
          1   -1    0    0  501    0  0.00000000000E+00  0.00000000000E+00  0.19323686898E+04  0.19323686898E+04  0.00000000000E+00 0. -1.
         -1   -1    0    0    0  501 -0.00000000000E+00 -0.00000000000E+00 -0.32614195984E+03  0.32614195984E+03  0.00000000000E+00 0.  1.
         23    2    1    2    0    0  0.46891628745E+01 -0.61926037826E+03  0.10804869966E+04  0.12487131135E+04  0.91251769892E+02 0.  0.
    5000000    2    1    2    0    0 -0.46891628745E+01  0.61926037826E+03  0.52573973333E+03  0.10097975362E+04  0.59981946661E+03 0.  0.
         23    2    4    4    0    0  0.24385823917E+03  0.11638677588E+03  0.24567063556E+03  0.37590607730E+03  0.89098795499E+02 0.  0.
         23    2    4    4    0    0 -0.24854740205E+03  0.50287360239E+03  0.28006909777E+03  0.63389145888E+03  0.93391707725E+02 0.  0.
          3    1    3    3  502    0 -0.39185196188E+02 -0.27844432790E+03  0.52406891393E+03  0.59473939662E+03  0.00000000000E+00 0. -1.
         -3    1    3    3    0  502  0.43874359062E+02 -0.34081605036E+03  0.55641808269E+03  0.65397371684E+03  0.00000000000E+00 0.  1.
         15    1    5    5    0    0  0.19299844521E+03  0.12841905495E+03  0.20796586362E+03  0.31143668969E+03  0.17770000000E+01 0. -1.
        -15    1    5    5    0    0  0.50859793960E+02 -0.12032279073E+02  0.37704771946E+02  0.64469387602E+02  0.17770000000E+01 0.  1.
          1    1    6    6  503    0 -0.99314187567E+02  0.30442722125E+03  0.16496348253E+03  0.36021131501E+03  0.00000000000E+00 0. -1.
         -1    1    6    6    0  503 -0.14923321448E+03  0.19844638114E+03  0.11510561524E+03  0.27368014387E+03  0.00000000000E+00 0.  1.
<mgrwt>
<rscale>  0 0.73872528E+03</rscale>
<asrwt>0</asrwt>
<pdfrwt beam="1">  1        1 0.29728748E+00 0.73872528E+03</pdfrwt>
<pdfrwt beam="2">  1       -1 0.50175688E-01 0.73872528E+03</pdfrwt>
<totfact> 0.13793737E+01</totfact>
</mgrwt>
</event>
<event>
12    1  0.7781383E-008  0.6203638E+03  0.7818608E-02  0.9864036E-01
          1   -1    0    0  501    0  0.00000000000E+00  0.00000000000E+00  0.17907951666E+04  0.17907951666E+04  0.00000000000E+00 0. -1.
         -1   -1    0    0    0  501 -0.00000000000E+00 -0.00000000000E+00 -0.31221514342E+03  0.31221514342E+03  0.00000000000E+00 0.  1.
         23    2    1    2    0    0 -0.58932811800E+03 -0.13322876904E+02  0.33761436795E+03  0.68553272422E+03  0.92122336189E+02 0.  0.
    5000000    2    1    2    0    0  0.58932811800E+03  0.13322876904E+02  0.11409656553E+04  0.14174775858E+04  0.59996245725E+03 0.  0.
         23    2    4    4    0    0 -0.10913864105E+02 -0.70013613051E+01  0.58943432494E+03  0.59686962178E+03  0.93018226681E+02 0.  0.
         23    2    4    4    0    0  0.60024198210E+03  0.20324238210E+02  0.55153133033E+03  0.82060796405E+03  0.92233999095E+02 0.  0.
          2    1    3    3  502    0 -0.28373724693E+03  0.31455338936E+02  0.19228893962E+03  0.34419660071E+03  0.00000000000E+00 0. -1.
         -2    1    3    3    0  502 -0.30559087107E+03 -0.44778215840E+02  0.14532542833E+03  0.34133612351E+03  0.00000000000E+00 0.  1.
         15    1    5    5    0    0 -0.15627746388E+02  0.14579820985E+02  0.55798187851E+03  0.55839388617E+03  0.17770000000E+01 0. -1.
        -15    1    5    5    0    0  0.47138822825E+01 -0.21581182290E+02  0.31452446430E+02  0.38475735609E+02  0.17770000000E+01 0.  1.
          2    1    6    6  503    0  0.32730867155E+03 -0.14583426601E+02  0.35086783893E+03  0.48005404195E+03  0.00000000000E+00 0. -1.
         -2    1    6    6    0  503  0.27293331056E+03  0.34907664811E+02  0.20066349140E+03  0.34055392210E+03  0.00000000000E+00 0.  1.
<mgrwt>
<rscale>  0 0.62036376E+03</rscale>
<asrwt>0</asrwt>
<pdfrwt beam="1">  1        1 0.27550694E+00 0.62036376E+03</pdfrwt>
<pdfrwt beam="2">  1       -1 0.48033100E-01 0.62036376E+03</pdfrwt>
<totfact> 0.18970463E+01</totfact>
</mgrwt>
</event>
<event>
12    1  0.7781383E-008  0.7994500E+03  0.7818608E-02  0.9560814E-01
          2   -1    0    0  501    0  0.00000000000E+00  0.00000000000E+00  0.85401487024E+03  0.85401487024E+03  0.00000000000E+00 0. -1.
         -2   -1    0    0    0  501 -0.00000000000E+00 -0.00000000000E+00 -0.11591645464E+04  0.11591645464E+04  0.00000000000E+00 0.  1.
         23    2    1    2    0    0  0.49108344606E+03  0.61178129429E+03  0.31164984142E+03  0.84877003962E+03  0.88575693381E+02 0.  0.
    5000000    2    1    2    0    0 -0.49108344606E+03 -0.61178129429E+03 -0.61679951756E+03  0.11644093770E+04  0.59997354056E+03 0.  0.
         23    2    4    4    0    0 -0.24198473570E+03 -0.40043080899E+03 -0.20224306009E+02  0.47842376662E+03  0.97871511785E+02 0.  0.
         23    2    4    4    0    0 -0.24909871036E+03 -0.21135048531E+03 -0.59657521155E+03  0.68598561039E+03  0.89191252284E+02 0.  0.
          2    1    3    3  502    0  0.43685387851E+03  0.53002557789E+03  0.24113915574E+03  0.72795365018E+03  0.00000000000E+00 0. -1.
         -2    1    3    3    0  502  0.54229567550E+02  0.81755716404E+02  0.70510685675E+02  0.12081638943E+03  0.00000000000E+00 0.  1.
         15    1    5    5    0    0 -0.20543056996E+03 -0.26666665162E+03  0.87974999756E+01  0.33673932930E+03  0.17770000000E+01 0. -1.
        -15    1    5    5    0    0 -0.36554165738E+02 -0.13376415736E+03 -0.29021805985E+02  0.14168443732E+03  0.17770000000E+01 0.  1.
          2    1    6    6  503    0 -0.25556331558E+03 -0.19629019533E+03 -0.56737480588E+03  0.65250028306E+03  0.00000000000E+00 0. -1.
         -2    1    6    6    0  503  0.64646052173E+01 -0.15060289980E+02 -0.29200405671E+02  0.33485327328E+02  0.00000000000E+00 0.  1.
<mgrwt>
<rscale>  0 0.79945001E+03</rscale>
<asrwt>0</asrwt>
<pdfrwt beam="1">  1        2 0.13138690E+00 0.79945001E+03</pdfrwt>
<pdfrwt beam="2">  1       -2 0.17833301E+00 0.79945001E+03</pdfrwt>
<totfact> 0.59499341E+00</totfact>
</mgrwt>
</event>
<event>
12    1  0.7781383E-008  0.1129931E+04  0.7818608E-02  0.9176500E-01
         -1   -1    0    0    0  501 -0.00000000000E+00  0.00000000000E+00  0.19778977838E+04  0.19778977838E+04  0.00000000000E+00 0.  1.
          1   -1    0    0  501    0  0.00000000000E+00 -0.00000000000E+00 -0.11896137068E+04  0.11896137068E+04  0.00000000000E+00 0. -1.
         23    2    1    2    0    0 -0.94535798463E+03 -0.46559695043E+03  0.14432370794E+04  0.17893356878E+04  0.91141081694E+02 0.  0.
    5000000    2    1    2    0    0  0.94535798463E+03  0.46559695043E+03 -0.65495300235E+03  0.13781758029E+04  0.59993572069E+03 0.  0.
         23    2    4    4    0    0  0.37539316846E+03  0.50252798854E+03 -0.34042504140E+03  0.71929668329E+03  0.89688904491E+02 0.  0.
         23    2    4    4    0    0  0.56996481617E+03 -0.36931038116E+02 -0.31452796095E+03  0.65887911957E+03  0.94710415158E+02 0.  0.
          1    1    3    3  502    0 -0.46030250627E+03 -0.17761975100E+03  0.69255775601E+03  0.85033135814E+03  0.00000000000E+00 0. -1.
         -1    1    3    3    0  502 -0.48505547836E+03 -0.28797719942E+03  0.75067932341E+03  0.93900432963E+03  0.00000000000E+00 0.  1.
         15    1    5    5    0    0  0.16458669135E+03  0.18673839743E+03 -0.17958833979E+03  0.30694484449E+03  0.17770000000E+01 0. -1.
        -15    1    5    5    0    0  0.21080647712E+03  0.31578959111E+03 -0.16083670161E+03  0.41235183880E+03  0.17770000000E+01 0.  1.
          4    1    6    6  503    0  0.27586694189E+03  0.94574544607E+01 -0.19542967378E+03  0.33820817623E+03  0.00000000000E+00 0. -1.
         -4    1    6    6    0  503  0.29409787428E+03 -0.46388492577E+02 -0.11909828718E+03  0.32067094334E+03  0.00000000000E+00 0.  1.
<mgrwt>
<rscale>  0 0.11299312E+04</rscale>
<asrwt>0</asrwt>
<pdfrwt beam="1">  1        1 0.18301749E+00 0.11299312E+04</pdfrwt>
<pdfrwt beam="2">  1       -1 0.30429197E+00 0.11299312E+04</pdfrwt>
<totfact> 0.33504915E-01</totfact>
</mgrwt>
</event>
<event>
12    1  0.7781383E-008  0.4281917E+03  0.7818608E-02  0.1034433E+00
         -1   -1    0    0    0  501 -0.00000000000E+00  0.00000000000E+00  0.16228493763E+03  0.16228493763E+03  0.00000000000E+00 0.  1.
          1   -1    0    0  501    0  0.00000000000E+00 -0.00000000000E+00 -0.13912952150E+04  0.13912952150E+04  0.00000000000E+00 0. -1.
         23    2    1    2    0    0 -0.15210997963E+03 -0.22313868120E+03 -0.46323046756E+03  0.54386376325E+03  0.90978073966E+02 0.  0.
    5000000    2    1    2    0    0  0.15210997963E+03  0.22313868120E+03 -0.76577980978E+03  0.10097163893E+04  0.60015010864E+03 0.  0.
         23    2    4    4    0    0  0.33592482499E+03  0.10066313380E+03 -0.65022448143E+03  0.74451283919E+03  0.92352243656E+02 0.  0.
         23    2    4    4    0    0 -0.18381484537E+03  0.12247554741E+03 -0.11555532835E+03  0.26520355016E+03  0.90508187582E+02 0.  0.
          3    1    3    3  502    0 -0.13499764397E+03 -0.13580765224E+03 -0.26877495924E+03  0.33001221341E+03  0.00000000000E+00 0. -1.
         -3    1    3    3    0  502 -0.17112335661E+02 -0.87331028969E+02 -0.19445550832E+03  0.21385154984E+03  0.00000000000E+00 0.  1.
         15    1    5    5    0    0  0.79450394331E+02  0.14342772184E+02 -0.81737375192E+02  0.11490098566E+03  0.17770000000E+01 0. -1.
        -15    1    5    5    0    0  0.25647443066E+03  0.86320361615E+02 -0.56848710624E+03  0.62961185353E+03  0.17770000000E+01 0.  1.
          4    1    6    6  503    0 -0.10670661659E+03  0.94403660783E+02 -0.11507822315E+03  0.18314297867E+03  0.00000000000E+00 0. -1.
         -4    1    6    6    0  503 -0.77108228779E+02  0.28071886623E+02 -0.47710519689E+00  0.82060571490E+02  0.00000000000E+00 0.  1.
<mgrwt>
<rscale>  0 0.42819173E+03</rscale>
<asrwt>0</asrwt>
<pdfrwt beam="1">  1        1 0.21404542E+00 0.42819173E+03</pdfrwt>
<pdfrwt beam="2">  1       -1 0.24966914E-01 0.42819173E+03</pdfrwt>
<totfact> 0.11577119E+02</totfact>
</mgrwt>
</event>
<event>
12    1  0.7781383E-008  0.5590977E+03  0.7818608E-02  0.9994098E-01
         -2   -1    0    0    0  501 -0.00000000000E+00  0.00000000000E+00  0.30677465335E+03  0.30677465335E+03  0.00000000000E+00 0. -1.
          2   -1    0    0  501    0  0.00000000000E+00 -0.00000000000E+00 -0.14076254198E+04  0.14076254198E+04  0.00000000000E+00 0.  1.
         23    2    1    2    0    0 -0.42974180729E+03  0.93165347214E+01 -0.81027417872E+03  0.92127808310E+03  0.86280026418E+02 0.  0.
    5000000    2    1    2    0    0  0.42974180729E+03 -0.93165347214E+01 -0.29057658777E+03  0.79312199010E+03  0.59986908494E+03 0.  0.
         23    2    4    4    0    0  0.52904175003E+03  0.82572391784E+02 -0.11873886470E+03  0.55609528480E+03  0.91867701761E+02 0.  0.
         23    2    4    4    0    0 -0.99299942739E+02 -0.91888926506E+02 -0.17183772308E+03  0.23702670530E+03  0.91375065041E+02 0.  0.
          3    1    3    3  502    0 -0.29918296054E+03  0.19903010424E+02 -0.47974418456E+03  0.56573938905E+03  0.00000000000E+00 0. -1.
         -3    1    3    3    0  502 -0.13055884674E+03 -0.10586475703E+02 -0.33052999415E+03  0.35553869405E+03  0.00000000000E+00 0.  1.
         15    1    5    5    0    0  0.16929433820E+03 -0.16492686434E+02 -0.34797975238E+02  0.17362787352E+03  0.17770000000E+01 0.  1.
        -15    1    5    5    0    0  0.35974741183E+03  0.99065078219E+02 -0.83940889461E+02  0.38246741128E+03  0.17770000000E+01 0. -1.
          3    1    6    6  503    0 -0.41944153497E+02 -0.83250211330E+01 -0.67253904313E+01  0.43287975997E+02  0.00000000000E+00 0. -1.
         -3    1    6    6    0  503 -0.57355789241E+02 -0.83563905373E+02 -0.16511233264E+03  0.19373872930E+03  0.00000000000E+00 0.  1.
<mgrwt>
<rscale>  0 0.55909766E+03</rscale>
<asrwt>0</asrwt>
<pdfrwt beam="1">  1        2 0.21655776E+00 0.55909766E+03</pdfrwt>
<pdfrwt beam="2">  1       -2 0.47196100E-01 0.55909766E+03</pdfrwt>
<totfact> 0.63496480E+01</totfact>
</mgrwt>
</event>
<event>
12    1  0.7781383E-008  0.5677395E+03  0.7818608E-02  0.9974693E-01
         -2   -1    0    0    0  501 -0.00000000000E+00  0.00000000000E+00  0.42638796445E+03  0.42638796445E+03  0.00000000000E+00 0.  1.
          2   -1    0    0  501    0  0.00000000000E+00 -0.00000000000E+00 -0.82232094192E+03  0.82232094192E+03  0.00000000000E+00 0. -1.
         23    2    1    2    0    0 -0.26703013378E+03 -0.34022147527E+03 -0.10737896459E+03  0.45479490312E+03  0.90842816359E+02 0.  0.
    5000000    2    1    2    0    0  0.26703013378E+03  0.34022147527E+03 -0.28855401288E+03  0.79391400325E+03  0.59998356780E+03 0.  0.
         23    2    4    4    0    0  0.36455724776E+03  0.32841617720E+02 -0.25724950475E+03  0.45751062898E+03  0.95698010362E+02 0.  0.
         23    2    4    4    0    0 -0.97527113983E+02  0.30737985755E+03 -0.31304508126E+02  0.33640337427E+03  0.90517087890E+02 0.  0.
          3    1    3    3  502    0 -0.13890494887E+03 -0.18187262420E+03 -0.10324423357E+03  0.25106096475E+03  0.00000000000E+00 0. -1.
         -3    1    3    3    0  502 -0.12812518491E+03 -0.15834885107E+03 -0.41347310165E+01  0.20373393837E+03  0.00000000000E+00 0.  1.
         15    1    5    5    0    0  0.16225566003E+03  0.46973922551E+02 -0.15970105125E+03  0.23246727105E+03  0.17770000000E+01 0. -1.
        -15    1    5    5    0    0  0.20230158773E+03 -0.14132304831E+02 -0.97548453501E+02  0.22504335793E+03  0.17770000000E+01 0.  1.
          4    1    6    6  503    0 -0.86254041358E+02  0.14704140969E+03 -0.41146446759E+02  0.17536808688E+03  0.00000000000E+00 0. -1.
         -4    1    6    6    0  503 -0.11273072625E+02  0.16033844786E+03  0.98419386329E+01  0.16103528739E+03  0.00000000000E+00 0.  1.
<mgrwt>
<rscale>  0 0.56773947E+03</rscale>
<asrwt>0</asrwt>
<pdfrwt beam="1">  1        2 0.12651091E+00 0.56773947E+03</pdfrwt>
<pdfrwt beam="2">  1       -2 0.65598149E-01 0.56773947E+03</pdfrwt>
<totfact> 0.73105286E+01</totfact>
</mgrwt>
</event>
<event>
12    1  0.7781383E-008  0.6332185E+03  0.7818608E-02  0.9838788E-01
         -2   -1    0    0    0  501 -0.00000000000E+00  0.00000000000E+00  0.44702929141E+03  0.44702929141E+03  0.00000000000E+00 0.  1.
          2   -1    0    0  501    0  0.00000000000E+00 -0.00000000000E+00 -0.97886558161E+03  0.97886558161E+03  0.00000000000E+00 0. -1.
         23    2    1    2    0    0  0.14477910003E+03 -0.47324919970E+03 -0.38889062875E+02  0.50506121332E+03  0.92998264327E+02 0.  0.
    5000000    2    1    2    0    0 -0.14477910003E+03  0.47324919970E+03 -0.49294722733E+03  0.92083365969E+03  0.60000988915E+03 0.  0.
         23    2    4    4    0    0 -0.33596748625E+03  0.43442596186E+03 -0.38261773197E+03  0.67573912232E+03  0.92881453787E+02 0.  0.
         23    2    4    4    0    0  0.19118838622E+03  0.38823237838E+02 -0.11032949536E+03  0.24509453738E+03  0.99189172210E+02 0.  0.
          2    1    3    3  502    0  0.90814203420E+02 -0.14634264123E+03 -0.13020537844E+02  0.17272209641E+03  0.00000000000E+00 0. -1.
         -2    1    3    3    0  502  0.53964896609E+02 -0.32690655847E+03 -0.25868525031E+02  0.33233911691E+03  0.00000000000E+00 0.  1.
         15    1    5    5    0    0 -0.24427571961E+03  0.27733421140E+03 -0.29972897445E+03  0.47584189377E+03  0.17770000000E+01 0.  1.
        -15    1    5    5    0    0 -0.91691766637E+02  0.15709175046E+03 -0.82888757516E+02  0.19989722855E+03  0.17770000000E+01 0. -1.
          2    1    6    6  503    0  0.79558604719E+02  0.57568828122E+02 -0.19861544904E+02  0.10019093034E+03  0.00000000000E+00 0. -1.
         -2    1    6    6    0  503  0.11162978150E+03 -0.18745590284E+02 -0.90467950451E+02  0.14490360704E+03  0.00000000000E+00 0.  1.
<mgrwt>
<rscale>  0 0.63321851E+03</rscale>
<asrwt>0</asrwt>
<pdfrwt beam="1">  1        2 0.15059470E+00 0.63321851E+03</pdfrwt>
<pdfrwt beam="2">  1       -2 0.68773738E-01 0.63321851E+03</pdfrwt>
<totfact> 0.51543061E+01</totfact>
</mgrwt>
</event>
<event>
12    1  0.7781383E-008  0.1113779E+04  0.7818608E-02  0.9191865E-01
          2   -1    0    0  501    0  0.00000000000E+00  0.00000000000E+00  0.23765217920E+04  0.23765217920E+04  0.00000000000E+00 0. -1.
         -2   -1    0    0    0  501 -0.00000000000E+00 -0.00000000000E+00 -0.86716065106E+03  0.86716065106E+03  0.00000000000E+00 0.  1.
         23    2    1    2    0    0  0.10355664008E+04  0.29780406639E+01  0.17382334445E+04  0.20253977640E+04  0.91509320054E+02 0.  0.
    5000000    2    1    2    0    0 -0.10355664008E+04 -0.29780406639E+01 -0.22887230359E+03  0.12182846790E+04  0.59952346798E+03 0.  0.
         23    2    4    4    0    0 -0.90786233351E+03 -0.20855370553E+03 -0.20273062538E+03  0.95763011819E+03  0.90813391588E+02 0.  0.
         23    2    4    4    0    0 -0.12770406727E+03  0.20557566486E+03 -0.26141678206E+02  0.26065456085E+03  0.93207993065E+02 0.  0.
          1    1    3    3  502    0  0.88942892947E+03 -0.28985925978E+02  0.14984145354E+04  0.17427478660E+04  0.00000000000E+00 0. -1.
         -1    1    3    3    0  502  0.14613747132E+03  0.31963966642E+02  0.23981890916E+03  0.28264989807E+03  0.00000000000E+00 0.  1.
         15    1    5    5    0    0 -0.38010482939E+03 -0.44829795839E+02 -0.66002339912E+02  0.38839266023E+03  0.17770000000E+01 0.  1.
        -15    1    5    5    0    0 -0.52775750413E+03 -0.16372390969E+03 -0.13672828547E+03  0.56923745796E+03  0.17770000000E+01 0. -1.
          1    1    6    6  503    0 -0.11910894389E+03  0.12856580913E+03  0.91702069314E+01  0.17549985894E+03  0.00000000000E+00 0. -1.
         -1    1    6    6    0  503 -0.85951233819E+01  0.77009855731E+02 -0.35311885138E+02  0.85154701912E+02  0.00000000000E+00 0.  1.
<mgrwt>
<rscale>  0 0.11137789E+04</rscale>
<asrwt>0</asrwt>
<pdfrwt beam="1">  1        2 0.36561873E+00 0.11137789E+04</pdfrwt>
<pdfrwt beam="2">  1       -2 0.13340933E+00 0.11137789E+04</pdfrwt>
<totfact> 0.16482705E+00</totfact>
</mgrwt>
</event>
<event>
12    1  0.7781383E-008  0.1134456E+04  0.7818608E-02  0.9172244E-01
         -2   -1    0    0    0  501 -0.00000000000E+00  0.00000000000E+00  0.84286070528E+03  0.84286070528E+03  0.00000000000E+00 0.  1.
          2   -1    0    0  501    0  0.00000000000E+00 -0.00000000000E+00 -0.15397484936E+04  0.15397484936E+04  0.00000000000E+00 0. -1.
         23    2    1    2    0    0  0.98895729733E+03  0.37389446779E+03 -0.28008837936E+03  0.10975604031E+04  0.91409677822E+02 0.  0.
    5000000    2    1    2    0    0 -0.98895729733E+03 -0.37389446779E+03 -0.41679940899E+03  0.12850487958E+04  0.59982918511E+03 0.  0.
         23    2    4    4    0    0 -0.42421079958E+03 -0.46263331081E+03 -0.25863441638E+03  0.68488154350E+03  0.90479746627E+02 0.  0.
         23    2    4    4    0    0 -0.56474649775E+03  0.88738843020E+02 -0.15816499261E+03  0.60016725231E+03  0.91495228708E+02 0.  0.
          4    1    3    3  502    0  0.11472933087E+03  0.75837710647E+02 -0.39925217664E+02  0.14320684594E+03  0.00000000000E+00 0. -1.
         -4    1    3    3    0  502  0.87422796646E+03  0.29805675714E+03 -0.24016316170E+03  0.95435355715E+03  0.00000000000E+00 0.  1.
         15    1    5    5    0    0 -0.65441205977E+02 -0.12674816562E+03 -0.54658266617E+02  0.15276888678E+03  0.17770000000E+01 0. -1.
        -15    1    5    5    0    0 -0.35876959360E+03 -0.33588514518E+03 -0.20397614976E+03  0.53211265673E+03  0.17770000000E+01 0.  1.
          3    1    6    6  503    0 -0.25938734469E+03  0.16969598821E+02 -0.31361167628E+02  0.26182682197E+03  0.00000000000E+00 0. -1.
         -3    1    6    6    0  503 -0.30535915306E+03  0.71769244199E+02 -0.12680382498E+03  0.33834043034E+03  0.00000000000E+00 0.  1.
<mgrwt>
<rscale>  0 0.11344562E+04</rscale>
<asrwt>0</asrwt>
<pdfrwt beam="1">  1        2 0.23688438E+00 0.11344562E+04</pdfrwt>
<pdfrwt beam="2">  1       -2 0.12967088E+00 0.11344562E+04</pdfrwt>
<totfact> 0.51637204E+00</totfact>
</mgrwt>
</event>
<event>
12    1  0.7781383E-008  0.7141445E+03  0.7818608E-02  0.9693344E-01
          2   -1    0    0  501    0  0.00000000000E+00  0.00000000000E+00  0.74458637209E+03  0.74458637209E+03  0.00000000000E+00 0. -1.
         -2   -1    0    0    0  501 -0.00000000000E+00 -0.00000000000E+00 -0.70339497502E+03  0.70339497502E+03  0.00000000000E+00 0.  1.
         23    2    1    2    0    0 -0.11924691627E+03 -0.58210382973E+03  0.52053100079E+02  0.60368936829E+03  0.93094750256E+02 0.  0.
    5000000    2    1    2    0    0  0.11924691627E+03  0.58210382973E+03 -0.10861703013E+02  0.84429197882E+03  0.59970515529E+03 0.  0.
         23    2    4    4    0    0  0.33634303516E+03  0.21955566367E+03 -0.65542301197E+01  0.41163678978E+03  0.89836306802E+02 0.  0.
         23    2    4    4    0    0 -0.21709611890E+03  0.36254816607E+03 -0.43074728931E+01  0.43265518904E+03  0.92736512344E+02 0.  0.
          4    1    3    3  502    0 -0.24218481619E+02 -0.13993086538E+03  0.52543665829E+02  0.15142000778E+03  0.00000000000E+00 0. -1.
         -4    1    3    3    0  502 -0.95028434648E+02 -0.44217296436E+03 -0.49056574991E+00  0.45226936051E+03  0.00000000000E+00 0.  1.
         15    1    5    5    0    0  0.11873828402E+03  0.49621105454E+02  0.32613133558E+02  0.13276975713E+03  0.17770000000E+01 0.  1.
        -15    1    5    5    0    0  0.21760475114E+03  0.16993455821E+03 -0.39167363678E+02  0.27886703266E+03  0.17770000000E+01 0. -1.
          1    1    6    6  503    0 -0.19704321550E+03  0.26851236673E+03 -0.26070853547E+02  0.33407276043E+03  0.00000000000E+00 0. -1.
         -1    1    6    6    0  503 -0.20052903397E+02  0.94035799342E+02  0.21763380653E+02  0.98582428607E+02  0.00000000000E+00 0.  1.
<mgrwt>
<rscale>  0 0.71414455E+03</rscale>
<asrwt>0</asrwt>
<pdfrwt beam="1">  1        2 0.11455175E+00 0.71414455E+03</pdfrwt>
<pdfrwt beam="2">  1       -2 0.10821461E+00 0.71414455E+03</pdfrwt>
<totfact> 0.26321072E+01</totfact>
</mgrwt>
</event>
<event>
12    1  0.7781383E-008  0.6853613E+03  0.7818608E-02  0.9742599E-01
          2   -1    0    0  501    0  0.00000000000E+00  0.00000000000E+00  0.15603731373E+04  0.15603731373E+04  0.00000000000E+00 0.  1.
         -2   -1    0    0    0  501 -0.00000000000E+00 -0.00000000000E+00 -0.48213479684E+03  0.48213479684E+03  0.00000000000E+00 0. -1.
         23    2    1    2    0    0  0.28198738615E+03 -0.48622129258E+03  0.10804156370E+04  0.12210352367E+04  0.87755736888E+02 0.  0.
    5000000    2    1    2    0    0 -0.28198738615E+03  0.48622129258E+03 -0.21772965246E+01  0.82147269742E+03  0.59906979617E+03 0.  0.
         23    2    4    4    0    0  0.89896908696E+02 -0.63168245479E+02  0.48743216783E+02  0.14993594580E+03  0.89628149772E+02 0.  0.
         23    2    4    4    0    0 -0.37188429484E+03  0.54938953806E+03 -0.50920513308E+02  0.67153675162E+03  0.90785003266E+02 0.  0.
          1    1    3    3  502    0  0.50582484937E+02 -0.35386770740E+02  0.10369090678E+03  0.12067566231E+03  0.00000000000E+00 0. -1.
         -1    1    3    3    0  502  0.23140490121E+03 -0.45083452184E+03  0.97672473023E+03  0.11003595744E+04  0.00000000000E+00 0.  1.
         15    1    5    5    0    0  0.15551906356E+02 -0.55990110703E+02  0.47725331533E+02  0.75217147558E+02  0.17770000000E+01 0.  1.
        -15    1    5    5    0    0  0.74345002340E+02 -0.71781347762E+01  0.10178852500E+01  0.74718798245E+02  0.17770000000E+01 0. -1.
          1    1    6    6  503    0 -0.26787596969E+03  0.45967463458E+03 -0.33576444983E+02  0.53309068879E+03  0.00000000000E+00 0. -1.
         -1    1    6    6    0  503 -0.10400832515E+03  0.89714903482E+02 -0.17344068325E+02  0.13844606283E+03  0.00000000000E+00 0.  1.
<mgrwt>
<rscale>  0 0.68536131E+03</rscale>
<asrwt>0</asrwt>
<pdfrwt beam="1">  1        2 0.24005740E+00 0.68536131E+03</pdfrwt>
<pdfrwt beam="2">  1       -2 0.74174585E-01 0.68536131E+03</pdfrwt>
<totfact> 0.19856815E+01</totfact>
</mgrwt>
</event>
<event>
12    1  0.7781383E-008  0.6090475E+03  0.7818608E-02  0.9886811E-01
         -2   -1    0    0    0  501 -0.00000000000E+00  0.00000000000E+00  0.71542287585E+03  0.71542287585E+03  0.00000000000E+00 0.  1.
          2   -1    0    0  501    0  0.00000000000E+00 -0.00000000000E+00 -0.56254681359E+03  0.56254681359E+03  0.00000000000E+00 0. -1.
         23    2    1    2    0    0 -0.33855452026E+03  0.34469888848E+03 -0.70060681363E+01  0.49111667053E+03  0.87806675001E+02 0.  0.
    5000000    2    1    2    0    0  0.33855452026E+03 -0.34469888848E+03  0.15988213039E+03  0.78685301890E+03  0.60011573120E+03 0.  0.
         23    2    4    4    0    0 -0.92342264849E+02  0.58243355502E+02 -0.45917807535E+02  0.15536296573E+03  0.10054761924E+03 0.  0.
         23    2    4    4    0    0  0.43089678511E+03 -0.40294224398E+03  0.20579993793E+03  0.63149005317E+03  0.91605575152E+02 0.  0.
          1    1    3    3  502    0 -0.22669590048E+03  0.24467123984E+03 -0.44337770940E+02  0.33648311225E+03  0.00000000000E+00 0. -1.
         -1    1    3    3    0  502 -0.11185861979E+03  0.10002764864E+03  0.37331702803E+02  0.15463355828E+03  0.00000000000E+00 0.  1.
         15    1    5    5    0    0 -0.92490042801E+02  0.69675181743E+01 -0.47103261706E+02  0.10404243999E+03  0.17770000000E+01 0. -1.
        -15    1    5    5    0    0  0.14777795241E+00  0.51275837328E+02  0.11854541710E+01  0.51320525743E+02  0.17770000000E+01 0.  1.
          2    1    6    6  503    0  0.35836532257E+03 -0.32270503955E+03  0.13016404651E+03  0.49950668262E+03  0.00000000000E+00 0.  1.
         -2    1    6    6    0  503  0.72531462542E+02 -0.80237204426E+02  0.75635891415E+02  0.13198337055E+03  0.00000000000E+00 0. -1.
<mgrwt>
<rscale>  0 0.60904749E+03</rscale>
<asrwt>0</asrwt>
<pdfrwt beam="1">  1        2 0.86545664E-01 0.60904749E+03</pdfrwt>
<pdfrwt beam="2">  1       -2 0.11006506E+00 0.60904749E+03</pdfrwt>
<totfact> 0.36023031E+01</totfact>
</mgrwt>
</event>
<event>
12    1  0.7781383E-008  0.4539615E+03  0.7818608E-02  0.1026547E+00
          1   -1    0    0  501    0  0.00000000000E+00  0.00000000000E+00  0.54568103421E+03  0.54568103421E+03  0.00000000000E+00 0. -1.
         -1   -1    0    0    0  501 -0.00000000000E+00 -0.00000000000E+00 -0.59752726623E+03  0.59752726623E+03  0.00000000000E+00 0.  1.
         23    2    1    2    0    0  0.34674888508E+03 -0.39514848961E+02  0.18844505711E+03  0.40859978011E+03  0.98214195307E+02 0.  0.
    5000000    2    1    2    0    0 -0.34674888508E+03  0.39514848961E+02 -0.24029128912E+03  0.73460852033E+03  0.60009462747E+03 0.  0.
         23    2    4    4    0    0 -0.28124553511E+03 -0.14666347073E+03 -0.35762558543E+03  0.48662705511E+03  0.91107665674E+02 0.  0.
         23    2    4    4    0    0 -0.65503349973E+02  0.18617831970E+03  0.11733429630E+03  0.24798146522E+03  0.93671844341E+02 0.  0.
          3    1    3    3  502    0  0.21251353181E+03  0.24008920801E+02  0.10492234890E+03  0.23821655858E+03  0.00000000000E+00 0. -1.
         -3    1    3    3    0  502  0.13423535327E+03 -0.63523769762E+02  0.83522708207E+02  0.17038322153E+03  0.00000000000E+00 0.  1.
         15    1    5    5    0    0 -0.50868136733E+02 -0.68570139436E+02 -0.74264236112E+02  0.11317140032E+03  0.17770000000E+01 0.  1.
        -15    1    5    5    0    0 -0.23037739838E+03 -0.78093331298E+02 -0.28336134931E+03  0.37345565478E+03  0.17770000000E+01 0. -1.
          1    1    6    6  503    0 -0.86807859139E+02  0.12560928557E+03  0.68678643552E+02  0.16742178207E+03  0.00000000000E+00 0. -1.
         -1    1    6    6    0  503  0.21304509166E+02  0.60569034125E+02  0.48655652750E+02  0.80559683156E+02  0.00000000000E+00 0.  1.
<mgrwt>
<rscale>  0 0.45396149E+03</rscale>
<asrwt>0</asrwt>
<pdfrwt beam="1">  1        1 0.83950928E-01 0.45396149E+03</pdfrwt>
<pdfrwt beam="2">  1       -1 0.91927272E-01 0.45396149E+03</pdfrwt>
<totfact> 0.47745756E+01</totfact>
</mgrwt>
</event>
<event>
12    1  0.7781383E-008  0.5702028E+03  0.7818608E-02  0.9969230E-01
         -2   -1    0    0    0  501 -0.00000000000E+00  0.00000000000E+00  0.12024203846E+04  0.12024203846E+04  0.00000000000E+00 0.  1.
          2   -1    0    0  501    0  0.00000000000E+00 -0.00000000000E+00 -0.12901920948E+04  0.12901920948E+04  0.00000000000E+00 0. -1.
         23    2    1    2    0    0  0.11642344906E+03  0.40324673446E+03  0.10529572479E+04  0.11371836773E+04  0.91133976223E+02 0.  0.
    5000000    2    1    2    0    0 -0.11642344906E+03 -0.40324673446E+03 -0.11407289581E+04  0.13554288021E+04  0.59980191178E+03 0.  0.
         23    2    4    4    0    0  0.11189852287E+03 -0.45103281448E+03 -0.84837027872E+03  0.97230162206E+03  0.98419689476E+02 0.  0.
         23    2    4    4    0    0 -0.22832197193E+03  0.47786080019E+02 -0.29235867934E+03  0.38312718001E+03  0.83056645546E+02 0.  0.
          4    1    3    3  502    0  0.93845140812E+02  0.16322557305E+03  0.44757976955E+03  0.48556889136E+03  0.00000000000E+00 0.  1.
         -4    1    3    3    0  502  0.22578308247E+02  0.24002116142E+03  0.60537747836E+03  0.65161478593E+03  0.00000000000E+00 0. -1.
         15    1    5    5    0    0  0.12391806388E+03 -0.44269506913E+03 -0.81279529513E+03  0.93379545956E+03  0.17770000000E+01 0.  1.
        -15    1    5    5    0    0 -0.12019541003E+02 -0.83377453525E+01 -0.35574983594E+02  0.38506162496E+02  0.17770000000E+01 0. -1.
          2    1    6    6  503    0 -0.31829898546E+02 -0.70338006546E+01 -0.90284114534E+02  0.95988739601E+02  0.00000000000E+00 0. -1.
         -2    1    6    6    0  503 -0.19649207339E+03  0.54819880674E+02 -0.20207456480E+03  0.28713844041E+03  0.00000000000E+00 0.  1.
<mgrwt>
<rscale>  0 0.57020282E+03</rscale>
<asrwt>0</asrwt>
<pdfrwt beam="1">  1        2 0.19849109E+00 0.57020282E+03</pdfrwt>
<pdfrwt beam="2">  1       -2 0.18498775E+00 0.57020282E+03</pdfrwt>
<totfact> 0.29778765E+00</totfact>
</mgrwt>
</event>
<event>
12    1  0.7781383E-008  0.8582828E+03  0.7818608E-02  0.9479287E-01
          1   -1    0    0  501    0  0.00000000000E+00  0.00000000000E+00  0.54931022175E+03  0.54931022175E+03  0.00000000000E+00 0. -1.
         -1   -1    0    0    0  501 -0.00000000000E+00 -0.00000000000E+00 -0.19612705842E+04  0.19612705842E+04  0.00000000000E+00 0.  1.
         23    2    1    2    0    0  0.75642245752E+03 -0.39611949807E+03 -0.11495250518E+04  0.14348412302E+04  0.90972084598E+02 0.  0.
    5000000    2    1    2    0    0 -0.75642245752E+03  0.39611949807E+03 -0.26243531059E+03  0.10757395757E+04  0.59938114041E+03 0.  0.
         23    2    4    4    0    0 -0.38025879994E+03  0.18431018538E+03 -0.42434657571E+03  0.60523203902E+03  0.87571715611E+02 0.  0.
         23    2    4    4    0    0 -0.37616365759E+03  0.21180931269E+03  0.16191126512E+03  0.47050753668E+03  0.93807260194E+02 0.  0.
          4    1    3    3  502    0  0.61507848977E+03 -0.29252213253E+03 -0.95535397104E+03  0.11732825562E+04  0.00000000000E+00 0.  1.
         -4    1    3    3    0  502  0.14134396775E+03 -0.10359736554E+03 -0.19417108080E+03  0.26155867408E+03  0.00000000000E+00 0. -1.
         15    1    5    5    0    0 -0.31106689245E+02  0.39537265226E+02 -0.76348117928E+02  0.91449517754E+02  0.17770000000E+01 0.  1.
        -15    1    5    5    0    0 -0.34915211069E+03  0.14477292015E+03 -0.34799845778E+03  0.51378252127E+03  0.17770000000E+01 0. -1.
          1    1    6    6  503    0 -0.16128684620E+03  0.98478051525E+02  0.12035636959E+03  0.22404693502E+03  0.00000000000E+00 0. -1.
         -1    1    6    6    0  503 -0.21487681138E+03  0.11333126116E+03  0.41554895535E+02  0.24646060166E+03  0.00000000000E+00 0.  1.
<mgrwt>
<rscale>  0 0.85828283E+03</rscale>
<asrwt>0</asrwt>
<pdfrwt beam="1">  1        1 0.84509266E-01 0.85828283E+03</pdfrwt>
<pdfrwt beam="2">  1       -1 0.30173393E+00 0.85828283E+03</pdfrwt>
<totfact> 0.12948840E+00</totfact>
</mgrwt>
</event>
<event>
12    1  0.7781383E-008  0.8589242E+03  0.7818608E-02  0.9478437E-01
          2   -1    0    0  501    0  0.00000000000E+00  0.00000000000E+00  0.12017198090E+04  0.12017198090E+04  0.00000000000E+00 0. -1.
         -2   -1    0    0    0  501 -0.00000000000E+00 -0.00000000000E+00 -0.78663176162E+03  0.78663176162E+03  0.00000000000E+00 0.  1.
         23    2    1    2    0    0 -0.66189068194E+03 -0.39297310399E+03  0.61772067217E+03  0.99152552386E+03  0.94957360667E+02 0.  0.
    5000000    2    1    2    0    0  0.66189068194E+03  0.39297310399E+03 -0.20263262477E+03  0.99682604678E+03  0.60006253976E+03 0.  0.
         23    2    4    4    0    0  0.59287395147E+03  0.52811719544E+03 -0.17158217130E+03  0.81718426643E+03  0.89120083873E+02 0.  0.
         23    2    4    4    0    0  0.69016730475E+02 -0.13514409145E+03 -0.31050453476E+02  0.17964178035E+03  0.90993428593E+02 0.  0.
          3    1    3    3  502    0 -0.42854465734E+03 -0.27880238699E+03  0.45918855310E+03  0.68719387484E+03  0.00000000000E+00 0. -1.
         -3    1    3    3    0  502 -0.23334602460E+03 -0.11417071699E+03  0.15853211908E+03  0.30433164902E+03  0.00000000000E+00 0.  1.
         15    1    5    5    0    0  0.22605812793E+03  0.18346257674E+03 -0.21419122770E+02  0.29192932503E+03  0.17770000000E+01 0.  1.
        -15    1    5    5    0    0  0.36681582354E+03  0.34465461870E+03 -0.15016304853E+03  0.52525494139E+03  0.17770000000E+01 0. -1.
          1    1    6    6  503    0  0.12662318374E+01 -0.95776519897E+01 -0.35603505821E+02  0.36890979757E+02  0.00000000000E+00 0. -1.
         -1    1    6    6    0  503  0.67750498637E+02 -0.12556643946E+03  0.45530523451E+01  0.14275080059E+03  0.00000000000E+00 0.  1.
<mgrwt>
<rscale>  0 0.85892418E+03</rscale>
<asrwt>0</asrwt>
<pdfrwt beam="1">  1        2 0.18487997E+00 0.85892418E+03</pdfrwt>
<pdfrwt beam="2">  1       -2 0.12102027E+00 0.85892418E+03</pdfrwt>
<totfact> 0.98920414E+00</totfact>
</mgrwt>
</event>
<event>
12    1  0.7781383E-008  0.6954786E+03  0.7818608E-02  0.9724996E-01
          2   -1    0    0  501    0  0.00000000000E+00  0.00000000000E+00  0.10333954785E+04  0.10333954785E+04  0.00000000000E+00 0. -1.
         -2   -1    0    0    0  501 -0.00000000000E+00 -0.00000000000E+00 -0.82480514977E+03  0.82480514977E+03  0.00000000000E+00 0.  1.
         23    2    1    2    0    0 -0.58775352663E+03  0.13431946939E+03  0.65727360593E+03  0.89646570511E+03  0.90256520358E+02 0.  0.
    5000000    2    1    2    0    0  0.58775352663E+03 -0.13431946939E+03 -0.44868327719E+03  0.96173492317E+03  0.60010120087E+03 0.  0.
         23    2    4    4    0    0 -0.50221730098E+02 -0.11827803015E+03  0.29904644316E+02  0.16004053527E+03  0.90591227973E+02 0.  0.
         23    2    4    4    0    0  0.63797525673E+03 -0.16041439238E+02 -0.47858792151E+03  0.80169438790E+03  0.79985855067E+02 0.  0.
          3    1    3    3  502    0 -0.33245758341E+03  0.11926851115E+03  0.40203453883E+03  0.53514931835E+03  0.00000000000E+00 0. -1.
         -3    1    3    3    0  502 -0.25529594322E+03  0.15050958239E+02  0.25523906710E+03  0.36131638676E+03  0.00000000000E+00 0.  1.
         15    1    5    5    0    0 -0.51784292535E+02 -0.53562715754E+02 -0.21273609689E+02  0.77500333358E+02  0.17770000000E+01 0.  1.
        -15    1    5    5    0    0  0.15625624377E+01 -0.64715314401E+02  0.51178254005E+02  0.82540201910E+02  0.17770000000E+01 0. -1.
          3    1    6    6  503    0  0.30534794751E+03 -0.45852913660E+02 -0.24470472881E+03  0.39398002873E+03  0.00000000000E+00 0. -1.
         -3    1    6    6    0  503  0.33262730922E+03  0.29811474423E+02 -0.23388319270E+03  0.40771435917E+03  0.00000000000E+00 0.  1.
<mgrwt>
<rscale>  0 0.69547860E+03</rscale>
<asrwt>0</asrwt>
<pdfrwt beam="1">  1        2 0.15898392E+00 0.69547860E+03</pdfrwt>
<pdfrwt beam="2">  1       -2 0.12689310E+00 0.69547860E+03</pdfrwt>
<totfact> 0.11342310E+01</totfact>
</mgrwt>
</event>
<event>
12    1  0.7781383E-008  0.5737787E+03  0.7818608E-02  0.9961352E-01
          2   -1    0    0  501    0  0.00000000000E+00  0.00000000000E+00  0.16160196341E+04  0.16160196341E+04  0.00000000000E+00 0. -1.
         -2   -1    0    0    0  501 -0.00000000000E+00 -0.00000000000E+00 -0.29749485555E+03  0.29749485555E+03  0.00000000000E+00 0.  1.
         23    2    1    2    0    0 -0.51602045946E+03  0.85851783840E+02  0.26640438191E+03  0.59418226205E+03  0.91834756248E+02 0.  0.
    5000000    2    1    2    0    0  0.51602045946E+03 -0.85851783840E+02  0.10521203966E+04  0.13193322276E+04  0.60002712804E+03 0.  0.
         23    2    4    4    0    0  0.37029179008E+03 -0.19419002908E+03  0.10298965375E+04  0.11151751947E+04  0.90016996375E+02 0.  0.
         23    2    4    4    0    0  0.14572866939E+03  0.10833824525E+03  0.22223859094E+02  0.20415703290E+03  0.90621044491E+02 0.  0.
          2    1    3    3  502    0 -0.27672919035E+03  0.87359882677E+02  0.12280314689E+03  0.31510538995E+03  0.00000000000E+00 0.  1.
         -2    1    3    3    0  502 -0.23929126911E+03 -0.15080988371E+01  0.14360123502E+03  0.27907687209E+03  0.00000000000E+00 0. -1.
         15    1    5    5    0    0  0.37502120772E+03 -0.19120473225E+03  0.10222921629E+04  0.11055697987E+04  0.17770000000E+01 0. -1.
        -15    1    5    5    0    0 -0.47294176455E+01 -0.29852968341E+01  0.76043746518E+01  0.96053959470E+01  0.17770000000E+01 0.  1.
          4    1    6    6  503    0  0.10471515643E+03  0.10771893095E+03  0.45534558456E+02  0.15697779488E+03  0.00000000000E+00 0. -1.
         -4    1    6    6    0  503  0.41013512957E+02  0.61931429385E+00 -0.23310699362E+02  0.47179238018E+02  0.00000000000E+00 0.  1.
<mgrwt>
<rscale>  0 0.57377866E+03</rscale>
<asrwt>0</asrwt>
<pdfrwt beam="1">  1        2 0.24861840E+00 0.57377866E+03</pdfrwt>
<pdfrwt beam="2">  1       -2 0.45768440E-01 0.57377866E+03</pdfrwt>
<totfact> 0.51720782E+01</totfact>
</mgrwt>
</event>
<event>
12    1  0.7781383E-008  0.3954124E+03  0.7818608E-02  0.1045380E+00
         -2   -1    0    0    0  501 -0.00000000000E+00  0.00000000000E+00  0.12759502047E+03  0.12759502047E+03  0.00000000000E+00 0.  1.
          2   -1    0    0  501    0  0.00000000000E+00 -0.00000000000E+00 -0.18879948574E+04  0.18879948574E+04  0.00000000000E+00 0. -1.
         23    2    1    2    0    0 -0.16320521696E+03  0.65041158607E+02 -0.10520710651E+04  0.10708146046E+04  0.94467435355E+02 0.  0.
    5000000    2    1    2    0    0  0.16320521696E+03 -0.65041158607E+02 -0.70832877184E+03  0.94477527324E+03  0.60000364394E+03 0.  0.
         23    2    4    4    0    0 -0.19750285852E+03  0.65407877250E+02 -0.20939379112E+03  0.30901873943E+03  0.91439882037E+02 0.  0.
         23    2    4    4    0    0  0.36070807548E+03 -0.13044903586E+03 -0.49893498072E+03  0.63575653381E+03  0.90127624058E+02 0.  0.
          4    1    3    3  502    0 -0.90307310424E+02 -0.14234321009E+02 -0.45133742924E+03  0.46050353011E+03  0.00000000000E+00 0.  1.
         -4    1    3    3    0  502 -0.72897906534E+02  0.79275479615E+02 -0.60073363584E+03  0.61031107451E+03  0.00000000000E+00 0. -1.
         15    1    5    5    0    0 -0.90972222081E+02  0.29267600124E+02 -0.35618026896E+02  0.10200166262E+03  0.17770000000E+01 0.  1.
        -15    1    5    5    0    0 -0.10653063644E+03  0.36140277126E+02 -0.17377576422E+03  0.20701707681E+03  0.17770000000E+01 0. -1.
          4    1    6    6  503    0  0.14543218501E+03 -0.55653944404E+02 -0.27630272832E+03  0.31716096803E+03  0.00000000000E+00 0. -1.
         -4    1    6    6    0  503  0.21527589047E+03 -0.74795091453E+02 -0.22263225240E+03  0.31859556578E+03  0.00000000000E+00 0.  1.
<mgrwt>
<rscale>  0 0.39541241E+03</rscale>
<asrwt>0</asrwt>
<pdfrwt beam="1">  1        2 0.29046072E+00 0.39541241E+03</pdfrwt>
<pdfrwt beam="2">  1       -2 0.19630005E-01 0.39541241E+03</pdfrwt>
<totfact> 0.18135127E+02</totfact>
</mgrwt>
</event>
<event>
12    1  0.7781383E-008  0.4402313E+03  0.7818608E-02  0.1030676E+00
          2   -1    0    0  501    0  0.00000000000E+00  0.00000000000E+00  0.40793051659E+03  0.40793051659E+03  0.00000000000E+00 0. -1.
         -2   -1    0    0    0  501 -0.00000000000E+00 -0.00000000000E+00 -0.61732422772E+03  0.61732422772E+03  0.00000000000E+00 0.  1.
         23    2    1    2    0    0 -0.14725265683E+03 -0.22360796255E+03  0.10305816896E+03  0.29775111926E+03  0.79692389690E+02 0.  0.
    5000000    2    1    2    0    0  0.14725265683E+03  0.22360796255E+03 -0.31245188009E+03  0.72750362504E+03  0.59995956632E+03 0.  0.
         23    2    4    4    0    0 -0.18570624146E+03 -0.13706519424E+02 -0.18989806233E+01  0.20751613792E+03  0.91567814086E+02 0.  0.
         23    2    4    4    0    0  0.33295889829E+03  0.23731448197E+03 -0.31055289947E+03  0.51998748713E+03  0.82244100680E+02 0.  0.
          2    1    3    3  502    0 -0.10235887760E+03 -0.20517406257E+03  0.96539485010E+02  0.24878425984E+03  0.00000000000E+00 0. -1.
         -2    1    3    3    0  502 -0.44893779225E+02 -0.18433899975E+02  0.65186839475E+01  0.48966859424E+02  0.00000000000E+00 0.  1.
         15    1    5    5    0    0 -0.10358322447E+03 -0.35594873954E+01  0.44299803041E+02  0.11272881007E+03  0.17770000000E+01 0.  1.
        -15    1    5    5    0    0 -0.82123016988E+02 -0.10147032028E+02 -0.46198783664E+02  0.94787327841E+02  0.17770000000E+01 0. -1.
          3    1    6    6  503    0  0.26571524462E+03  0.14715609934E+03 -0.21159904330E+03  0.37018058285E+03  0.00000000000E+00 0. -1.
         -3    1    6    6    0  503  0.67243653673E+02  0.90158382631E+02 -0.98953856169E+02  0.14980690428E+03  0.00000000000E+00 0.  1.
<mgrwt>
<rscale>  0 0.44023133E+03</rscale>
<asrwt>0</asrwt>
<pdfrwt beam="1">  1        2 0.62758541E-01 0.44023133E+03</pdfrwt>
<pdfrwt beam="2">  1       -2 0.94972958E-01 0.44023133E+03</pdfrwt>
<totfact> 0.74920293E+01</totfact>
</mgrwt>
</event>
<event>
12    1  0.7781383E-008  0.7825185E+03  0.7818608E-02  0.9585671E-01
          2   -1    0    0  501    0  0.00000000000E+00  0.00000000000E+00  0.41067047037E+03  0.41067047037E+03  0.00000000000E+00 0.  1.
         -2   -1    0    0    0  501 -0.00000000000E+00 -0.00000000000E+00 -0.15145248468E+04  0.15145248468E+04  0.00000000000E+00 0. -1.
         23    2    1    2    0    0  0.49064839671E+03 -0.45750754848E+03 -0.48476552202E+03  0.83295924600E+03  0.93672237303E+02 0.  0.
    5000000    2    1    2    0    0 -0.49064839671E+03  0.45750754848E+03 -0.61908885436E+03  0.10922360711E+04  0.59971628240E+03 0.  0.
         23    2    4    4    0    0 -0.60608738594E+03  0.41775843797E+03 -0.46851806253E+03  0.87789203719E+03  0.96546476604E+02 0.  0.
         23    2    4    4    0    0  0.11543898923E+03  0.39749110513E+02 -0.15057079183E+03  0.21434403394E+03  0.91463924659E+02 0.  0.
          2    1    3    3  502    0  0.19866687471E+03 -0.19480088156E+03 -0.25789507859E+03  0.37937551598E+03  0.00000000000E+00 0. -1.
         -2    1    3    3    0  502  0.29198152200E+03 -0.26270666692E+03 -0.22687044343E+03  0.45358373002E+03  0.00000000000E+00 0.  1.
         15    1    5    5    0    0 -0.21139342610E+03  0.20004830130E+03 -0.16653677055E+03  0.33532694065E+03  0.17770000000E+01 0.  1.
        -15    1    5    5    0    0 -0.39469395984E+03  0.21771013667E+03 -0.30198129198E+03  0.54256509654E+03  0.17770000000E+01 0. -1.
          2    1    6    6  503    0 -0.74618544833E+01  0.27750578454E+02 -0.23108901374E+02  0.36875401009E+02  0.00000000000E+00 0.  1.
         -2    1    6    6    0  503  0.12290084372E+03  0.11998532058E+02 -0.12746189046E+03  0.17746863294E+03  0.00000000000E+00 0. -1.
<mgrwt>
<rscale>  0 0.78251852E+03</rscale>
<asrwt>0</asrwt>
<pdfrwt beam="1">  1        2 0.63180073E-01 0.78251852E+03</pdfrwt>
<pdfrwt beam="2">  1       -2 0.23300382E+00 0.78251852E+03</pdfrwt>
<totfact> 0.64521702E+00</totfact>
</mgrwt>
</event>
<event>
12    1  0.7781383E-008  0.3481926E+03  0.7818608E-02  0.1063359E+00
          2   -1    0    0  501    0  0.00000000000E+00  0.00000000000E+00  0.93483932742E+03  0.93483932742E+03  0.00000000000E+00 0. -1.
         -2   -1    0    0    0  501 -0.00000000000E+00 -0.00000000000E+00 -0.30501407068E+03  0.30501407068E+03  0.00000000000E+00 0.  1.
         23    2    1    2    0    0  0.28572707385E+03 -0.17765326797E+03  0.74066810639E+02  0.35620270095E+03  0.90519762315E+02 0.  0.
    5000000    2    1    2    0    0 -0.28572707385E+03  0.17765326797E+03  0.55575844610E+03  0.88365069715E+03  0.59897450681E+03 0.  0.
         23    2    4    4    0    0 -0.21105688932E+03  0.73112267171E+02  0.65493792661E+03  0.69817774019E+03  0.92833480185E+02 0.  0.
         23    2    4    4    0    0 -0.74670184533E+02  0.10454100080E+03 -0.99179480506E+02  0.18547295696E+03  0.89772997638E+02 0.  0.
          2    1    3    3  502    0  0.12472233638E+03 -0.94314958338E+02  0.78261335587E+02  0.17485939839E+03  0.00000000000E+00 0. -1.
         -2    1    3    3    0  502  0.16100473748E+03 -0.83338309632E+02 -0.41945249474E+01  0.18134330256E+03  0.00000000000E+00 0.  1.
         15    1    5    5    0    0 -0.13212574730E+03  0.16679476171E+02  0.26819506706E+03  0.29944476911E+03  0.17770000000E+01 0. -1.
        -15    1    5    5    0    0 -0.78931142018E+02  0.56432791000E+02  0.38674285955E+03  0.39873297108E+03  0.17770000000E+01 0.  1.
          3    1    6    6  503    0 -0.64682457292E+01  0.79902253426E+01 -0.60097053143E+02  0.60969973760E+02  0.00000000000E+00 0. -1.
         -3    1    6    6    0  503 -0.68201938804E+02  0.96550775457E+02 -0.39082427363E+02  0.12450298320E+03  0.00000000000E+00 0.  1.
<mgrwt>
<rscale>  0 0.34819258E+03</rscale>
<asrwt>0</asrwt>
<pdfrwt beam="1">  1        2 0.14382143E+00 0.34819258E+03</pdfrwt>
<pdfrwt beam="2">  1       -2 0.46925242E-01 0.34819258E+03</pdfrwt>
<totfact> 0.12577445E+02</totfact>
</mgrwt>
</event>
<event>
12    1  0.7781383E-008  0.7281622E+03  0.7818608E-02  0.9670247E-01
          1   -1    0    0  501    0  0.00000000000E+00  0.00000000000E+00  0.64671302211E+03  0.64671302211E+03  0.00000000000E+00 0. -1.
         -1   -1    0    0    0  501 -0.00000000000E+00 -0.00000000000E+00 -0.83640175239E+03  0.83640175239E+03  0.00000000000E+00 0.  1.
         23    2    1    2    0    0  0.57406660245E+03  0.20312094056E+03 -0.92341382162E+02  0.62278309497E+03  0.92310735937E+02 0.  0.
    5000000    2    1    2    0    0 -0.57406660245E+03 -0.20312094056E+03 -0.97347348113E+02  0.86033167953E+03  0.59990291888E+03 0.  0.
         23    2    4    4    0    0 -0.24481894390E+03  0.19816209491E+03 -0.37167731586E+02  0.32944549465E+03  0.89153589524E+02 0.  0.
         23    2    4    4    0    0 -0.32924765856E+03 -0.40128303547E+03 -0.60179616527E+02  0.53088618488E+03  0.93736118103E+02 0.  0.
          3    1    3    3  502    0  0.13898679500E+03  0.13358899096E+02 -0.22411629905E+01  0.13964530848E+03  0.00000000000E+00 0. -1.
         -3    1    3    3    0  502  0.43507980746E+03  0.18976204146E+03 -0.90100219171E+02  0.48313778649E+03  0.00000000000E+00 0.  1.
         15    1    5    5    0    0 -0.21784704437E+03  0.15333911566E+03 -0.20543423047E+01  0.26641621043E+03  0.17770000000E+01 0. -1.
        -15    1    5    5    0    0 -0.26971899529E+02  0.44822979247E+02 -0.35113389281E+02  0.63029284215E+02  0.17770000000E+01 0.  1.
          2    1    6    6  503    0 -0.35904480873E+02 -0.83037243911E+02  0.14657273054E+02  0.91646883616E+02  0.00000000000E+00 0. -1.
         -2    1    6    6    0  503 -0.29334317768E+03 -0.31824579155E+03 -0.74836889581E+02  0.43923930127E+03  0.00000000000E+00 0.  1.
<mgrwt>
<rscale>  0 0.72816223E+03</rscale>
<asrwt>0</asrwt>
<pdfrwt beam="1">  1        1 0.99494310E-01 0.72816223E+03</pdfrwt>
<pdfrwt beam="2">  1       -1 0.12867719E+00 0.72816223E+03</pdfrwt>
<totfact> 0.16453457E+01</totfact>
</mgrwt>
</event>
<event>
12    1  0.7781383E-008  0.9128900E+03  0.7818608E-02  0.9409610E-01
          1   -1    0    0  501    0  0.00000000000E+00  0.00000000000E+00  0.14627271919E+04  0.14627271919E+04  0.00000000000E+00 0. -1.
         -1   -1    0    0    0  501 -0.00000000000E+00 -0.00000000000E+00 -0.78863700699E+03  0.78863700699E+03  0.00000000000E+00 0.  1.
         23    2    1    2    0    0 -0.82028260351E+02  0.82902339691E+03  0.86852979513E+03  0.12066405780E+04  0.87344441124E+02 0.  0.
    5000000    2    1    2    0    0  0.82028260351E+02 -0.82902339691E+03 -0.19443961026E+03  0.10447236208E+04  0.59969346649E+03 0.  0.
         23    2    4    4    0    0 -0.22252343728E+03 -0.41162473879E+03 -0.20679488699E+03  0.51971916366E+03  0.91609377637E+02 0.  0.
         23    2    4    4    0    0  0.30455169763E+03 -0.41739865812E+03  0.12355276730E+02  0.52500445716E+03  0.92215241953E+02 0.  0.
          3    1    3    3  502    0  0.73239266435E+01  0.32867838502E+03  0.36389431768E+03  0.49041023146E+03  0.00000000000E+00 0. -1.
         -3    1    3    3    0  502 -0.89352186995E+02  0.50034501189E+03  0.50463547745E+03  0.71623034657E+03  0.00000000000E+00 0.  1.
         15    1    5    5    0    0 -0.62852185216E+02 -0.17973439424E+03 -0.12008251034E+03  0.22511733980E+03  0.17770000000E+01 0. -1.
        -15    1    5    5    0    0 -0.15967125206E+03 -0.23189034455E+03 -0.86712376645E+02  0.29460182386E+03  0.17770000000E+01 0.  1.
          1    1    6    6  503    0  0.24745531389E+03 -0.34566525066E+03  0.45447506042E+02  0.42753254109E+03  0.00000000000E+00 0.  1.
         -1    1    6    6    0  503  0.57096383732E+02 -0.71733407461E+02 -0.33092229312E+02  0.97471916069E+02  0.00000000000E+00 0. -1.
<mgrwt>
<rscale>  0 0.91289002E+03</rscale>
<asrwt>0</asrwt>
<pdfrwt beam="1">  1        1 0.22503495E+00 0.91289002E+03</pdfrwt>
<pdfrwt beam="2">  1       -1 0.12132877E+00 0.91289002E+03</pdfrwt>
<totfact> 0.42536303E+00</totfact>
</mgrwt>
</event>
<event>
12    1  0.7781383E-008  0.3695742E+03  0.7818608E-02  0.1054856E+00
          2   -1    0    0  501    0  0.00000000000E+00  0.00000000000E+00  0.11260012436E+04  0.11260012436E+04  0.00000000000E+00 0. -1.
         -2   -1    0    0    0  501 -0.00000000000E+00 -0.00000000000E+00 -0.63219137982E+03  0.63219137982E+03  0.00000000000E+00 0.  1.
         23    2    1    2    0    0 -0.17566826590E+03 -0.42289459637E+02 -0.52768466333E+03  0.56046277958E+03  0.54951663620E+02 0.  0.
    5000000    2    1    2    0    0  0.17566826590E+03  0.42289459637E+02  0.10214945271E+04  0.11977298438E+04  0.59871359754E+03 0.  0.
         23    2    4    4    0    0  0.25839308110E+03 -0.16723708934E+03  0.82538569745E+03  0.88550449963E+03  0.90119037363E+02 0.  0.
         23    2    4    4    0    0 -0.82724815198E+02  0.20952654897E+03  0.19610882965E+03  0.31222534421E+03  0.91001223760E+02 0.  0.
          2    1    3    3  502    0 -0.34986387278E+02 -0.10802922036E+02 -0.18668099060E+03  0.19023812097E+03  0.00000000000E+00 0. -1.
         -2    1    3    3    0  502 -0.14068187863E+03 -0.31486537600E+02 -0.34100367273E+03  0.37022465861E+03  0.00000000000E+00 0.  1.
         15    1    5    5    0    0  0.13669648424E+03 -0.13087784243E+03  0.56362119561E+03  0.59454768380E+03  0.17770000000E+01 0. -1.
        -15    1    5    5    0    0  0.12169659686E+03 -0.36359246902E+02  0.26176450184E+03  0.29095681582E+03  0.17770000000E+01 0.  1.
          3    1    6    6  503    0  0.10120384493E+02  0.90835865501E+02  0.86965457612E+02  0.12616087928E+03  0.00000000000E+00 0. -1.
         -3    1    6    6    0  503 -0.92845199691E+02  0.11869068347E+03  0.10914337204E+03  0.18606446493E+03  0.00000000000E+00 0.  1.
<mgrwt>
<rscale>  0 0.36957424E+03</rscale>
<asrwt>0</asrwt>
<pdfrwt beam="1">  1        2 0.17323096E+00 0.36957424E+03</pdfrwt>
<pdfrwt beam="2">  1       -2 0.97260212E-01 0.36957424E+03</pdfrwt>
<totfact> 0.20002169E+01</totfact>
</mgrwt>
</event>
<event>
12    1  0.7781383E-008  0.7820578E+03  0.7818608E-02  0.9586357E-01
         -1   -1    0    0    0  501 -0.00000000000E+00  0.00000000000E+00  0.73753677385E+03  0.73753677385E+03  0.00000000000E+00 0.  1.
          1   -1    0    0  501    0  0.00000000000E+00 -0.00000000000E+00 -0.97993887255E+03  0.97993887255E+03  0.00000000000E+00 0. -1.
         23    2    1    2    0    0  0.22208434740E+03  0.67080287397E+03  0.11939732045E+03  0.72237680782E+03  0.90964714354E+02 0.  0.
    5000000    2    1    2    0    0 -0.22208434740E+03 -0.67080287397E+03 -0.36179941915E+03  0.99509883858E+03  0.60002077111E+03 0.  0.
         23    2    4    4    0    0 -0.32480341748E+03 -0.62905397241E+03 -0.13619212602E+03  0.72661436041E+03  0.90630973435E+02 0.  0.
         23    2    4    4    0    0  0.10271907008E+03 -0.41748901558E+02 -0.22560729313E+03  0.26848447817E+03  0.94292556269E+02 0.  0.
          3    1    3    3  502    0  0.13473880081E+03  0.27994050065E+03  0.73482277224E+02  0.31925048694E+03  0.00000000000E+00 0. -1.
         -3    1    3    3    0  502  0.87345546582E+02  0.39086237332E+03  0.45915043224E+02  0.40312632088E+03  0.00000000000E+00 0.  1.
         15    1    5    5    0    0 -0.12793887445E+03 -0.19449407178E+03 -0.94923513844E+01  0.23300120604E+03  0.17770000000E+01 0. -1.
        -15    1    5    5    0    0 -0.19686454302E+03 -0.43455990064E+03 -0.12669977464E+03  0.49361315436E+03  0.17770000000E+01 0.  1.
          4    1    6    6  503    0  0.41948336001E+02 -0.65518423610E+02 -0.14704382599E+03  0.16635568366E+03  0.00000000000E+00 0.  1.
         -4    1    6    6    0  503  0.60770734079E+02  0.23769522052E+02 -0.78563467138E+02  0.10212879451E+03  0.00000000000E+00 0. -1.
<mgrwt>
<rscale>  0 0.78205780E+03</rscale>
<asrwt>0</asrwt>
<pdfrwt beam="1">  1        1 0.15075983E+00 0.78205780E+03</pdfrwt>
<pdfrwt beam="2">  1       -1 0.11346720E+00 0.78205780E+03</pdfrwt>
<totfact> 0.11427094E+01</totfact>
</mgrwt>
</event>
<event>
12    1  0.7781383E-008  0.6553199E+03  0.7818608E-02  0.9796848E-01
         -2   -1    0    0    0  501 -0.00000000000E+00  0.00000000000E+00  0.36405700626E+03  0.36405700626E+03  0.00000000000E+00 0.  1.
          2   -1    0    0  501    0  0.00000000000E+00 -0.00000000000E+00 -0.15304588561E+04  0.15304588561E+04  0.00000000000E+00 0. -1.
         23    2    1    2    0    0 -0.22806522709E+02  0.61456036465E+03 -0.37303648078E+03  0.72501194396E+03  0.91002876947E+02 0.  0.
    5000000    2    1    2    0    0  0.22806522709E+02 -0.61456036465E+03 -0.79336536904E+03  0.11695039184E+04  0.60008851601E+03 0.  0.
         23    2    4    4    0    0 -0.12488098256E+03 -0.19498519854E+03 -0.64648911798E+03  0.69267033302E+03  0.90716719104E+02 0.  0.
         23    2    4    4    0    0  0.14768750526E+03 -0.41957516611E+03 -0.14687625106E+03  0.47683358537E+03  0.89121915270E+02 0.  0.
          1    1    3    3  502    0  0.25536551517E+02  0.41914209526E+03 -0.26499223083E+03  0.49654113010E+03  0.00000000000E+00 0. -1.
         -1    1    3    3    0  502 -0.48343074226E+02  0.19541826939E+03 -0.10804424995E+03  0.22847081386E+03  0.00000000000E+00 0.  1.
         15    1    5    5    0    0 -0.90272256091E+02 -0.17856775913E+03 -0.45011525257E+03  0.49258747766E+03  0.17770000000E+01 0. -1.
        -15    1    5    5    0    0 -0.34608726465E+02 -0.16417439407E+02 -0.19637386541E+03  0.20008285536E+03  0.17770000000E+01 0.  1.
          1    1    6    6  503    0  0.79345147850E+02 -0.32335162249E+03 -0.13081750730E+03  0.35772216100E+03  0.00000000000E+00 0. -1.
         -1    1    6    6    0  503  0.68342357415E+02 -0.96223543624E+02 -0.16058743759E+02  0.11911142437E+03  0.00000000000E+00 0.  1.
<mgrwt>
<rscale>  0 0.65531991E+03</rscale>
<asrwt>0</asrwt>
<pdfrwt beam="1">  1        2 0.23545521E+00 0.65531991E+03</pdfrwt>
<pdfrwt beam="2">  1       -2 0.56008771E-01 0.65531991E+03</pdfrwt>
<totfact> 0.37793685E+01</totfact>
</mgrwt>
</event>
<event>
12    1  0.7781383E-008  0.7067802E+03  0.7818608E-02  0.9705707E-01
          2   -1    0    0  501    0  0.00000000000E+00  0.00000000000E+00  0.58208677985E+03  0.58208677985E+03  0.00000000000E+00 0. -1.
         -2   -1    0    0    0  501 -0.00000000000E+00 -0.00000000000E+00 -0.11250416364E+04  0.11250416364E+04  0.00000000000E+00 0.  1.
         23    2    1    2    0    0  0.57269569758E+03 -0.35739170056E+03 -0.40592533915E+03  0.79362801381E+03  0.96751504770E+02 0.  0.
    5000000    2    1    2    0    0 -0.57269569758E+03  0.35739170056E+03 -0.13702951736E+03  0.91350040240E+03  0.59999725574E+03 0.  0.
         23    2    4    4    0    0 -0.10672366338E+03 -0.13525749479E+02 -0.26211953863E+03  0.29811688911E+03  0.92704588977E+02 0.  0.
         23    2    4    4    0    0 -0.46597203420E+03  0.37091745004E+03  0.12509002127E+03  0.61538351329E+03  0.91321758650E+02 0.  0.
          1    1    3    3  502    0  0.14396828997E+03 -0.12715215881E+03 -0.15056944424E+03  0.24406084804E+03  0.00000000000E+00 0. -1.
         -1    1    3    3    0  502  0.42872740762E+03 -0.23023954175E+03 -0.25535589491E+03  0.54956716577E+03  0.00000000000E+00 0.  1.
         15    1    5    5    0    0 -0.11794174624E+03  0.20815116196E+01 -0.19163570994E+03  0.22503775517E+03  0.17770000000E+01 0.  1.
        -15    1    5    5    0    0  0.11218082863E+02 -0.15607261099E+02 -0.70483828691E+02  0.73079133944E+02  0.17770000000E+01 0. -1.
          3    1    6    6  503    0 -0.28539204517E+03  0.19642942209E+03  0.33420120615E+02  0.34806614569E+03  0.00000000000E+00 0. -1.
         -3    1    6    6    0  503 -0.18057998903E+03  0.17448802795E+03  0.91669900654E+02  0.26731736760E+03  0.00000000000E+00 0.  1.
<mgrwt>
<rscale>  0 0.70678023E+03</rscale>
<asrwt>0</asrwt>
<pdfrwt beam="1">  1        2 0.89551813E-01 0.70678023E+03</pdfrwt>
<pdfrwt beam="2">  1       -2 0.17308333E+00 0.70678023E+03</pdfrwt>
<totfact> 0.10647724E+01</totfact>
</mgrwt>
</event>
<event>
12    1  0.7781383E-008  0.6994550E+03  0.7818608E-02  0.9718165E-01
          1   -1    0    0  501    0  0.00000000000E+00  0.00000000000E+00  0.16006686348E+04  0.16006686348E+04  0.00000000000E+00 0. -1.
         -1   -1    0    0    0  501 -0.00000000000E+00 -0.00000000000E+00 -0.43986168258E+03  0.43986168258E+03  0.00000000000E+00 0.  1.
         23    2    1    2    0    0  0.10831297406E+03 -0.64606091120E+03  0.89586145162E+03  0.11136072232E+04  0.91798179606E+02 0.  0.
    5000000    2    1    2    0    0 -0.10831297406E+03  0.64606091120E+03  0.26494550057E+03  0.92692309413E+03  0.59988657496E+03 0.  0.
         23    2    4    4    0    0 -0.19210021596E+03  0.18906708815E+03  0.34423919137E+03  0.44664230127E+03  0.91322875658E+02 0.  0.
         23    2    4    4    0    0  0.83787241905E+02  0.45699382305E+03 -0.79293690798E+02  0.48028079285E+03  0.92295689876E+02 0.  0.
          4    1    3    3  502    0  0.93230255161E+02 -0.50470019751E+03  0.63457007706E+03  0.81614542364E+03  0.00000000000E+00 0.  1.
         -4    1    3    3    0  502  0.15082718899E+02 -0.14136071369E+03  0.26129137457E+03  0.29746179958E+03  0.00000000000E+00 0. -1.
         15    1    5    5    0    0 -0.37117081498E+01  0.89179246645E+01  0.60705835178E+02  0.61495221858E+02  0.17770000000E+01 0.  1.
        -15    1    5    5    0    0 -0.18838850781E+03  0.18014916349E+03  0.28353335619E+03  0.38514707941E+03  0.17770000000E+01 0. -1.
          3    1    6    6  503    0 -0.19107888804E+02  0.65555449291E+02 -0.20515617930E+02  0.71298800308E+02  0.00000000000E+00 0. -1.
         -3    1    6    6    0  503  0.10289513071E+03  0.39143837376E+03 -0.58778072868E+02  0.40898199255E+03  0.00000000000E+00 0.  1.
<mgrwt>
<rscale>  0 0.69945495E+03</rscale>
<asrwt>0</asrwt>
<pdfrwt beam="1">  1        1 0.24625671E+00 0.69945495E+03</pdfrwt>
<pdfrwt beam="2">  1       -1 0.67671029E-01 0.69945495E+03</pdfrwt>
<totfact> 0.12898791E+01</totfact>
</mgrwt>
</event>
<event>
12    1  0.7781383E-008  0.7595450E+03  0.7818608E-02  0.9620494E-01
         -2   -1    0    0    0  501 -0.00000000000E+00  0.00000000000E+00  0.33122809509E+03  0.33122809509E+03  0.00000000000E+00 0.  1.
          2   -1    0    0  501    0  0.00000000000E+00 -0.00000000000E+00 -0.21737370844E+04  0.21737370844E+04  0.00000000000E+00 0. -1.
         23    2    1    2    0    0 -0.22884460658E+03 -0.61558743755E+03 -0.30758701439E+03  0.73091205768E+03  0.91131319547E+02 0.  0.
    5000000    2    1    2    0    0  0.22884460658E+03  0.61558743755E+03 -0.15349219749E+04  0.17740531218E+04  0.59996771804E+03 0.  0.
         23    2    4    4    0    0 -0.15536530859E+03  0.38702510958E+02 -0.41108001617E+03  0.45038864728E+03  0.90702207418E+02 0.  0.
         23    2    4    4    0    0  0.38420991517E+03  0.57688492660E+03 -0.11238419587E+04  0.13236644745E+04  0.93023735993E+02 0.  0.
          1    1    3    3  502    0 -0.21556769218E+03 -0.50688448766E+03 -0.23109821520E+03  0.59733382527E+03  0.00000000000E+00 0. -1.
         -1    1    3    3    0  502 -0.13276914396E+02 -0.10870294989E+03 -0.76488799190E+02  0.13357823241E+03  0.00000000000E+00 0.  1.
         15    1    5    5    0    0 -0.33300774103E+02  0.19775864602E+02 -0.27842920605E+02  0.47732717641E+02  0.17770000000E+01 0.  1.
        -15    1    5    5    0    0 -0.12206453449E+03  0.18926646356E+02 -0.38323709557E+03  0.40265592963E+03  0.17770000000E+01 0. -1.
          2    1    6    6  503    0  0.23756734680E+03  0.41370601878E+03 -0.71233677983E+03  0.85732992607E+03  0.00000000000E+00 0. -1.
         -2    1    6    6    0  503  0.14664256837E+03  0.16317890781E+03 -0.41150517892E+03  0.46633454846E+03  0.00000000000E+00 0.  1.
<mgrwt>
<rscale>  0 0.75954499E+03</rscale>
<asrwt>0</asrwt>
<pdfrwt beam="1">  1        2 0.33442109E+00 0.75954499E+03</pdfrwt>
<pdfrwt beam="2">  1       -2 0.50958169E-01 0.75954499E+03</pdfrwt>
<totfact> 0.20156474E+01</totfact>
</mgrwt>
</event>
<event>
12    1  0.7781383E-008  0.7154736E+03  0.7818608E-02  0.9691130E-01
         -1   -1    0    0    0  501 -0.00000000000E+00  0.00000000000E+00  0.10169654472E+04  0.10169654472E+04  0.00000000000E+00 0.  1.
          1   -1    0    0  501    0  0.00000000000E+00 -0.00000000000E+00 -0.62213426269E+03  0.62213426269E+03  0.00000000000E+00 0. -1.
         23    2    1    2    0    0  0.43423876660E+03  0.41345809909E+03 -0.15824347442E+03  0.62647139888E+03  0.88963533514E+02 0.  0.
    5000000    2    1    2    0    0 -0.43423876660E+03 -0.41345809909E+03  0.55307465889E+03  0.10126283110E+04  0.60001134304E+03 0.  0.
         23    2    4    4    0    0 -0.54064506292E+03 -0.20371899649E+03  0.30763943883E+03  0.66062871583E+03  0.89385470081E+02 0.  0.
         23    2    4    4    0    0  0.10640629632E+03 -0.20973910259E+03  0.24543522007E+03  0.35199959515E+03  0.91391885233E+02 0.  0.
          4    1    3    3  502    0  0.34429182816E+03  0.33132345456E+03 -0.87977884333E+02  0.48585203777E+03  0.00000000000E+00 0. -1.
         -4    1    3    3    0  502  0.89946938441E+02  0.82134644528E+02 -0.70265590086E+02  0.14061936110E+03  0.00000000000E+00 0.  1.
         15    1    5    5    0    0 -0.86795329109E+02 -0.38453777531E+01  0.27967944417E+02  0.91288442473E+02  0.17770000000E+01 0. -1.
        -15    1    5    5    0    0 -0.45384973381E+03 -0.19987361874E+03  0.27967149441E+03  0.56934027336E+03  0.17770000000E+01 0.  1.
          1    1    6    6  503    0  0.65090018860E+02 -0.46172831163E+02  0.10865788252E+03  0.13481534158E+03  0.00000000000E+00 0. -1.
         -1    1    6    6    0  503  0.41316277461E+02 -0.16356627143E+03  0.13677733755E+03  0.21718425357E+03  0.00000000000E+00 0.  1.
<mgrwt>
<rscale>  0 0.71547361E+03</rscale>
<asrwt>0</asrwt>
<pdfrwt beam="1">  1        1 0.95712963E-01 0.71547361E+03</pdfrwt>
<pdfrwt beam="2">  1       -1 0.15645622E+00 0.71547361E+03</pdfrwt>
<totfact> 0.10457086E+01</totfact>
</mgrwt>
</event>
<event>
12    1  0.7781383E-008  0.1097322E+04  0.7818608E-02  0.9207806E-01
         -1   -1    0    0    0  501 -0.00000000000E+00  0.00000000000E+00  0.47138802289E+03  0.47138802289E+03  0.00000000000E+00 0.  1.
          1   -1    0    0  501    0  0.00000000000E+00 -0.00000000000E+00 -0.26781193188E+04  0.26781193188E+04  0.00000000000E+00 0. -1.
         23    2    1    2    0    0 -0.76546855247E+03 -0.70528859275E+03 -0.97900686619E+03  0.14318171730E+04  0.90949815925E+02 0.  0.
    5000000    2    1    2    0    0  0.76546855247E+03  0.70528859275E+03 -0.12277244297E+04  0.17176901686E+04  0.59981508506E+03 0.  0.
         23    2    4    4    0    0  0.47181226118E+03  0.69850538523E+03 -0.10885322504E+04  0.13797626269E+04  0.91246168931E+02 0.  0.
         23    2    4    4    0    0  0.29365629129E+03  0.67832075142E+01 -0.13919217924E+03  0.33792754173E+03  0.92414995397E+02 0.  0.
          1    1    3    3  502    0 -0.58289373940E+03 -0.48801525160E+03 -0.68748778870E+03  0.10249699785E+04  0.00000000000E+00 0. -1.
         -1    1    3    3    0  502 -0.18257481307E+03 -0.21727334115E+03 -0.29151907748E+03  0.40684719451E+03  0.00000000000E+00 0.  1.
         15    1    5    5    0    0  0.30988860166E+03  0.44449039286E+03 -0.76779173786E+03  0.93973930706E+03  0.17770000000E+01 0. -1.
        -15    1    5    5    0    0  0.16192365952E+03  0.25401499237E+03 -0.32074051258E+03  0.44002331984E+03  0.17770000000E+01 0.  1.
          2    1    6    6  503    0  0.24556111313E+02 -0.26801485124E+02 -0.22097568474E+02  0.42539684298E+02  0.00000000000E+00 0. -1.
         -2    1    6    6    0  503  0.26910017998E+03  0.33584692638E+02 -0.11709461077E+03  0.29538785743E+03  0.00000000000E+00 0.  1.
<mgrwt>
<rscale>  0 0.10973219E+04</rscale>
<asrwt>0</asrwt>
<pdfrwt beam="1">  1        1 0.41201836E+00 0.10973219E+04</pdfrwt>
<pdfrwt beam="2">  1       -1 0.72521234E-01 0.10973219E+04</pdfrwt>
<totfact> 0.19655167E+00</totfact>
</mgrwt>
</event>
<event>
12    1  0.7781383E-008  0.4803031E+03  0.7818608E-02  0.1019052E+00
          3   -1    0    0  501    0  0.00000000000E+00  0.00000000000E+00  0.14043551720E+04  0.14043551720E+04  0.00000000000E+00 0. -1.
         -3   -1    0    0    0  501 -0.00000000000E+00 -0.00000000000E+00 -0.38841979055E+03  0.38841979055E+03  0.00000000000E+00 0.  1.
         23    2    1    2    0    0 -0.18479748858E+03  0.26856039057E+03 -0.20291539466E+03  0.39568280744E+03  0.95474769145E+02 0.  0.
    5000000    2    1    2    0    0  0.18479748858E+03 -0.26856039057E+03  0.12188507761E+04  0.13970921551E+04  0.59999540020E+03 0.  0.
         23    2    4    4    0    0 -0.12020891396E+03 -0.27891060364E+03  0.34974685967E+03  0.47145579602E+03  0.87786069139E+02 0.  0.
         23    2    4    4    0    0  0.30500640254E+03  0.10350213075E+02  0.86910391648E+03  0.92563635911E+03  0.91241543049E+02 0.  0.
          2    1    3    3  502    0 -0.97171082772E+02  0.72611263999E+02 -0.10202666189E+03  0.15850569303E+03  0.00000000000E+00 0. -1.
         -2    1    3    3    0  502 -0.87626405811E+02  0.19594912657E+03 -0.10088873277E+03  0.23717711440E+03  0.00000000000E+00 0.  1.
         15    1    5    5    0    0 -0.45877473592E+01 -0.11733192447E+03  0.12759371022E+03  0.17341032421E+03  0.17770000000E+01 0. -1.
        -15    1    5    5    0    0 -0.11562116660E+03 -0.16157867917E+03  0.22215314944E+03  0.29804547181E+03  0.17770000000E+01 0.  1.
          3    1    6    6  503    0  0.10132668106E+03 -0.17897489746E+02  0.18986347543E+03  0.21595267013E+03  0.00000000000E+00 0. -1.
         -3    1    6    6    0  503  0.20367972148E+03  0.28247702820E+02  0.67924044104E+03  0.70968368898E+03  0.00000000000E+00 0.  1.
<mgrwt>
<rscale>  0 0.48030311E+03</rscale>
<asrwt>0</asrwt>
<pdfrwt beam="1">  1        3 0.21605464E+00 0.48030311E+03</pdfrwt>
<pdfrwt beam="2">  1       -3 0.59756891E-01 0.48030311E+03</pdfrwt>
<totfact> 0.85563922E-01</totfact>
</mgrwt>
</event>
<event>
12    1  0.7781383E-008  0.1216777E+04  0.7818608E-02  0.9098297E-01
          2   -1    0    0  501    0  0.00000000000E+00  0.00000000000E+00  0.32211549026E+04  0.32211549026E+04  0.00000000000E+00 0. -1.
         -2   -1    0    0    0  501 -0.00000000000E+00 -0.00000000000E+00 -0.54011449600E+03  0.54011449600E+03  0.00000000000E+00 0.  1.
         23    2    1    2    0    0  0.96156183022E+03 -0.67961612179E+03  0.67858147272E+03  0.13620805066E+04  0.91166139357E+02 0.  0.
    5000000    2    1    2    0    0 -0.96156183022E+03  0.67961612179E+03  0.20024589339E+04  0.23991888921E+04  0.59982191639E+03 0.  0.
         23    2    4    4    0    0 -0.47574727757E+03  0.94453616495E+02  0.44885017873E+03  0.66718244819E+03  0.91700482197E+02 0.  0.
         23    2    4    4    0    0 -0.48581455265E+03  0.58516250530E+03  0.15536087552E+04  0.17320064439E+04  0.87836326297E+02 0.  0.
          4    1    3    3  502    0  0.27103105776E+03 -0.24171628399E+03  0.19774887665E+03  0.41350842123E+03  0.00000000000E+00 0.  1.
         -4    1    3    3    0  502  0.69053077246E+03 -0.43789983780E+03  0.48083259607E+03  0.94857208535E+03  0.00000000000E+00 0. -1.
         15    1    5    5    0    0 -0.24293095468E+03  0.63105779739E+01  0.19443366711E+03  0.31122802054E+03  0.17770000000E+01 0. -1.
        -15    1    5    5    0    0 -0.23281632289E+03  0.88143038522E+02  0.25441651162E+03  0.35595442765E+03  0.17770000000E+01 0.  1.
          2    1    6    6  503    0 -0.17606799433E+03  0.22550137915E+03  0.49237851142E+03  0.56946238606E+03  0.00000000000E+00 0. -1.
         -2    1    6    6    0  503 -0.30974655831E+03  0.35966112614E+03  0.10612302438E+04  0.11625440578E+04  0.00000000000E+00 0.  1.
<mgrwt>
<rscale>  0 0.12167767E+04</rscale>
<asrwt>0</asrwt>
<pdfrwt beam="1">  1        2 0.49556228E+00 0.12167767E+04</pdfrwt>
<pdfrwt beam="2">  1       -2 0.83094540E-01 0.12167767E+04</pdfrwt>
<totfact> 0.15853118E+00</totfact>
</mgrwt>
</event>
<event>
12    1  0.7781383E-008  0.5632144E+03  0.7818608E-02  0.9984808E-01
         -2   -1    0    0    0  501 -0.00000000000E+00  0.00000000000E+00  0.79714430882E+03  0.79714430882E+03  0.00000000000E+00 0. -1.
          2   -1    0    0  501    0  0.00000000000E+00 -0.00000000000E+00 -0.63489724282E+03  0.63489724282E+03  0.00000000000E+00 0.  1.
         23    2    1    2    0    0  0.36955892497E+03  0.34501728165E+03 -0.22572524049E+03  0.55759912587E+03  0.65986190302E+02 0.  0.
    5000000    2    1    2    0    0 -0.36955892497E+03 -0.34501728165E+03  0.38797230649E+03  0.87444242577E+03  0.59876232490E+03 0.  0.
         23    2    4    4    0    0 -0.18291859056E+03 -0.36461485000E+03  0.49156946751E+03  0.64523134772E+03  0.90993137521E+02 0.  0.
         23    2    4    4    0    0 -0.18664033441E+03  0.19597568356E+02 -0.10359716102E+03  0.22921107805E+03  0.81158286167E+02 0.  0.
          4    1    3    3  502    0  0.15717450143E+03  0.18785874210E+03 -0.93790581688E+02  0.26228115467E+03  0.00000000000E+00 0. -1.
         -4    1    3    3    0  502  0.21238442354E+03  0.15715853954E+03 -0.13193465880E+03  0.29531797119E+03  0.00000000000E+00 0.  1.
         15    1    5    5    0    0 -0.12455634049E+03 -0.16651375975E+03  0.20512204061E+03  0.29209471651E+03  0.17770000000E+01 0. -1.
        -15    1    5    5    0    0 -0.58362250073E+02 -0.19810109025E+03  0.28644742690E+03  0.35313663121E+03  0.17770000000E+01 0.  1.
          1    1    6    6  503    0 -0.16570344886E+03 -0.10617099205E+02 -0.72992305525E+02  0.18137869893E+03  0.00000000000E+00 0. -1.
         -1    1    6    6    0  503 -0.20936885557E+02  0.30214667561E+02 -0.30604855495E+02  0.47832379123E+02  0.00000000000E+00 0.  1.
<mgrwt>
<rscale>  0 0.56321441E+03</rscale>
<asrwt>0</asrwt>
<pdfrwt beam="1">  1        2 0.97676499E-01 0.56321441E+03</pdfrwt>
<pdfrwt beam="2">  1       -2 0.12263759E+00 0.56321441E+03</pdfrwt>
<totfact> 0.24039108E+01</totfact>
</mgrwt>
</event>
<event>
12    1  0.7781383E-008  0.1425895E+04  0.7818608E-02  0.8935285E-01
          2   -1    0    0  501    0  0.00000000000E+00  0.00000000000E+00  0.15994282134E+04  0.15994282134E+04  0.00000000000E+00 0. -1.
         -2   -1    0    0    0  501 -0.00000000000E+00 -0.00000000000E+00 -0.12968579323E+04  0.12968579323E+04  0.00000000000E+00 0.  1.
         23    2    1    2    0    0 -0.95353408452E+03  0.98986980675E+03  0.75229408830E+02  0.13792971140E+04  0.87929403731E+02 0.  0.
    5000000    2    1    2    0    0  0.95353408452E+03 -0.98986980675E+03  0.22734087230E+03  0.15169890317E+04  0.60041849189E+03 0.  0.
         23    2    4    4    0    0  0.16005379368E+03  0.24787594509E+02 -0.57483232824E+02  0.19475493643E+03  0.91616163930E+02 0.  0.
         23    2    4    4    0    0  0.79348029084E+03 -0.10146574013E+04  0.28482410512E+03  0.13222340953E+04  0.89652763188E+02 0.  0.
          4    1    3    3  502    0 -0.42264054237E+03  0.46010414342E+03  0.75460508149E+02  0.62929733762E+03  0.00000000000E+00 0. -1.
         -4    1    3    3    0  502 -0.53089354215E+03  0.52976566332E+03 -0.23109931911E+00  0.74999977636E+03  0.00000000000E+00 0.  1.
         15    1    5    5    0    0  0.15187848819E+03  0.49612823805E+02 -0.47199210858E+02  0.16661161633E+03  0.17770000000E+01 0.  1.
        -15    1    5    5    0    0  0.81753054949E+01 -0.24825229296E+02 -0.10284021966E+02  0.28143320102E+02  0.17770000000E+01 0. -1.
          4    1    6    6  503    0  0.29824285405E+03 -0.31427173980E+03  0.86298880042E+02  0.44177259209E+03  0.00000000000E+00 0.  1.
         -4    1    6    6    0  503  0.49523743678E+03 -0.70038566146E+03  0.19852522508E+03  0.88046150317E+03  0.00000000000E+00 0. -1.
<mgrwt>
<rscale>  0 0.14258946E+04</rscale>
<asrwt>0</asrwt>
<pdfrwt beam="1">  1        2 0.24606588E+00 0.14258946E+04</pdfrwt>
<pdfrwt beam="2">  1       -2 0.19951660E+00 0.14258946E+04</pdfrwt>
<totfact> 0.14172972E+00</totfact>
</mgrwt>
</event>
<event>
12    1  0.7781383E-008  0.2083239E+04  0.7818608E-02  0.8568663E-01
         -1   -1    0    0    0  501 -0.00000000000E+00  0.00000000000E+00  0.16133688952E+04  0.16133688952E+04  0.00000000000E+00 0.  1.
          1   -1    0    0  501    0  0.00000000000E+00 -0.00000000000E+00 -0.27274551824E+04  0.27274551824E+04  0.00000000000E+00 0. -1.
         23    2    1    2    0    0  0.13231952399E+04  0.15707189787E+04 -0.54663523387E+03  0.21272160398E+04  0.90742755669E+02 0.  0.
    5000000    2    1    2    0    0 -0.13231952399E+04 -0.15707189787E+04 -0.56745105336E+03  0.22136080379E+04  0.60004674342E+03 0.  0.
         23    2    4    4    0    0 -0.11955052917E+03  0.33541287805E+01 -0.83075992779E+02  0.17175698211E+03  0.91078324107E+02 0.  0.
         23    2    4    4    0    0 -0.12036447108E+04 -0.15740731075E+04 -0.48437506058E+03  0.20418510558E+04  0.89832049458E+02 0.  0.
          1    1    3    3  502    0  0.92910074573E+02  0.93236559073E+02 -0.15347862703E+02  0.13251752637E+03  0.00000000000E+00 0. -1.
         -1    1    3    3    0  502  0.12302851654E+04  0.14774824197E+04 -0.53128737117E+03  0.19946985134E+04  0.00000000000E+00 0.  1.
         15    1    5    5    0    0 -0.44779238491E+01 -0.13436308947E+02  0.14200205491E+02  0.20134293261E+02  0.17770000000E+01 0.  1.
        -15    1    5    5    0    0 -0.11507260533E+03  0.16790437728E+02 -0.97276198270E+02  0.15162268885E+03  0.17770000000E+01 0. -1.
          3    1    6    6  503    0 -0.35732649929E+03 -0.48227326377E+03 -0.18835497147E+03  0.62908451207E+03  0.00000000000E+00 0. -1.
         -3    1    6    6    0  503 -0.84631821147E+03 -0.10917998438E+04 -0.29602008911E+03  0.14127665437E+04  0.00000000000E+00 0.  1.
<mgrwt>
<rscale>  0 0.20832388E+04</rscale>
<asrwt>0</asrwt>
<pdfrwt beam="1">  1        1 0.41960849E+00 0.20832388E+04</pdfrwt>
<pdfrwt beam="2">  1       -1 0.24821060E+00 0.20832388E+04</pdfrwt>
<totfact> 0.59369284E-02</totfact>
</mgrwt>
</event>
<event>
12    1  0.7781383E-008  0.1357752E+04  0.7818608E-02  0.8984981E-01
         -1   -1    0    0    0  501 -0.00000000000E+00  0.00000000000E+00  0.19371904472E+04  0.19371904472E+04  0.00000000000E+00 0.  1.
          1   -1    0    0  501    0  0.00000000000E+00 -0.00000000000E+00 -0.13498756826E+04  0.13498756826E+04  0.00000000000E+00 0. -1.
         23    2    1    2    0    0 -0.42906264200E+03 -0.12395230078E+04 -0.57445619240E+03  0.14349025150E+04  0.91832853956E+02 0.  0.
    5000000    2    1    2    0    0  0.42906264200E+03  0.12395230078E+04  0.11617709570E+04  0.18521636147E+04  0.60023850389E+03 0.  0.
         23    2    4    4    0    0 -0.58504050221E+02  0.40092670475E+02  0.15154364216E+02  0.12018368476E+03  0.95834843399E+02 0.  0.
         23    2    4    4    0    0  0.48756669222E+03  0.11994303373E+04  0.11466165928E+04  0.17319799299E+04  0.93115269913E+02 0.  0.
          4    1    3    3  502    0 -0.14030938456E+03 -0.53388328462E+03 -0.22281971494E+03  0.59528708231E+03  0.00000000000E+00 0.  1.
         -4    1    3    3    0  502 -0.28875325744E+03 -0.70563972316E+03 -0.35163647746E+03  0.83961543272E+03  0.00000000000E+00 0. -1.
         15    1    5    5    0    0 -0.75908968463E+02  0.41195959237E+02  0.35440405366E+02  0.93372686649E+02  0.17770000000E+01 0.  1.
        -15    1    5    5    0    0  0.17404918242E+02 -0.11032887623E+01 -0.20286041150E+02  0.26810998110E+02  0.17770000000E+01 0. -1.
          2    1    6    6  503    0  0.15088423477E+03  0.28105178314E+03  0.31085013535E+03  0.44540314745E+03  0.00000000000E+00 0. -1.
         -2    1    6    6    0  503  0.33668245745E+03  0.91837855416E+03  0.83576645743E+03  0.12865767825E+04  0.00000000000E+00 0.  1.
<mgrwt>
<rscale>  0 0.13577516E+04</rscale>
<asrwt>0</asrwt>
<pdfrwt beam="1">  1        1 0.20767318E+00 0.13577516E+04</pdfrwt>
<pdfrwt beam="2">  1       -1 0.29802930E+00 0.13577516E+04</pdfrwt>
<totfact> 0.27307647E-01</totfact>
</mgrwt>
</event>
<event>
12    1  0.7781383E-008  0.9379666E+03  0.7818608E-02  0.9379327E-01
         -2   -1    0    0    0  501 -0.00000000000E+00  0.00000000000E+00  0.15420467021E+04  0.15420467021E+04  0.00000000000E+00 0.  1.
          2   -1    0    0  501    0  0.00000000000E+00 -0.00000000000E+00 -0.87113450698E+03  0.87113450698E+03  0.00000000000E+00 0. -1.
         23    2    1    2    0    0 -0.14579359026E+03  0.88496780539E+03 -0.31385257614E+03  0.95228233142E+03  0.62565259089E+02 0.  0.
    5000000    2    1    2    0    0  0.14579359026E+03 -0.88496780539E+03  0.98476477131E+03  0.14608988777E+04  0.60003340621E+03 0.  0.
         23    2    4    4    0    0  0.24817194615E+03 -0.73258986546E+03  0.47623869264E+03  0.91285733790E+03  0.90708330131E+02 0.  0.
         23    2    4    4    0    0 -0.10237835590E+03 -0.15237793993E+03  0.50852607866E+03  0.54804153981E+03  0.89723978663E+02 0.  0.
          3    1    3    3  502    0 -0.30874548804E+01  0.15900166825E+03 -0.48189949996E+02  0.16617260353E+03  0.00000000000E+00 0. -1.
         -3    1    3    3    0  502 -0.14270613538E+03  0.72596613714E+03 -0.26566262615E+03  0.78610972789E+03  0.00000000000E+00 0.  1.
         15    1    5    5    0    0  0.94128410410E+02 -0.25281851277E+03  0.21678087486E+03  0.34608447449E+03  0.17770000000E+01 0. -1.
        -15    1    5    5    0    0  0.15404353574E+03 -0.47977135269E+03  0.25945781778E+03  0.56677286341E+03  0.17770000000E+01 0.  1.
          2    1    6    6  503    0 -0.11821976214E+03 -0.12751666240E+03  0.45192465563E+03  0.48422340475E+03  0.00000000000E+00 0.  1.
         -2    1    6    6    0  503  0.15841406248E+02 -0.24861277532E+02  0.56601423038E+02  0.63818135059E+02  0.00000000000E+00 0. -1.
<mgrwt>
<rscale>  0 0.93796657E+03</rscale>
<asrwt>0</asrwt>
<pdfrwt beam="1">  1        2 0.13402069E+00 0.93796657E+03</pdfrwt>
<pdfrwt beam="2">  1       -2 0.23723795E+00 0.93796657E+03</pdfrwt>
<totfact> 0.23718482E+00</totfact>
</mgrwt>
</event>
<event>
12    1  0.7781383E-008  0.1017141E+04  0.7818608E-02  0.9289942E-01
         -2   -1    0    0    0  501 -0.00000000000E+00  0.00000000000E+00  0.66183902422E+03  0.66183902422E+03  0.00000000000E+00 0.  1.
          2   -1    0    0  501    0  0.00000000000E+00 -0.00000000000E+00 -0.16640889791E+04  0.16640889791E+04  0.00000000000E+00 0. -1.
         23    2    1    2    0    0 -0.61070638524E+03 -0.72561571211E+03 -0.63693292620E+03  0.11457582098E+04  0.87165773638E+02 0.  0.
    5000000    2    1    2    0    0  0.61070638524E+03  0.72561571211E+03 -0.36531702865E+03  0.11801697935E+04  0.59988645555E+03 0.  0.
         23    2    4    4    0    0  0.30223214201E+02  0.42147218798E+03 -0.19196925977E+02  0.43207032991E+03  0.88113563655E+02 0.  0.
         23    2    4    4    0    0  0.58048317104E+03  0.30414352412E+03 -0.34612010267E+03  0.74809946364E+03  0.10192981358E+03 0.  0.
          4    1    3    3  502    0 -0.37975895322E+03 -0.40806956753E+03 -0.41279734520E+03  0.69364204220E+03  0.00000000000E+00 0. -1.
         -4    1    3    3    0  502 -0.23094743202E+03 -0.31754614457E+03 -0.22413558100E+03  0.45211616755E+03  0.00000000000E+00 0.  1.
         15    1    5    5    0    0 -0.26693982344E+01 -0.90949539278E+00  0.68377539350E+01  0.76069360901E+01  0.17770000000E+01 0.  1.
        -15    1    5    5    0    0  0.32892612436E+02  0.42238168338E+03 -0.26034679912E+02  0.42446339382E+03  0.17770000000E+01 0. -1.
          1    1    6    6  503    0  0.17017051916E+03  0.11502663220E+03 -0.15601885324E+03  0.25793606625E+03  0.00000000000E+00 0. -1.
         -1    1    6    6    0  503  0.41031265188E+03  0.18911689192E+03 -0.19010124943E+03  0.49016339739E+03  0.00000000000E+00 0.  1.
<mgrwt>
<rscale>  0 0.10171409E+04</rscale>
<asrwt>0</asrwt>
<pdfrwt beam="1">  1        2 0.25601369E+00 0.10171409E+04</pdfrwt>
<pdfrwt beam="2">  1       -2 0.10182139E+00 0.10171409E+04</pdfrwt>
<totfact> 0.80833215E+00</totfact>
</mgrwt>
</event>
<event>
12    1  0.7781383E-008  0.7521985E+03  0.7818608E-02  0.9631908E-01
          1   -1    0    0  501    0  0.00000000000E+00  0.00000000000E+00  0.15711716648E+04  0.15711716648E+04  0.00000000000E+00 0. -1.
         -1   -1    0    0    0  501 -0.00000000000E+00 -0.00000000000E+00 -0.51178443062E+03  0.51178443062E+03  0.00000000000E+00 0.  1.
         23    2    1    2    0    0 -0.62994151899E+03  0.16055268780E+03  0.10003591847E+04  0.11965042614E+04  0.91106894279E+02 0.  0.
    5000000    2    1    2    0    0  0.62994151899E+03 -0.16055268780E+03  0.59028049389E+02  0.88645183396E+03  0.59975750134E+03 0.  0.
         23    2    4    4    0    0  0.72097819658E+03 -0.10899054119E+03 -0.20119754605E+01  0.73517049208E+03  0.93718228583E+02 0.  0.
         23    2    4    4    0    0 -0.91036677596E+02 -0.51562146610E+02  0.61040024849E+02  0.15128134188E+03  0.90630172323E+02 0.  0.
          4    1    3    3  502    0 -0.49095308088E+03  0.12747582406E+03  0.70619344620E+03  0.86947926761E+03  0.00000000000E+00 0. -1.
         -4    1    3    3    0  502 -0.13898843810E+03  0.33076863742E+02  0.29416573854E+03  0.32702499381E+03  0.00000000000E+00 0.  1.
         15    1    5    5    0    0  0.11555853494E+03 -0.50121878687E+02  0.13508088829E+02  0.12669492458E+03  0.17770000000E+01 0. -1.
        -15    1    5    5    0    0  0.60541966164E+03 -0.58868662502E+02 -0.15520064290E+02  0.60847556751E+03  0.17770000000E+01 0.  1.
          2    1    6    6  503    0 -0.70586993422E+02 -0.69009699030E+01 -0.25011732381E+01  0.70967618627E+02  0.00000000000E+00 0. -1.
         -2    1    6    6    0  503 -0.20449684174E+02 -0.44661176707E+02  0.63541198088E+02  0.80313723249E+02  0.00000000000E+00 0.  1.
<mgrwt>
<rscale>  0 0.75219853E+03</rscale>
<asrwt>0</asrwt>
<pdfrwt beam="1">  1        1 0.24171872E+00 0.75219853E+03</pdfrwt>
<pdfrwt beam="2">  1       -1 0.78736067E-01 0.75219853E+03</pdfrwt>
<totfact> 0.97949691E+00</totfact>
</mgrwt>
</event>
<event>
12    1  0.7781383E-008  0.8301331E+03  0.7818608E-02  0.9517397E-01
         -1   -1    0    0    0  501 -0.00000000000E+00  0.00000000000E+00  0.85106699731E+03  0.85106699731E+03  0.00000000000E+00 0.  1.
          1   -1    0    0  501    0  0.00000000000E+00 -0.00000000000E+00 -0.85116216247E+03  0.85116216247E+03  0.00000000000E+00 0. -1.
         23    2    1    2    0    0 -0.22184911525E+03 -0.70370843070E+03  0.80421930063E+02  0.74779085574E+03  0.91109229620E+02 0.  0.
    5000000    2    1    2    0    0  0.22184911525E+03  0.70370843070E+03 -0.80517095223E+02  0.95443830404E+03  0.60003907225E+03 0.  0.
         23    2    4    4    0    0  0.31348674311E+03  0.13393759369E+03  0.48913281442E+02  0.35591638501E+03  0.89837335814E+02 0.  0.
         23    2    4    4    0    0 -0.91637627862E+02  0.56977083701E+03 -0.12943037667E+03  0.59852191904E+03  0.91869492293E+02 0.  0.
          4    1    3    3  502    0 -0.15467357310E+03 -0.37131076996E+03  0.71582721444E+02  0.40855805967E+03  0.00000000000E+00 0.  1.
         -4    1    3    3    0  502 -0.67175542143E+02 -0.33239766074E+03  0.88392086193E+01  0.33923279608E+03  0.00000000000E+00 0. -1.
         15    1    5    5    0    0  0.17736992241E+03  0.86384490233E+02  0.71723792802E+02  0.20992815369E+03  0.17770000000E+01 0.  1.
        -15    1    5    5    0    0  0.13611682070E+03  0.47553103456E+02 -0.22810511360E+02  0.14598823131E+03  0.17770000000E+01 0. -1.
          1    1    6    6  503    0 -0.68085922291E+02  0.36472179793E+03 -0.12685231838E+03  0.39210864996E+03  0.00000000000E+00 0. -1.
         -1    1    6    6    0  503 -0.23551705571E+02  0.20504903909E+03 -0.25780582835E+01  0.20641326907E+03  0.00000000000E+00 0.  1.
<mgrwt>
<rscale>  0 0.83013310E+03</rscale>
<asrwt>0</asrwt>
<pdfrwt beam="1">  1        1 0.13094803E+00 0.83013310E+03</pdfrwt>
<pdfrwt beam="2">  1       -1 0.13093338E+00 0.83013310E+03</pdfrwt>
<totfact> 0.10160207E+01</totfact>
</mgrwt>
</event>
<event>
12    1  0.7781383E-008  0.1124566E+04  0.7818608E-02  0.9181573E-01
         -2   -1    0    0    0  501 -0.00000000000E+00  0.00000000000E+00  0.14762747123E+04  0.14762747123E+04  0.00000000000E+00 0.  1.
          2   -1    0    0  501    0  0.00000000000E+00 -0.00000000000E+00 -0.91060349221E+03  0.91060349221E+03  0.00000000000E+00 0. -1.
         23    2    1    2    0    0 -0.10377457849E+04  0.18185384630E+03  0.50793090814E+03  0.11730485424E+04  0.89788305986E+02 0.  0.
    5000000    2    1    2    0    0  0.10377457849E+04 -0.18185384630E+03  0.57740311951E+02  0.12138296621E+04  0.60005113917E+03 0.  0.
         23    2    4    4    0    0  0.51622102178E+03  0.18677313076E+03 -0.52670534022E+02  0.55923131459E+03  0.92720722406E+02 0.  0.
         23    2    4    4    0    0  0.52152476310E+03 -0.36862697706E+03  0.11041084597E+03  0.65459834755E+03  0.91839615422E+02 0.  0.
          2    1    3    3  502    0 -0.91734685298E+03  0.14251299094E+03  0.42052730256E+03  0.10191557356E+04  0.00000000000E+00 0. -1.
         -2    1    3    3    0  502 -0.12039893190E+03  0.39340855358E+02  0.87403605584E+02  0.15389280676E+03  0.00000000000E+00 0.  1.
         15    1    5    5    0    0  0.37885947522E+03  0.17111157449E+03 -0.15241430666E+02  0.41599174490E+03  0.17770000000E+01 0. -1.
        -15    1    5    5    0    0  0.13736154655E+03  0.15661556274E+02 -0.37429103356E+02  0.14323956968E+03  0.17770000000E+01 0.  1.
          4    1    6    6  503    0  0.35497981963E+03 -0.27537696157E+03  0.11468638615E+03  0.46367673057E+03  0.00000000000E+00 0. -1.
         -4    1    6    6    0  503  0.16654494347E+03 -0.93250015495E+02 -0.42755401758E+01  0.19092161697E+03  0.00000000000E+00 0.  1.
<mgrwt>
<rscale>  0 0.11245664E+04</rscale>
<asrwt>0</asrwt>
<pdfrwt beam="1">  1        2 0.14009285E+00 0.11245664E+04</pdfrwt>
<pdfrwt beam="2">  1       -2 0.22711919E+00 0.11245664E+04</pdfrwt>
<totfact> 0.25225471E+00</totfact>
</mgrwt>
</event>
<event>
12    1  0.7781383E-008  0.7898276E+03  0.7818608E-02  0.9574859E-01
         -2   -1    0    0    0  501 -0.00000000000E+00  0.00000000000E+00  0.94689255659E+03  0.94689255659E+03  0.00000000000E+00 0.  1.
          2   -1    0    0  501    0  0.00000000000E+00 -0.00000000000E+00 -0.82679666007E+03  0.82679666007E+03  0.00000000000E+00 0. -1.
         23    2    1    2    0    0 -0.67477342229E+03 -0.38120490324E+03 -0.36172435472E+02  0.78114286644E+03  0.90771047253E+02 0.  0.
    5000000    2    1    2    0    0  0.67477342229E+03  0.38120490324E+03  0.15626833199E+03  0.99254635022E+03  0.60007675848E+03 0.  0.
         23    2    4    4    0    0  0.27454225880E+03  0.24433169947E+03 -0.20342854906E+03  0.42977353024E+03  0.90833262034E+02 0.  0.
         23    2    4    4    0    0  0.40023116349E+03  0.13687320377E+03  0.35969688105E+03  0.56277281998E+03  0.91717732925E+02 0.  0.
          4    1    3    3  502    0 -0.46898163960E+03 -0.23018389659E+03  0.57858318858E+01  0.52245753931E+03  0.00000000000E+00 0. -1.
         -4    1    3    3    0  502 -0.20579178269E+03 -0.15102100666E+03 -0.41958267357E+02  0.25868532713E+03  0.00000000000E+00 0.  1.
         15    1    5    5    0    0  0.44367578764E+02  0.65142272363E+02 -0.93153371630E+01  0.79384702112E+02  0.17770000000E+01 0.  1.
        -15    1    5    5    0    0  0.23017468004E+03  0.17918942711E+03 -0.19411321190E+03  0.35038882813E+03  0.17770000000E+01 0. -1.
          2    1    6    6  503    0  0.29139615699E+03  0.58242552999E+02  0.22643746612E+03  0.37360117954E+03  0.00000000000E+00 0. -1.
         -2    1    6    6    0  503  0.10883500650E+03  0.78630650775E+02  0.13325941493E+03  0.18917164044E+03  0.00000000000E+00 0.  1.
<mgrwt>
<rscale>  0 0.78982758E+03</rscale>
<asrwt>0</asrwt>
<pdfrwt beam="1">  1        2 0.12719949E+00 0.78982758E+03</pdfrwt>
<pdfrwt beam="2">  1       -2 0.14567578E+00 0.78982758E+03</pdfrwt>
<totfact> 0.10793083E+01</totfact>
</mgrwt>
</event>
<event>
12    1  0.7781383E-008  0.1102529E+04  0.7818608E-02  0.9202730E-01
         -2   -1    0    0    0  501 -0.00000000000E+00  0.00000000000E+00  0.96452176841E+03  0.96452176841E+03  0.00000000000E+00 0.  1.
          2   -1    0    0  501    0  0.00000000000E+00 -0.00000000000E+00 -0.16280810807E+04  0.16280810807E+04  0.00000000000E+00 0. -1.
         23    2    1    2    0    0  0.10041419839E+04 -0.41616837256E+03  0.16065670421E+03  0.11023423235E+04  0.88604646079E+02 0.  0.
    5000000    2    1    2    0    0 -0.10041419839E+04  0.41616837256E+03 -0.82421601655E+03  0.14902605257E+04  0.60003929402E+03 0.  0.
         23    2    4    4    0    0 -0.37425951173E+03  0.25613780722E+03 -0.67283891781E+03  0.81677139787E+03  0.93415997840E+02 0.  0.
         23    2    4    4    0    0 -0.62988247217E+03  0.16003056534E+03 -0.15137709874E+03  0.67348912783E+03  0.91163965962E+02 0.  0.
          4    1    3    3  502    0  0.34522886840E+03 -0.18540311806E+03  0.40914134515E+02  0.39399397732E+03  0.00000000000E+00 0. -1.
         -4    1    3    3    0  502  0.65891311550E+03 -0.23076525450E+03  0.11974256970E+03  0.70834834613E+03  0.00000000000E+00 0.  1.
         15    1    5    5    0    0 -0.10745086521E+03  0.12049991159E+03 -0.19823052664E+03  0.25566465643E+03  0.17770000000E+01 0. -1.
        -15    1    5    5    0    0 -0.26680864653E+03  0.13563789562E+03 -0.47460839117E+03  0.56110674144E+03  0.17770000000E+01 0.  1.
          4    1    6    6  503    0 -0.22255524618E+03  0.19610981910E+02 -0.26993013619E+02  0.22504233157E+03  0.00000000000E+00 0.  1.
         -4    1    6    6    0  503 -0.40732722599E+03  0.14041958343E+03 -0.12438408512E+03  0.44844679626E+03  0.00000000000E+00 0. -1.
<mgrwt>
<rscale>  0 0.11025292E+04</rscale>
<asrwt>0</asrwt>
<pdfrwt beam="1">  1        2 0.25047401E+00 0.11025292E+04</pdfrwt>
<pdfrwt beam="2">  1       -2 0.14838797E+00 0.11025292E+04</pdfrwt>
<totfact> 0.32568709E+00</totfact>
</mgrwt>
</event>
<event>
12    1  0.7781383E-008  0.4340157E+03  0.7818608E-02  0.1032599E+00
         -1   -1    0    0    0  501 -0.00000000000E+00  0.00000000000E+00  0.90504201999E+02  0.90504201999E+02  0.00000000000E+00 0.  1.
          1   -1    0    0  501    0  0.00000000000E+00 -0.00000000000E+00 -0.24103223900E+04  0.24103223900E+04  0.00000000000E+00 0. -1.
         23    2    1    2    0    0  0.20289339045E+03 -0.16622647395E+03 -0.62036493590E+03  0.67954628706E+03  0.90186107726E+02 0.  0.
    5000000    2    1    2    0    0 -0.20289339045E+03  0.16622647395E+03 -0.16994532521E+04  0.18212803049E+04  0.60010301163E+03 0.  0.
         23    2    4    4    0    0 -0.17008472442E+03  0.36257594541E+03 -0.13309369355E+04  0.13926107623E+04  0.87071689929E+02 0.  0.
         23    2    4    4    0    0 -0.32808666023E+02 -0.19634947146E+03 -0.36851631653E+03  0.42866954262E+03  0.91234739648E+02 0.  0.
          2    1    3    3  502    0  0.13785879881E+03 -0.10532585385E+03 -0.50376535003E+03  0.53280213193E+03  0.00000000000E+00 0. -1.
         -2    1    3    3    0  502  0.65034591635E+02 -0.60900620105E+02 -0.11659958587E+03  0.14674415513E+03  0.00000000000E+00 0.  1.
         15    1    5    5    0    0 -0.49914422575E+02  0.11724911707E+03 -0.57138353401E+03  0.58542386840E+03  0.17770000000E+01 0. -1.
        -15    1    5    5    0    0 -0.12017030185E+03  0.24532682834E+03 -0.75955340154E+03  0.80718689389E+03  0.17770000000E+01 0.  1.
          3    1    6    6  503    0  0.10218777314E+02 -0.82101158629E+02 -0.78688937762E+02  0.11417956290E+03  0.00000000000E+00 0.  1.
         -3    1    6    6    0  503 -0.43027443337E+02 -0.11424831283E+03 -0.28982737877E+03  0.31448997972E+03  0.00000000000E+00 0. -1.
<mgrwt>
<rscale>  0 0.43401571E+03</rscale>
<asrwt>0</asrwt>
<pdfrwt beam="1">  1        1 0.37081888E+00 0.43401571E+03</pdfrwt>
<pdfrwt beam="2">  1       -1 0.13923721E-01 0.43401571E+03</pdfrwt>
<totfact> 0.63384625E+01</totfact>
</mgrwt>
</event>
<event>
12    1  0.7781383E-008  0.8755297E+03  0.7818608E-02  0.9456698E-01
          2   -1    0    0  501    0  0.00000000000E+00  0.00000000000E+00  0.64801126498E+03  0.64801126498E+03  0.00000000000E+00 0. -1.
         -2   -1    0    0    0  501 -0.00000000000E+00 -0.00000000000E+00 -0.15704913368E+04  0.15704913368E+04  0.00000000000E+00 0.  1.
         23    2    1    2    0    0  0.75844189575E+03  0.26039041622E+03  0.67687957568E+02  0.81013547838E+03  0.93276769024E+02 0.  0.
    5000000    2    1    2    0    0 -0.75844189575E+03 -0.26039041622E+03 -0.99016802942E+03  0.14083671234E+04  0.60002329104E+03 0.  0.
         23    2    4    4    0    0 -0.24265706911E+02 -0.18673229422E+03 -0.42345258301E+03  0.47253849109E+03  0.92318802324E+02 0.  0.
         23    2    4    4    0    0 -0.73417618884E+03 -0.73658122001E+02 -0.56671544640E+03  0.93582863234E+03  0.10083965848E+03 0.  0.
          2    1    3    3  502    0  0.20266829912E+03  0.95689414654E+02 -0.14900422247E+02  0.22461728813E+03  0.00000000000E+00 0. -1.
         -2    1    3    3    0  502  0.55577359663E+03  0.16470100156E+03  0.82588379815E+02  0.58551819025E+03  0.00000000000E+00 0.  1.
         15    1    5    5    0    0 -0.39645103313E+02 -0.25729745256E+02 -0.11241351943E+03  0.12195782503E+03  0.17770000000E+01 0.  1.
        -15    1    5    5    0    0  0.15379396402E+02 -0.16100254896E+03 -0.31103906358E+03  0.35058066605E+03  0.17770000000E+01 0. -1.
          1    1    6    6  503    0 -0.63049294316E+03 -0.55051905130E+02 -0.43883206342E+03  0.77014650783E+03  0.00000000000E+00 0. -1.
         -1    1    6    6    0  503 -0.10368324568E+03 -0.18606216871E+02 -0.12788338298E+03  0.16568212452E+03  0.00000000000E+00 0.  1.
<mgrwt>
<rscale>  0 0.87552966E+03</rscale>
<asrwt>0</asrwt>
<pdfrwt beam="1">  1        2 0.99694041E-01 0.87552966E+03</pdfrwt>
<pdfrwt beam="2">  1       -2 0.24161405E+00 0.87552966E+03</pdfrwt>
<totfact> 0.33053352E+00</totfact>
</mgrwt>
</event>
<event>
12    1  0.7781383E-008  0.1574000E+04  0.7818608E-02  0.8836682E-01
         -1   -1    0    0    0  501 -0.00000000000E+00  0.00000000000E+00  0.16668047316E+04  0.16668047316E+04  0.00000000000E+00 0.  1.
          1   -1    0    0  501    0  0.00000000000E+00 -0.00000000000E+00 -0.15457963099E+04  0.15457963099E+04  0.00000000000E+00 0. -1.
         23    2    1    2    0    0 -0.82648670892E+03  0.12970238583E+04  0.22791310291E+03  0.15582923462E+04  0.10478303739E+03 0.  0.
    5000000    2    1    2    0    0  0.82648670892E+03 -0.12970238583E+04 -0.10690468123E+03  0.16543086952E+04  0.59996456501E+03 0.  0.
         23    2    4    4    0    0  0.47053150346E+03 -0.34725307986E+03 -0.21574777193E+03  0.63020102323E+03  0.92852740213E+02 0.  0.
         23    2    4    4    0    0  0.35595520546E+03 -0.94977077840E+03  0.10884309070E+03  0.10241076720E+04  0.90449243361E+02 0.  0.
          4    1    3    3  502    0 -0.51623475471E+03  0.71406290126E+03  0.12546136374E+03  0.89001387783E+03  0.00000000000E+00 0. -1.
         -4    1    3    3    0  502 -0.31025195421E+03  0.58296095699E+03  0.10245173917E+03  0.66827846840E+03  0.00000000000E+00 0.  1.
         15    1    5    5    0    0  0.40737853837E+03 -0.26915715636E+03 -0.20360399428E+03  0.52901851816E+03  0.17770000000E+01 0.  1.
        -15    1    5    5    0    0  0.63152965097E+02 -0.78095923503E+02 -0.12143777656E+02  0.10118250507E+03  0.17770000000E+01 0. -1.
          4    1    6    6  503    0  0.30446579981E+03 -0.70981532942E+03  0.96723140478E+02  0.77839102708E+03  0.00000000000E+00 0. -1.
         -4    1    6    6    0  503  0.51489405648E+02 -0.23995544898E+03  0.12119950223E+02  0.24571664490E+03  0.00000000000E+00 0.  1.
<mgrwt>
<rscale>  0 0.15740002E+04</rscale>
<asrwt>0</asrwt>
<pdfrwt beam="1">  1        1 0.23781482E+00 0.15740002E+04</pdfrwt>
<pdfrwt beam="2">  1       -1 0.25643150E+00 0.15740002E+04</pdfrwt>
<totfact> 0.36099384E-01</totfact>
</mgrwt>
</event>
<event>
12    1  0.7781383E-008  0.6340745E+03  0.7818608E-02  0.9837130E-01
         -2   -1    0    0    0  501 -0.00000000000E+00  0.00000000000E+00  0.92384683906E+03  0.92384683906E+03  0.00000000000E+00 0.  1.
          2   -1    0    0  501    0  0.00000000000E+00 -0.00000000000E+00 -0.52681085923E+03  0.52681085923E+03  0.00000000000E+00 0. -1.
         23    2    1    2    0    0 -0.25050033835E+03  0.49107597745E+03  0.38666371098E+02  0.56050534772E+03  0.93622227229E+02 0.  0.
    5000000    2    1    2    0    0  0.25050033835E+03 -0.49107597745E+03  0.35836960873E+03  0.89015235057E+03  0.60003032891E+03 0.  0.
         23    2    4    4    0    0  0.16086876415E+03  0.28117627940E+02 -0.77511454220E+02  0.20040148748E+03  0.86506475876E+02 0.  0.
         23    2    4    4    0    0  0.89631574196E+02 -0.51919360539E+03  0.43588106295E+03  0.68975086309E+03  0.90377724680E+02 0.  0.
          2    1    3    3  502    0 -0.21623314025E+03  0.34903102623E+03  0.51601237970E+02  0.41381410800E+03  0.00000000000E+00 0. -1.
         -2    1    3    3    0  502 -0.34267198095E+02  0.14204495122E+03 -0.12934866871E+02  0.14669123973E+03  0.00000000000E+00 0.  1.
         15    1    5    5    0    0  0.71280672070E+02  0.54059113502E+02 -0.52811573305E+02  0.10390159752E+03  0.17770000000E+01 0. -1.
        -15    1    5    5    0    0  0.89588092082E+02 -0.25941485562E+02 -0.24699880914E+02  0.96499889959E+02  0.17770000000E+01 0.  1.
          4    1    6    6  503    0  0.66548185712E+02 -0.46553593721E+03  0.41654512419E+03  0.62822146600E+03  0.00000000000E+00 0. -1.
         -4    1    6    6    0  503  0.23083388483E+02 -0.53657668178E+02  0.19335938766E+02  0.61529397089E+02  0.00000000000E+00 0.  1.
<mgrwt>
<rscale>  0 0.63407447E+03</rscale>
<asrwt>0</asrwt>
<pdfrwt beam="1">  1        2 0.81047824E-01 0.63407447E+03</pdfrwt>
<pdfrwt beam="2">  1       -2 0.14213028E+00 0.63407447E+03</pdfrwt>
<totfact> 0.20493010E+01</totfact>
</mgrwt>
</event>
<event>
12    1  0.7781383E-008  0.7015283E+03  0.7818608E-02  0.9714622E-01
         -1   -1    0    0    0  501 -0.00000000000E+00  0.00000000000E+00  0.49345837835E+03  0.49345837835E+03  0.00000000000E+00 0.  1.
          1   -1    0    0  501    0  0.00000000000E+00 -0.00000000000E+00 -0.10461649979E+04  0.10461649979E+04  0.00000000000E+00 0. -1.
         23    2    1    2    0    0 -0.24237081347E+02  0.57912331035E+03 -0.11975568389E+03  0.59971880552E+03  0.96695279972E+02 0.  0.
    5000000    2    1    2    0    0  0.24237081347E+02 -0.57912331035E+03 -0.43295093566E+03  0.93990457072E+03  0.60000237055E+03 0.  0.
         23    2    4    4    0    0  0.29261026153E+03 -0.32516015557E+03 -0.17294437858E+03  0.47895203041E+03  0.90196438031E+02 0.  0.
         23    2    4    4    0    0 -0.26837318018E+03 -0.25396315478E+03 -0.26000655708E+03  0.46095254030E+03  0.91391393796E+02 0.  0.
          1    1    3    3  502    0  0.28925342164E+02  0.18644727630E+03 -0.11941482947E+02  0.18905518050E+03  0.00000000000E+00 0. -1.
         -1    1    3    3    0  502 -0.53162423511E+02  0.39267603405E+03 -0.10781420094E+03  0.41066362502E+03  0.00000000000E+00 0.  1.
         15    1    5    5    0    0  0.92639503147E+02 -0.16939322033E+03 -0.79097356511E+02  0.20865207925E+03  0.17770000000E+01 0. -1.
        -15    1    5    5    0    0  0.19997075838E+03 -0.15576693524E+03 -0.93847022070E+02  0.27029995117E+03  0.17770000000E+01 0.  1.
          4    1    6    6  503    0 -0.38557476779E+02 -0.57388999924E+02 -0.12712213468E+02  0.70297771651E+02  0.00000000000E+00 0. -1.
         -4    1    6    6    0  503 -0.22981570340E+03 -0.19657415486E+03 -0.24729434361E+03  0.39065476865E+03  0.00000000000E+00 0.  1.
<mgrwt>
<rscale>  0 0.70152834E+03</rscale>
<asrwt>0</asrwt>
<pdfrwt beam="1">  1        1 0.16094846E+00 0.70152834E+03</pdfrwt>
<pdfrwt beam="2">  1       -1 0.75916674E-01 0.70152834E+03</pdfrwt>
<totfact> 0.25121004E+01</totfact>
</mgrwt>
</event>
<event>
12    1  0.7781383E-008  0.4628886E+03  0.7818608E-02  0.1023947E+00
         -1   -1    0    0    0  501 -0.00000000000E+00  0.00000000000E+00  0.44024482063E+03  0.44024482063E+03  0.00000000000E+00 0.  1.
          1   -1    0    0  501    0  0.00000000000E+00 -0.00000000000E+00 -0.65618765190E+03  0.65618765190E+03  0.00000000000E+00 0. -1.
         23    2    1    2    0    0 -0.29630679375E+03  0.17289376767E+03  0.45100282723E+02  0.35759159648E+03  0.90264851661E+02 0.  0.
    5000000    2    1    2    0    0  0.29630679375E+03 -0.17289376767E+03 -0.26104311399E+03  0.73884087605E+03  0.60004363328E+03 0.  0.
         23    2    4    4    0    0 -0.10256041004E+03 -0.13475941962E+03  0.73822395081E+02  0.20901177161E+03  0.97762138746E+02 0.  0.
         23    2    4    4    0    0  0.39886720379E+03 -0.38134348049E+02 -0.33486550907E+03  0.52982910444E+03  0.89636465692E+02 0.  0.
          4    1    3    3  502    0 -0.19417198638E+03  0.14941024292E+03  0.58635903986E+02  0.25192131752E+03  0.00000000000E+00 0.  1.
         -4    1    3    3    0  502 -0.10213480737E+03  0.23483524748E+02 -0.13535621263E+02  0.10567027896E+03  0.00000000000E+00 0. -1.
         15    1    5    5    0    0 -0.30837833425E+02 -0.73372875917E+02 -0.13090059766E+02  0.80678735020E+02  0.17770000000E+01 0. -1.
        -15    1    5    5    0    0 -0.71722576616E+02 -0.61386543705E+02  0.86912454847E+02  0.12833303659E+03  0.17770000000E+01 0.  1.
          1    1    6    6  503    0  0.17059847105E+03 -0.54175492829E+00 -0.19667026675E+03  0.26035231062E+03  0.00000000000E+00 0. -1.
         -1    1    6    6    0  503  0.22826873274E+03 -0.37592593120E+02 -0.13819524233E+03  0.26947679382E+03  0.00000000000E+00 0.  1.
<mgrwt>
<rscale>  0 0.46288859E+03</rscale>
<asrwt>0</asrwt>
<pdfrwt beam="1">  1        1 0.10095195E+00 0.46288859E+03</pdfrwt>
<pdfrwt beam="2">  1       -1 0.67729973E-01 0.46288859E+03</pdfrwt>
<totfact> 0.69660626E+01</totfact>
</mgrwt>
</event>
<event>
12    1  0.8221078E-008  0.8417031E+03  0.7818608E-02  0.9501541E-01
         -2   -1    0    0    0  501 -0.00000000000E+00  0.00000000000E+00  0.34221969772E+03  0.34221969772E+03  0.00000000000E+00 0.  1.
          2   -1    0    0  501    0  0.00000000000E+00 -0.00000000000E+00 -0.24939128515E+04  0.24939128515E+04  0.00000000000E+00 0. -1.
         23    2    1    2    0    0 -0.76585786032E+03 -0.28698183779E+03 -0.11143777863E+04  0.13852910412E+04  0.91085568482E+02 0.  0.
    5000000    2    1    2    0    0  0.76585786032E+03  0.28698183779E+03 -0.10373153675E+04  0.14508415081E+04  0.60001756004E+03 0.  0.
         23    2    4    4    0    0  0.25282783272E+03  0.21317804048E+03 -0.80585861817E+03  0.87589188582E+03  0.91715283536E+02 0.  0.
         23    2    4    4    0    0  0.51303002760E+03  0.73803797301E+02 -0.23145674936E+03  0.57494962223E+03  0.91367562993E+02 0.  0.
          4    1    3    3  502    0 -0.42030801133E+03 -0.16595928725E+03 -0.53983493027E+03  0.70400501514E+03  0.00000000000E+00 0. -1.
         -4    1    3    3    0  502 -0.34554984900E+03 -0.12102255054E+03 -0.57454285602E+03  0.68128602605E+03  0.00000000000E+00 0.  1.
         15    1    5    5    0    0  0.99733364640E+02  0.14270614324E+03 -0.38508314741E+03  0.42261563564E+03  0.17770000000E+01 0.  1.
        -15    1    5    5    0    0  0.15309446808E+03  0.70471897242E+02 -0.42077547076E+03  0.45327625018E+03  0.17770000000E+01 0. -1.
          4    1    6    6  503    0  0.25685864968E+03  0.26842133834E+01 -0.14718674223E+03  0.29605321820E+03  0.00000000000E+00 0. -1.
         -4    1    6    6    0  503  0.25617137792E+03  0.71119583918E+02 -0.84270007122E+02  0.27889640403E+03  0.00000000000E+00 0.  1.
<mgrwt>
<rscale>  0 0.84170309E+03</rscale>
<asrwt>0</asrwt>
<pdfrwt beam="1">  1        2 0.38367890E+00 0.84170309E+03</pdfrwt>
<pdfrwt beam="2">  1       -2 0.52649184E-01 0.84170309E+03</pdfrwt>
<totfact> 0.12340730E+01</totfact>
</mgrwt>
</event>
<event>
12    1  0.7781383E-008  0.8039992E+03  0.7818608E-02  0.9554246E-01
         -1   -1    0    0    0  501 -0.00000000000E+00  0.00000000000E+00  0.87510452188E+03  0.87510452188E+03  0.00000000000E+00 0.  1.
          1   -1    0    0  501    0  0.00000000000E+00 -0.00000000000E+00 -0.93692498158E+03  0.93692498158E+03  0.00000000000E+00 0. -1.
         23    2    1    2    0    0  0.33193696163E+03  0.72510474408E+03  0.68302961243E+02  0.80568189195E+03  0.92189913320E+02 0.  0.
    5000000    2    1    2    0    0 -0.33193696163E+03 -0.72510474408E+03 -0.13012342094E+03  0.10063476115E+04  0.59987029777E+03 0.  0.
         23    2    4    4    0    0 -0.17264932850E+03 -0.33240911678E+03 -0.34982940041E+03  0.52061765378E+03  0.91424944573E+02 0.  0.
         23    2    4    4    0    0 -0.15928763313E+03 -0.39269562730E+03  0.21970597947E+03  0.48572995774E+03  0.89891427075E+02 0.  0.
          4    1    3    3  502    0  0.22972832905E+03  0.48835015164E+03  0.31132585945E+01  0.53969497696E+03  0.00000000000E+00 0. -1.
         -4    1    3    3    0  502  0.10220863257E+03  0.23675459243E+03  0.65189702648E+02  0.26598691498E+03  0.00000000000E+00 0.  1.
         15    1    5    5    0    0 -0.20025191228E+02 -0.35022418995E+00 -0.17955337347E+02  0.26957054901E+02  0.17770000000E+01 0. -1.
        -15    1    5    5    0    0 -0.15262413727E+03 -0.33205889259E+03 -0.33187406306E+03  0.49366059888E+03  0.17770000000E+01 0.  1.
          3    1    6    6  503    0 -0.25483989158E+02 -0.97349459173E+02  0.94831826296E+02  0.13827301321E+03  0.00000000000E+00 0. -1.
         -3    1    6    6    0  503 -0.13380364397E+03 -0.29534616813E+03  0.12487415317E+03  0.34745694452E+03  0.00000000000E+00 0.  1.
<mgrwt>
<rscale>  0 0.80399918E+03</rscale>
<asrwt>0</asrwt>
<pdfrwt beam="1">  1        1 0.14414231E+00 0.80399918E+03</pdfrwt>
<pdfrwt beam="2">  1       -1 0.13463146E+00 0.80399918E+03</pdfrwt>
<totfact> 0.80787895E+00</totfact>
</mgrwt>
</event>
<event>
12    1  0.7781383E-008  0.7117082E+03  0.7818608E-02  0.9697416E-01
         -2   -1    0    0    0  501 -0.00000000000E+00  0.00000000000E+00  0.90774434011E+03  0.90774434011E+03  0.00000000000E+00 0.  1.
          2   -1    0    0  501    0  0.00000000000E+00 -0.00000000000E+00 -0.69333198532E+03  0.69333198532E+03  0.00000000000E+00 0. -1.
         23    2    1    2    0    0 -0.18601142882E+03  0.62899557858E+03  0.25881003779E+03  0.71099232739E+03  0.91059125959E+02 0.  0.
    5000000    2    1    2    0    0  0.18601142882E+03 -0.62899557858E+03 -0.44397683001E+02  0.89008399803E+03  0.60003556542E+03 0.  0.
         23    2    4    4    0    0  0.56944038700E+01 -0.56428891802E+03  0.16195490169E+03  0.59403478245E+03  0.90518082970E+02 0.  0.
         23    2    4    4    0    0  0.18031702495E+03 -0.64706660565E+02 -0.20635258469E+03  0.29604921558E+03  0.91447074477E+02 0.  0.
          1    1    3    3  502    0 -0.14035034767E+03  0.41599445402E+03  0.12980823754E+03  0.45782069022E+03  0.00000000000E+00 0. -1.
         -1    1    3    3    0  502 -0.45661081149E+02  0.21300112457E+03  0.12900180025E+03  0.25317163717E+03  0.00000000000E+00 0.  1.
         15    1    5    5    0    0  0.22815046607E+02 -0.45526347737E+03  0.97268125928E+02  0.46610042505E+03  0.17770000000E+01 0.  1.
        -15    1    5    5    0    0 -0.17120642737E+02 -0.10902544065E+03  0.64686775763E+02  0.12793435740E+03  0.17770000000E+01 0. -1.
          4    1    6    6  503    0  0.14496384488E+03 -0.75392090046E+02 -0.12184972260E+03  0.20382796290E+03  0.00000000000E+00 0. -1.
         -4    1    6    6    0  503  0.35353180072E+02  0.10685429481E+02 -0.84502862092E+02  0.92221252681E+02  0.00000000000E+00 0.  1.
<mgrwt>
<rscale>  0 0.71170821E+03</rscale>
<asrwt>0</asrwt>
<pdfrwt beam="1">  1        2 0.10666646E+00 0.71170821E+03</pdfrwt>
<pdfrwt beam="2">  1       -2 0.13965297E+00 0.71170821E+03</pdfrwt>
<totfact> 0.15269259E+01</totfact>
</mgrwt>
</event>
<event>
12    1  0.7781383E-008  0.1243190E+04  0.7818608E-02  0.9075870E-01
         -1   -1    0    0    0  501 -0.00000000000E+00  0.00000000000E+00  0.12880222629E+04  0.12880222629E+04  0.00000000000E+00 0.  1.
          1   -1    0    0  501    0  0.00000000000E+00 -0.00000000000E+00 -0.14821266377E+04  0.14821266377E+04  0.00000000000E+00 0. -1.
         23    2    1    2    0    0 -0.50395648735E+03  0.11259945782E+04 -0.54876357944E+03  0.13532204417E+04  0.90709240903E+02 0.  0.
    5000000    2    1    2    0    0  0.50395648735E+03 -0.11259945782E+04  0.35465920466E+03  0.14169284590E+04  0.60005597664E+03 0.  0.
         23    2    4    4    0    0  0.40336218201E+03 -0.84068213665E+03  0.50860298993E+03  0.10660830708E+04  0.91698461285E+02 0.  0.
         23    2    4    4    0    0  0.10059430534E+03 -0.28531244154E+03 -0.15394378527E+03  0.35084538813E+03  0.88720875677E+02 0.  0.
          2    1    3    3  502    0 -0.12622940414E+03  0.37911347014E+03 -0.16095125269E+03  0.43077394473E+03  0.00000000000E+00 0. -1.
         -2    1    3    3    0  502 -0.37772708321E+03  0.74688110804E+03 -0.38781232675E+03  0.92244649694E+03  0.00000000000E+00 0.  1.
         15    1    5    5    0    0  0.22588239867E+03 -0.57116258684E+03  0.33021084220E+03  0.69734633911E+03  0.17770000000E+01 0. -1.
        -15    1    5    5    0    0  0.17747978334E+03 -0.26951954981E+03  0.17839214773E+03  0.36873673172E+03  0.17770000000E+01 0.  1.
          3    1    6    6  503    0  0.80013636324E+01 -0.14244979184E+03 -0.91583213540E+02  0.16953893363E+03  0.00000000000E+00 0. -1.
         -3    1    6    6    0  503  0.92592941712E+02 -0.14286264970E+03 -0.62360571729E+02  0.18130645449E+03  0.00000000000E+00 0.  1.
<mgrwt>
<rscale>  0 0.12431900E+04</rscale>
<asrwt>0</asrwt>
<pdfrwt beam="1">  1        1 0.22801948E+00 0.12431900E+04</pdfrwt>
<pdfrwt beam="2">  1       -1 0.19815727E+00 0.12431900E+04</pdfrwt>
<totfact> 0.10168569E+00</totfact>
</mgrwt>
</event>
<event>
12    1  0.7781383E-008  0.3484609E+03  0.7818608E-02  0.1063249E+00
          2   -1    0    0  501    0  0.00000000000E+00  0.00000000000E+00  0.60713536697E+03  0.60713536697E+03  0.00000000000E+00 0. -1.
         -2   -1    0    0    0  501 -0.00000000000E+00 -0.00000000000E+00 -0.43962194865E+03  0.43962194865E+03  0.00000000000E+00 0.  1.
         23    2    1    2    0    0  0.22166848304E+03 -0.22372036971E+03 -0.55422585844E+02  0.33330506830E+03  0.93983431186E+02 0.  0.
    5000000    2    1    2    0    0 -0.22166848304E+03  0.22372036971E+03  0.22293600416E+03  0.71345224733E+03  0.60010493005E+03 0.  0.
         23    2    4    4    0    0 -0.37748435519E+02  0.16704840238E+03  0.39460193019E+03  0.43965764258E+03  0.90873792946E+02 0.  0.
         23    2    4    4    0    0 -0.18392004752E+03  0.56671967325E+02 -0.17166592603E+03  0.27379460475E+03  0.91956509665E+02 0.  0.
          3    1    3    3  502    0  0.11115739353E+03 -0.15344033588E+03 -0.68982213686E+02  0.20163940244E+03  0.00000000000E+00 0. -1.
         -3    1    3    3    0  502  0.11051108951E+03 -0.70280033828E+02  0.13559627842E+02  0.13166566586E+03  0.00000000000E+00 0.  1.
         15    1    5    5    0    0 -0.34650556798E+02  0.52281826590E+02  0.23376761227E+03  0.24204236149E+03  0.17770000000E+01 0.  1.
        -15    1    5    5    0    0 -0.30978787217E+01  0.11476657579E+03  0.16083431792E+03  0.19761528110E+03  0.17770000000E+01 0. -1.
          3    1    6    6  503    0 -0.12531717123E+03  0.62471130031E+02 -0.16198140221E+03  0.21411447908E+03  0.00000000000E+00 0. -1.
         -3    1    6    6    0  503 -0.58602876289E+02 -0.57991627060E+01 -0.96845238202E+01  0.59680125663E+02  0.00000000000E+00 0.  1.
<mgrwt>
<rscale>  0 0.34846091E+03</rscale>
<asrwt>0</asrwt>
<pdfrwt beam="1">  1        2 0.93405441E-01 0.34846091E+03</pdfrwt>
<pdfrwt beam="2">  1       -2 0.67634146E-01 0.34846091E+03</pdfrwt>
<totfact> 0.10235076E+02</totfact>
</mgrwt>
</event>
<event>
12    1  0.7781383E-008  0.4104651E+03  0.7818608E-02  0.1040215E+00
         -1   -1    0    0    0  501 -0.00000000000E+00  0.00000000000E+00  0.19538520549E+03  0.19538520549E+03  0.00000000000E+00 0.  1.
          1   -1    0    0  501    0  0.00000000000E+00 -0.00000000000E+00 -0.17647932370E+04  0.17647932370E+04  0.00000000000E+00 0. -1.
         23    2    1    2    0    0  0.50715622563E+02 -0.31039579814E+03 -0.10693146163E+04  0.11182874656E+04  0.90639292178E+02 0.  0.
    5000000    2    1    2    0    0 -0.50715622563E+02  0.31039579814E+03 -0.50009341528E+03  0.84189097692E+03  0.59980777516E+03 0.  0.
         23    2    4    4    0    0 -0.18568335646E+03  0.25528171936E+03 -0.56557504497E+03  0.65418465548E+03  0.91844253330E+02 0.  0.
         23    2    4    4    0    0  0.13496773390E+03  0.55114078778E+02  0.65481629691E+02  0.18770632144E+03  0.98447795349E+02 0.  0.
          3    1    3    3  502    0 -0.11616352652E+02 -0.34170829644E+02 -0.60151753531E+02  0.70148547386E+02  0.00000000000E+00 0. -1.
         -3    1    3    3    0  502  0.62331975215E+02 -0.27622496850E+03 -0.10091628627E+04  0.10481389182E+04  0.00000000000E+00 0.  1.
         15    1    5    5    0    0 -0.17570504751E+03  0.17555316709E+03 -0.42570851523E+03  0.49287125689E+03  0.17770000000E+01 0.  1.
        -15    1    5    5    0    0 -0.99783089520E+01  0.79728552267E+02 -0.13986652974E+03  0.16131339859E+03  0.17770000000E+01 0. -1.
          1    1    6    6  503    0 -0.99850876930E+01  0.22098473178E+02 -0.22205347071E+01  0.24351083496E+02  0.00000000000E+00 0. -1.
         -1    1    6    6    0  503  0.14495282159E+03  0.33015605601E+02  0.67702164399E+02  0.16335523794E+03  0.00000000000E+00 0.  1.
<mgrwt>
<rscale>  0 0.41046515E+03</rscale>
<asrwt>0</asrwt>
<pdfrwt beam="1">  1        1 0.27150665E+00 0.41046515E+03</pdfrwt>
<pdfrwt beam="2">  1       -1 0.30059263E-01 0.41046515E+03</pdfrwt>
<totfact> 0.47607036E+01</totfact>
</mgrwt>
</event>
<event>
12    1  0.7781383E-008  0.9613903E+03  0.7818608E-02  0.9351935E-01
          1   -1    0    0  501    0  0.00000000000E+00  0.00000000000E+00  0.10390429839E+04  0.10390429839E+04  0.00000000000E+00 0. -1.
         -1   -1    0    0    0  501 -0.00000000000E+00 -0.00000000000E+00 -0.97196660914E+03  0.97196660914E+03  0.00000000000E+00 0.  1.
         23    2    1    2    0    0  0.49062642420E+03 -0.76016948366E+03 -0.91583892875E+02  0.91393241936E+03  0.91175247236E+02 0.  0.
    5000000    2    1    2    0    0 -0.49062642420E+03  0.76016948366E+03  0.15866026761E+03  0.10970771737E+04  0.59986107760E+03 0.  0.
         23    2    4    4    0    0 -0.11990592726E+02 -0.60224055154E+02 -0.49198906664E+02  0.12074806086E+03  0.91590669019E+02 0.  0.
         23    2    4    4    0    0 -0.47863583148E+03  0.82039353881E+03  0.20785917428E+03  0.97632911279E+03  0.88742788223E+02 0.  0.
          3    1    3    3  502    0  0.34783787909E+03 -0.51095824764E+03 -0.10223762397E+03  0.62651580404E+03  0.00000000000E+00 0. -1.
         -3    1    3    3    0  502  0.14278854512E+03 -0.24921123602E+03  0.10653731091E+02  0.28741661532E+03  0.00000000000E+00 0.  1.
         15    1    5    5    0    0 -0.14094903443E+02 -0.28646010341E+02  0.24656542768E+02  0.40377754294E+02  0.17770000000E+01 0. -1.
        -15    1    5    5    0    0  0.21043107171E+01 -0.31578044813E+02 -0.73855449431E+02  0.80370306566E+02  0.17770000000E+01 0.  1.
          2    1    6    6  503    0 -0.43645834245E+03  0.68747256374E+03  0.18405776705E+03  0.83486027107E+03  0.00000000000E+00 0.  1.
         -2    1    6    6    0  503 -0.42177489026E+02  0.13292097507E+03  0.23801407222E+02  0.14146884173E+03  0.00000000000E+00 0. -1.
<mgrwt>
<rscale>  0 0.96139031E+03</rscale>
<asrwt>0</asrwt>
<pdfrwt beam="1">  1        1 0.15985277E+00 0.96139031E+03</pdfrwt>
<pdfrwt beam="2">  1       -1 0.14953332E+00 0.96139031E+03</pdfrwt>
<totfact> 0.50008661E+00</totfact>
</mgrwt>
</event>
<event>
12    1  0.7781383E-008  0.1070266E+04  0.7818608E-02  0.9234667E-01
         -1   -1    0    0    0  501 -0.00000000000E+00  0.00000000000E+00  0.10331517570E+04  0.10331517570E+04  0.00000000000E+00 0.  1.
          1   -1    0    0  501    0  0.00000000000E+00 -0.00000000000E+00 -0.12521614455E+04  0.12521614455E+04  0.00000000000E+00 0. -1.
         23    2    1    2    0    0 -0.99692456145E+03  0.67147922728E+01 -0.45220187327E+03  0.10985519379E+04  0.91794097410E+02 0.  0.
    5000000    2    1    2    0    0  0.99692456145E+03 -0.67147922728E+01  0.23319218482E+03  0.11867612647E+04  0.60010002050E+03 0.  0.
         23    2    4    4    0    0  0.60511561522E+02 -0.17184050735E+03  0.84601633189E+02  0.22074189797E+03  0.91535458357E+02 0.  0.
         23    2    4    4    0    0  0.93641299993E+03  0.16512571507E+03  0.14859055163E+03  0.96601936670E+03  0.83537157013E+02 0.  0.
          2    1    3    3  502    0 -0.57516366733E+03 -0.12054919380E+02 -0.30715034973E+03  0.65215021478E+03  0.00000000000E+00 0. -1.
         -2    1    3    3    0  502 -0.42176089412E+03  0.18769711653E+02 -0.14505152354E+03  0.44640172307E+03  0.00000000000E+00 0.  1.
         15    1    5    5    0    0  0.51230656701E+02 -0.58754982729E+02  0.72755828159E+02  0.10664565833E+03  0.17770000000E+01 0. -1.
        -15    1    5    5    0    0  0.92809048210E+01 -0.11308552462E+03  0.11845805031E+02  0.11409623963E+03  0.17770000000E+01 0.  1.
          1    1    6    6  503    0  0.71077067113E+03  0.14166737347E+03  0.80758836030E+02  0.72923698565E+03  0.00000000000E+00 0. -1.
         -1    1    6    6    0  503  0.22564232879E+03  0.23458341606E+02  0.67831715600E+02  0.23678238105E+03  0.00000000000E+00 0.  1.
<mgrwt>
<rscale>  0 0.10702657E+04</rscale>
<asrwt>0</asrwt>
<pdfrwt beam="1">  1        1 0.19264022E+00 0.10702657E+04</pdfrwt>
<pdfrwt beam="2">  1       -1 0.15894642E+00 0.10702657E+04</pdfrwt>
<totfact> 0.29005816E+00</totfact>
</mgrwt>
</event>
<event>
12    1  0.7781383E-008  0.7688065E+03  0.7818608E-02  0.9606299E-01
          1   -1    0    0  501    0  0.00000000000E+00  0.00000000000E+00  0.71052793320E+03  0.71052793320E+03  0.00000000000E+00 0. -1.
         -1   -1    0    0    0  501 -0.00000000000E+00 -0.00000000000E+00 -0.15344545054E+04  0.15344545054E+04  0.00000000000E+00 0.  1.
         23    2    1    2    0    0 -0.62796571123E+03  0.18380735528E+03  0.37050971967E+03  0.75678441083E+03  0.85551819203E+02 0.  0.
    5000000    2    1    2    0    0  0.62796571123E+03 -0.18380735528E+03 -0.11944362919E+04  0.14881980277E+04  0.59994102722E+03 0.  0.
         23    2    4    4    0    0  0.60773847158E+03 -0.34213155253E+03 -0.91867250525E+03  0.11567433743E+04  0.87726923190E+02 0.  0.
         23    2    4    4    0    0  0.20227239654E+02  0.15832419724E+03 -0.27576378661E+03  0.33145465343E+03  0.91328137057E+02 0.  0.
          3    1    3    3  502    0 -0.22901338724E+03  0.39694738564E+02  0.16769637527E+03  0.28660927774E+03  0.00000000000E+00 0. -1.
         -3    1    3    3    0  502 -0.39895232399E+03  0.14411261672E+03  0.20281334440E+03  0.47017513310E+03  0.00000000000E+00 0.  1.
         15    1    5    5    0    0  0.22658511895E+03 -0.13930287868E+03 -0.41983251096E+03  0.49699960073E+03  0.17770000000E+01 0. -1.
        -15    1    5    5    0    0  0.38115335263E+03 -0.20282867384E+03 -0.49883999429E+03  0.65974377358E+03  0.17770000000E+01 0.  1.
          3    1    6    6  503    0 -0.32921183982E+02  0.95195991977E+02 -0.16525981630E+03  0.19353782092E+03  0.00000000000E+00 0. -1.
         -3    1    6    6    0  503  0.53148423636E+02  0.63128205268E+02 -0.11050397030E+03  0.13791683251E+03  0.00000000000E+00 0.  1.
<mgrwt>
<rscale>  0 0.76880653E+03</rscale>
<asrwt>0</asrwt>
<pdfrwt beam="1">  1        1 0.10931199E+00 0.76880653E+03</pdfrwt>
<pdfrwt beam="2">  1       -1 0.23606992E+00 0.76880653E+03</pdfrwt>
<totfact> 0.23842622E+00</totfact>
</mgrwt>
</event>
<event>
12    1  0.7781383E-008  0.1649474E+04  0.7818608E-02  0.8790718E-01
          2   -1    0    0  501    0  0.00000000000E+00  0.00000000000E+00  0.18911582852E+04  0.18911582852E+04  0.00000000000E+00 0. -1.
         -2   -1    0    0    0  501 -0.00000000000E+00 -0.00000000000E+00 -0.18915749954E+04  0.18915749954E+04  0.00000000000E+00 0.  1.
         23    2    1    2    0    0  0.12929214198E+04 -0.95809388554E+03 -0.89722794271E+03  0.18452486454E+04  0.10166066540E+03 0.  0.
    5000000    2    1    2    0    0 -0.12929214198E+04  0.95809388554E+03  0.89681123257E+03  0.19374846352E+04  0.59998886129E+03 0.  0.
         23    2    4    4    0    0 -0.30866527244E+03  0.51185347059E+03  0.49262616701E+03  0.78014734105E+03  0.93172461383E+02 0.  0.
         23    2    4    4    0    0 -0.98425614734E+03  0.44624041495E+03  0.40418506556E+03  0.11573372942E+04  0.90406713089E+02 0.  0.
          2    1    3    3  502    0  0.41830308353E+03 -0.35534967963E+03 -0.26986703497E+03  0.61162004632E+03  0.00000000000E+00 0. -1.
         -2    1    3    3    0  502  0.87461833625E+03 -0.60274420591E+03 -0.62736090774E+03  0.12336285991E+04  0.00000000000E+00 0.  1.
         15    1    5    5    0    0 -0.49322504361E+02  0.15266340180E+03  0.10757899960E+03  0.19317148487E+03  0.17770000000E+01 0. -1.
        -15    1    5    5    0    0 -0.25934276808E+03  0.35919006880E+03  0.38504716742E+03  0.58697585618E+03  0.17770000000E+01 0.  1.
          3    1    6    6  503    0 -0.37804749950E+03  0.12390534657E+03  0.14279605462E+03  0.42268565152E+03  0.00000000000E+00 0. -1.
         -3    1    6    6    0  503 -0.60620864783E+03  0.32233506838E+03  0.26138901093E+03  0.73465164265E+03  0.00000000000E+00 0.  1.
<mgrwt>
<rscale>  0 0.16494738E+04</rscale>
<asrwt>0</asrwt>
<pdfrwt beam="1">  1        2 0.29094743E+00 0.16494738E+04</pdfrwt>
<pdfrwt beam="2">  1       -2 0.29101154E+00 0.16494738E+04</pdfrwt>
<totfact> 0.25567706E-01</totfact>
</mgrwt>
</event>
<event>
12    1  0.7781383E-008  0.7861011E+03  0.7818608E-02  0.9580356E-01
         -1   -1    0    0    0  501 -0.00000000000E+00  0.00000000000E+00  0.71023086991E+03  0.71023086991E+03  0.00000000000E+00 0.  1.
          1   -1    0    0  501    0  0.00000000000E+00 -0.00000000000E+00 -0.10397208002E+04  0.10397208002E+04  0.00000000000E+00 0. -1.
         23    2    1    2    0    0 -0.33765620185E+02 -0.73448936132E+03  0.12187530651E+02  0.74124815859E+03  0.93196339560E+02 0.  0.
    5000000    2    1    2    0    0  0.33765620185E+02  0.73448936132E+03 -0.34167746092E+03  0.10087035115E+04  0.60010378085E+03 0.  0.
         23    2    4    4    0    0  0.17937424307E+03  0.56578979234E+03 -0.12156701240E+02  0.60067526603E+03  0.91486510694E+02 0.  0.
         23    2    4    4    0    0 -0.14560862288E+03  0.16869956899E+03 -0.32952075968E+03  0.40802824547E+03  0.90783822364E+02 0.  0.
          1    1    3    3  502    0 -0.52969710140E+02 -0.48663407831E+03  0.39786667350E+02  0.49112268861E+03  0.00000000000E+00 0. -1.
         -1    1    3    3    0  502  0.19204089955E+02 -0.24785528301E+03 -0.27599136698E+02  0.25012546998E+03  0.00000000000E+00 0.  1.
         15    1    5    5    0    0  0.16226912156E+03  0.43345894538E+03 -0.39276558316E+02  0.46450374692E+03  0.17770000000E+01 0. -1.
        -15    1    5    5    0    0  0.17105121513E+02  0.13233084695E+03  0.27119857076E+02  0.13617151910E+03  0.17770000000E+01 0.  1.
          4    1    6    6  503    0 -0.50864913677E+02  0.12201086843E+03 -0.15179139112E+03  0.20128218470E+03  0.00000000000E+00 0. -1.
         -4    1    6    6    0  503 -0.94743709207E+02  0.46688700555E+02 -0.17772936856E+03  0.20674606077E+03  0.00000000000E+00 0.  1.
<mgrwt>
<rscale>  0 0.78610111E+03</rscale>
<asrwt>0</asrwt>
<pdfrwt beam="1">  1        1 0.15995705E+00 0.78610111E+03</pdfrwt>
<pdfrwt beam="2">  1       -1 0.10926629E+00 0.78610111E+03</pdfrwt>
<totfact> 0.11227445E+01</totfact>
</mgrwt>
</event>
<event>
12    1  0.7781383E-008  0.9702451E+03  0.7818608E-02  0.9341795E-01
         -2   -1    0    0    0  501 -0.00000000000E+00  0.00000000000E+00  0.82478944438E+03  0.82478944438E+03  0.00000000000E+00 0.  1.
          2   -1    0    0  501    0  0.00000000000E+00 -0.00000000000E+00 -0.12027701628E+04  0.12027701628E+04  0.00000000000E+00 0. -1.
         23    2    1    2    0    0 -0.89972516071E+03 -0.52101989876E+02 -0.11244241141E+03  0.91273076690E+03  0.90632084895E+02 0.  0.
    5000000    2    1    2    0    0  0.89972516071E+03  0.52101989876E+02 -0.26553830697E+03  0.11148288402E+04  0.60009396630E+03 0.  0.
         23    2    4    4    0    0  0.94008884775E+03  0.12429879376E+03 -0.17702907744E+03  0.96899229352E+03  0.91594425816E+02 0.  0.
         23    2    4    4    0    0 -0.40363687046E+02 -0.72196803880E+02 -0.88509229539E+02  0.14583654671E+03  0.81196113956E+02 0.  0.
          2    1    3    3  502    0 -0.17237353142E+03  0.17740387510E+02  0.95610238158E+00  0.17328666947E+03  0.00000000000E+00 0. -1.
         -2    1    3    3    0  502 -0.72735162929E+03 -0.69842377386E+02 -0.11339851379E+03  0.73944409744E+03  0.00000000000E+00 0.  1.
         15    1    5    5    0    0  0.77617128489E+03  0.67911892272E+02 -0.13729330165E+03  0.79114252635E+03  0.17770000000E+01 0.  1.
        -15    1    5    5    0    0  0.16391756287E+03  0.56386901484E+02 -0.39735775782E+02  0.17784976717E+03  0.17770000000E+01 0. -1.
          1    1    6    6  503    0 -0.41661928754E+02 -0.69701453004E+02 -0.10295192053E+03  0.13112248777E+03  0.00000000000E+00 0. -1.
         -1    1    6    6    0  503  0.12982417076E+01 -0.24953508757E+01  0.14442690991E+02  0.14714058944E+02  0.00000000000E+00 0.  1.
<mgrwt>
<rscale>  0 0.97024511E+03</rscale>
<asrwt>0</asrwt>
<pdfrwt beam="1">  1        2 0.18504156E+00 0.97024511E+03</pdfrwt>
<pdfrwt beam="2">  1       -2 0.12689068E+00 0.97024511E+03</pdfrwt>
<totfact> 0.86697208E+00</totfact>
</mgrwt>
</event>
<event>
12    1  0.7781383E-008  0.2103856E+04  0.7818608E-02  0.8559547E-01
         -2   -1    0    0    0  501 -0.00000000000E+00  0.00000000000E+00  0.13841725378E+04  0.13841725378E+04  0.00000000000E+00 0. -1.
          2   -1    0    0  501    0  0.00000000000E+00 -0.00000000000E+00 -0.34399632027E+04  0.34399632027E+04  0.00000000000E+00 0.  1.
         23    2    1    2    0    0  0.19527552500E+04 -0.66429205086E+03 -0.37908440744E+03  0.20990862620E+04  0.89000854283E+02 0.  0.
    5000000    2    1    2    0    0 -0.19527552500E+04  0.66429205086E+03 -0.16767062575E+04  0.27250494785E+04  0.60001149248E+03 0.  0.
         23    2    4    4    0    0 -0.17058281041E+04  0.36408290515E+03 -0.14084211423E+04  0.22437209152E+04  0.90705835870E+02 0.  0.
         23    2    4    4    0    0 -0.24692714590E+03  0.30020914571E+03 -0.26828511519E+03  0.48132856330E+03  0.92745545800E+02 0.  0.
          3    1    3    3  502    0  0.14500181412E+02 -0.12465622120E+02 -0.81815197781E+01  0.20798660094E+02  0.00000000000E+00 0. -1.
         -3    1    3    3    0  502  0.19382550686E+04 -0.65182642874E+03 -0.37090288767E+03  0.20782876019E+04  0.00000000000E+00 0.  1.
         15    1    5    5    0    0 -0.33653251830E+03  0.65600714024E+02 -0.23234417382E+03  0.41417938432E+03  0.17770000000E+01 0. -1.
        -15    1    5    5    0    0 -0.13692955858E+04  0.29848219113E+03 -0.11760769685E+04  0.18295415309E+04  0.17770000000E+01 0.  1.
          4    1    6    6  503    0 -0.36282068938E+02  0.10892174433E+03 -0.85376390219E+02  0.14307153079E+03  0.00000000000E+00 0. -1.
         -4    1    6    6    0  503 -0.21064507696E+03  0.19128740137E+03 -0.18290872497E+03  0.33825703251E+03  0.00000000000E+00 0.  1.
<mgrwt>
<rscale>  0 0.21038558E+04</rscale>
<asrwt>0</asrwt>
<pdfrwt beam="1">  1        2 0.52922510E+00 0.21038558E+04</pdfrwt>
<pdfrwt beam="2">  1       -2 0.21294962E+00 0.21038558E+04</pdfrwt>
<totfact> 0.86635199E-02</totfact>
</mgrwt>
</event>
<event>
12    1  0.7781383E-008  0.7841342E+03  0.7818608E-02  0.9583270E-01
         -1   -1    0    0    0  501 -0.00000000000E+00  0.00000000000E+00  0.63987356998E+03  0.63987356998E+03  0.00000000000E+00 0.  1.
          1   -1    0    0  501    0  0.00000000000E+00 -0.00000000000E+00 -0.98177243128E+03  0.98177243128E+03  0.00000000000E+00 0. -1.
         23    2    1    2    0    0 -0.21440728561E+03  0.63993636790E+03 -0.11780759397E+03  0.69121390721E+03  0.91700584778E+02 0.  0.
    5000000    2    1    2    0    0  0.21440728561E+03 -0.63993636790E+03 -0.22409126733E+03  0.93043209405E+03  0.59999828871E+03 0.  0.
         23    2    4    4    0    0 -0.18495024044E+03 -0.31968431545E+03 -0.57023356342E+02  0.38441731911E+03  0.90113035000E+02 0.  0.
         23    2    4    4    0    0  0.39935752605E+03 -0.32025205245E+03 -0.16706791099E+03  0.54601477494E+03  0.90402637463E+02 0.  0.
          1    1    3    3  502    0 -0.18447931769E+03  0.54734820574E+03 -0.67088584279E+02  0.58148392508E+03  0.00000000000E+00 0. -1.
         -1    1    3    3    0  502 -0.29927967919E+02  0.92588162153E+02 -0.50719009694E+02  0.10972998213E+03  0.00000000000E+00 0.  1.
         15    1    5    5    0    0 -0.11377322657E+03 -0.11844285336E+03 -0.32202336590E+01  0.16427593929E+03  0.17770000000E+01 0.  1.
        -15    1    5    5    0    0 -0.71177013872E+02 -0.20124146209E+03 -0.53803122683E+02  0.22014137981E+03  0.17770000000E+01 0. -1.
          1    1    6    6  503    0  0.10968285669E+03 -0.12509950589E+03 -0.22056791110E+02  0.16782942966E+03  0.00000000000E+00 0. -1.
         -1    1    6    6    0  503  0.28967466936E+03 -0.19515254656E+03 -0.14501111988E+03  0.37818534528E+03  0.00000000000E+00 0.  1.
<mgrwt>
<rscale>  0 0.78413416E+03</rscale>
<asrwt>0</asrwt>
<pdfrwt beam="1">  1        1 0.15104191E+00 0.78413416E+03</pdfrwt>
<pdfrwt beam="2">  1       -1 0.98442088E-01 0.78413416E+03</pdfrwt>
<totfact> 0.15847879E+01</totfact>
</mgrwt>
</event>
<event>
12    1  0.7781383E-008  0.7878994E+03  0.7818608E-02  0.9577699E-01
          2   -1    0    0  501    0  0.00000000000E+00  0.00000000000E+00  0.10395507972E+04  0.10395507972E+04  0.00000000000E+00 0. -1.
         -2   -1    0    0    0  501 -0.00000000000E+00 -0.00000000000E+00 -0.66258235014E+03  0.66258235014E+03  0.00000000000E+00 0.  1.
         23    2    1    2    0    0  0.56827799006E+03 -0.42613192445E+03  0.27360632147E+03  0.76657679781E+03  0.90836538689E+02 0.  0.
    5000000    2    1    2    0    0 -0.56827799006E+03  0.42613192445E+03  0.10336212559E+03  0.93555634954E+03  0.60004471761E+03 0.  0.
         23    2    4    4    0    0 -0.47511063971E+03  0.67744834607E+02 -0.10722799523E+03  0.49995084992E+03  0.90186067623E+02 0.  0.
         23    2    4    4    0    0 -0.93167350356E+02  0.35838708985E+03  0.21059012082E+03  0.43560549962E+03  0.91008191772E+02 0.  0.
          3    1    3    3  502    0  0.16626896308E+03 -0.14259417148E+03  0.42795308543E+02  0.22318132596E+03  0.00000000000E+00 0. -1.
         -3    1    3    3    0  502  0.40200902698E+03 -0.28353775297E+03  0.23081101293E+03  0.54339547185E+03  0.00000000000E+00 0.  1.
         15    1    5    5    0    0 -0.12231432599E+02 -0.11807276911E+02 -0.11566593621E+02  0.20638884380E+02  0.17770000000E+01 0. -1.
        -15    1    5    5    0    0 -0.46287920711E+03  0.79552111517E+02 -0.95661401612E+02  0.47931196554E+03  0.17770000000E+01 0.  1.
          1    1    6    6  503    0 -0.45766006194E+02  0.57651302164E+02  0.64723666049E+02  0.98017105195E+02  0.00000000000E+00 0. -1.
         -1    1    6    6    0  503 -0.47401344162E+02  0.30073578768E+03  0.14586645477E+03  0.33758839442E+03  0.00000000000E+00 0.  1.
<mgrwt>
<rscale>  0 0.78789942E+03</rscale>
<asrwt>0</asrwt>
<pdfrwt beam="1">  1        2 0.15993089E+00 0.78789942E+03</pdfrwt>
<pdfrwt beam="2">  1       -2 0.10193575E+00 0.78789942E+03</pdfrwt>
<totfact> 0.18999143E+01</totfact>
</mgrwt>
</event>
<event>
12    1  0.7781383E-008  0.4836356E+03  0.7818608E-02  0.1018141E+00
          2   -1    0    0  501    0  0.00000000000E+00  0.00000000000E+00  0.23846641863E+04  0.23846641863E+04  0.00000000000E+00 0.  1.
         -2   -1    0    0    0  501 -0.00000000000E+00 -0.00000000000E+00 -0.14181465503E+03  0.14181465503E+03  0.00000000000E+00 0. -1.
         23    2    1    2    0    0 -0.28718776160E+03  0.10581927155E+03  0.20227735616E+03  0.37763318449E+03  0.89533036198E+02 0.  0.
    5000000    2    1    2    0    0  0.28718776160E+03 -0.10581927155E+03  0.20405721751E+04  0.21488456569E+04  0.59994026908E+03 0.  0.
         23    2    4    4    0    0 -0.14204302017E+03 -0.15777137371E+03  0.64818203646E+03  0.68806331395E+03  0.90681561886E+02 0.  0.
         23    2    4    4    0    0  0.42923078177E+03  0.51952102158E+02  0.13923901387E+04  0.14607823429E+04  0.90535463619E+02 0.  0.
          3    1    3    3  502    0 -0.16192861348E+03  0.89661842277E+02  0.79342306919E+02  0.20138352339E+03  0.00000000000E+00 0. -1.
         -3    1    3    3    0  502 -0.12525914811E+03  0.16157429278E+02  0.12293504924E+03  0.17624966110E+03  0.00000000000E+00 0.  1.
         15    1    5    5    0    0 -0.95755987931E+02 -0.14340123919E+03  0.40651058390E+03  0.44157347880E+03  0.17770000000E+01 0. -1.
        -15    1    5    5    0    0 -0.46287032243E+02 -0.14370134523E+02  0.24167145256E+03  0.24648983515E+03  0.17770000000E+01 0.  1.
          1    1    6    6  503    0  0.11331610066E+03  0.34879314474E+02  0.27507114896E+03  0.29953504342E+03  0.00000000000E+00 0. -1.
         -1    1    6    6    0  503  0.31591468112E+03  0.17072787684E+02  0.11173189897E+04  0.11612472995E+04  0.00000000000E+00 0.  1.
<mgrwt>
<rscale>  0 0.48363562E+03</rscale>
<asrwt>0</asrwt>
<pdfrwt beam="1">  1        2 0.36687138E+00 0.48363562E+03</pdfrwt>
<pdfrwt beam="2">  1       -2 0.21817641E-01 0.48363562E+03</pdfrwt>
<totfact> 0.80045522E+01</totfact>
</mgrwt>
</event>
<event>
12    1  0.7781383E-008  0.1808102E+04  0.7818608E-02  0.8702003E-01
         -2   -1    0    0    0  501 -0.00000000000E+00  0.00000000000E+00  0.11020586595E+04  0.11020586595E+04  0.00000000000E+00 0.  1.
          2   -1    0    0  501    0  0.00000000000E+00 -0.00000000000E+00 -0.37683873728E+04  0.37683873728E+04  0.00000000000E+00 0. -1.
         23    2    1    2    0    0 -0.16422437342E+04 -0.72427296974E+03 -0.23392099431E+04  0.29498952974E+04  0.91887379979E+02 0.  0.
    5000000    2    1    2    0    0  0.16422437342E+04  0.72427296974E+03 -0.32711877021E+03  0.19205507348E+04  0.59997718110E+03 0.  0.
         23    2    4    4    0    0  0.11203601694E+04  0.34584140117E+03 -0.44728316844E+03  0.12582575879E+04  0.91305753711E+02 0.  0.
         23    2    4    4    0    0  0.52188356480E+03  0.37843156857E+03  0.12016439823E+03  0.66229314693E+03  0.92842999617E+02 0.  0.
          3    1    3    3  502    0 -0.37360312872E+03 -0.20745306150E+03 -0.55315620075E+03  0.69899774888E+03  0.00000000000E+00 0. -1.
         -3    1    3    3    0  502 -0.12686406055E+04 -0.51681990824E+03 -0.17860537424E+04  0.22508975486E+04  0.00000000000E+00 0.  1.
         15    1    5    5    0    0  0.79212500970E+03  0.23509770710E+03 -0.27113249809E+03  0.86962575406E+03  0.17770000000E+01 0. -1.
        -15    1    5    5    0    0  0.32823515975E+03  0.11074369408E+03 -0.17615067035E+03  0.38863183383E+03  0.17770000000E+01 0.  1.
          1    1    6    6  503    0  0.23198246240E+03  0.19666697139E+03  0.15708086547E+02  0.30453325677E+03  0.00000000000E+00 0. -1.
         -1    1    6    6    0  503  0.28990110239E+03  0.18176459718E+03  0.10445631168E+03  0.35775989016E+03  0.00000000000E+00 0.  1.
<mgrwt>
<rscale>  0 0.18081023E+04</rscale>
<asrwt>0</asrwt>
<pdfrwt beam="1">  1        2 0.57975190E+00 0.18081023E+04</pdfrwt>
<pdfrwt beam="2">  1       -2 0.16954749E+00 0.18081023E+04</pdfrwt>
<totfact> 0.10236421E-01</totfact>
</mgrwt>
</event>
<event>
12    1  0.7781383E-008  0.8357975E+03  0.7818608E-02  0.9509600E-01
          1   -1    0    0  501    0  0.00000000000E+00  0.00000000000E+00  0.13608227935E+04  0.13608227935E+04  0.00000000000E+00 0. -1.
         -1   -1    0    0    0  501 -0.00000000000E+00 -0.00000000000E+00 -0.52496176343E+03  0.52496176343E+03  0.00000000000E+00 0.  1.
         23    2    1    2    0    0 -0.51940212715E+03  0.52015411730E+03  0.39393272357E+03  0.83908416269E+03  0.92414100329E+02 0.  0.
    5000000    2    1    2    0    0  0.51940212715E+03 -0.52015411730E+03  0.44192830647E+03  0.10467003942E+04  0.59995184120E+03 0.  0.
         23    2    4    4    0    0  0.30831384069E+03 -0.61123074112E+03  0.25246963150E+03  0.73546773411E+03  0.92257410690E+02 0.  0.
         23    2    4    4    0    0  0.21108828646E+03  0.91076623823E+02  0.18945867497E+03  0.31123266011E+03  0.90099739784E+02 0.  0.
          1    1    3    3  502    0 -0.37215554286E+03  0.42791162147E+03  0.30290652014E+03  0.64293115013E+03  0.00000000000E+00 0. -1.
         -1    1    3    3    0  502 -0.14724658429E+03  0.92242495831E+02  0.91026203429E+02  0.19615301255E+03  0.00000000000E+00 0.  1.
         15    1    5    5    0    0  0.17504397589E+03 -0.30279677951E+03  0.84483239740E+02  0.35981503401E+03  0.17770000000E+01 0. -1.
        -15    1    5    5    0    0  0.13326986479E+03 -0.30843396161E+03  0.16798639176E+03  0.37565270009E+03  0.17770000000E+01 0.  1.
          4    1    6    6  503    0  0.93371039331E+02  0.86334416827E+02  0.78823764002E+02  0.14961606961E+03  0.00000000000E+00 0.  1.
         -4    1    6    6    0  503  0.11771724713E+03  0.47422069964E+01  0.11063491097E+03  0.16161659050E+03  0.00000000000E+00 0. -1.
<mgrwt>
<rscale>  0 0.83579750E+03</rscale>
<asrwt>0</asrwt>
<pdfrwt beam="1">  1        1 0.20935735E+00 0.83579750E+03</pdfrwt>
<pdfrwt beam="2">  1       -1 0.80763349E-01 0.83579750E+03</pdfrwt>
<totfact> 0.12810894E+01</totfact>
</mgrwt>
</event>
<event>
12    1  0.7781383E-008  0.7101029E+03  0.7818608E-02  0.9700109E-01
         -1   -1    0    0    0  501 -0.00000000000E+00  0.00000000000E+00  0.27685456889E+03  0.27685456889E+03  0.00000000000E+00 0.  1.
          1   -1    0    0  501    0  0.00000000000E+00 -0.00000000000E+00 -0.19961429520E+04  0.19961429520E+04  0.00000000000E+00 0. -1.
         23    2    1    2    0    0  0.49912799448E+03 -0.35383591997E+03 -0.86213004282E+03  0.10611460338E+04  0.91837253307E+02 0.  0.
    5000000    2    1    2    0    0 -0.49912799448E+03  0.35383591997E+03 -0.85715834028E+03  0.12118514871E+04  0.59961236931E+03 0.  0.
         23    2    4    4    0    0 -0.95395015548E+02 -0.13644216863E+03 -0.86156646384E+02  0.20849956770E+03  0.91282132119E+02 0.  0.
         23    2    4    4    0    0 -0.40373297893E+03  0.49027808860E+03 -0.77100169390E+03  0.10033519194E+04  0.94332071952E+02 0.  0.
          1    1    3    3  502    0  0.28266209718E+03 -0.15000513242E+03 -0.41181529965E+03  0.52152779597E+03  0.00000000000E+00 0. -1.
         -1    1    3    3    0  502  0.21646589729E+03 -0.20383078755E+03 -0.45031474317E+03  0.53961823779E+03  0.00000000000E+00 0.  1.
         15    1    5    5    0    0 -0.13159058248E+02 -0.11603584625E+02  0.18844952119E+02  0.25808795778E+02  0.17770000000E+01 0. -1.
        -15    1    5    5    0    0 -0.82235957300E+02 -0.12483858401E+03 -0.10500159850E+03  0.18269077193E+03  0.17770000000E+01 0.  1.
          2    1    6    6  503    0 -0.61193454745E+02  0.91069014345E+02 -0.84478721268E+02  0.13847331376E+03  0.00000000000E+00 0. -1.
         -2    1    6    6    0  503 -0.34253952418E+03  0.39920907425E+03 -0.68652297263E+03  0.86487860567E+03  0.00000000000E+00 0.  1.
<mgrwt>
<rscale>  0 0.71010295E+03</rscale>
<asrwt>0</asrwt>
<pdfrwt beam="1">  1        1 0.30709891E+00 0.71010295E+03</pdfrwt>
<pdfrwt beam="2">  1       -1 0.42593011E-01 0.71010295E+03</pdfrwt>
<totfact> 0.17049374E+01</totfact>
</mgrwt>
</event>
<event>
12    1  0.7781383E-008  0.1263947E+04  0.7818608E-02  0.9058655E-01
         -3   -1    0    0    0  501 -0.00000000000E+00  0.00000000000E+00  0.37329231012E+04  0.37329231012E+04  0.00000000000E+00 0.  1.
          3   -1    0    0  501    0  0.00000000000E+00 -0.00000000000E+00 -0.84242777890E+03  0.84242777890E+03  0.00000000000E+00 0. -1.
         23    2    1    2    0    0  0.17589656377E+03  0.12452258728E+04  0.29211021231E+04  0.31816135382E+04  0.91104429824E+02 0.  0.
    5000000    2    1    2    0    0 -0.17589656377E+03 -0.12452258728E+04 -0.30606800838E+02  0.13937373419E+04  0.60003327120E+03 0.  0.
         23    2    4    4    0    0  0.21482628764E+01 -0.48789098516E+03  0.25784724930E+03  0.55928095978E+03  0.90927221273E+02 0.  0.
         23    2    4    4    0    0 -0.17804482665E+03 -0.75733488764E+03 -0.28845405014E+03  0.83445638213E+03  0.88631948583E+02 0.  0.
          1    1    3    3  502    0  0.49175360011E+02  0.28713092181E+03  0.77511224711E+03  0.82804672447E+03  0.00000000000E+00 0. -1.
         -1    1    3    3    0  502  0.12672120376E+03  0.95809495099E+03  0.21459898760E+04  0.23535668137E+04  0.00000000000E+00 0.  1.
         15    1    5    5    0    0 -0.14614438511E+02 -0.33108456612E+03  0.12901330865E+03  0.35563768539E+03  0.17770000000E+01 0.  1.
        -15    1    5    5    0    0  0.16762701388E+02 -0.15680641904E+03  0.12883394065E+03  0.20364327439E+03  0.17770000000E+01 0. -1.
          3    1    6    6  503    0 -0.90138456257E+02 -0.24199340465E+03 -0.67619125726E+02  0.26694211985E+03  0.00000000000E+00 0. -1.
         -3    1    6    6    0  503 -0.87906370388E+02 -0.51534148299E+03 -0.22083492441E+03  0.56751426228E+03  0.00000000000E+00 0.  1.
<mgrwt>
<rscale>  0 0.12639465E+04</rscale>
<asrwt>0</asrwt>
<pdfrwt beam="1">  1        3 0.12960428E+00 0.12639465E+04</pdfrwt>
<pdfrwt beam="2">  1       -3 0.57429585E+00 0.12639465E+04</pdfrwt>
<totfact> 0.14524634E-03</totfact>
</mgrwt>
</event>
<event>
12    1  0.7781383E-008  0.6201820E+03  0.7818608E-02  0.9864397E-01
          1   -1    0    0  501    0  0.00000000000E+00  0.00000000000E+00  0.36663520970E+04  0.36663520970E+04  0.00000000000E+00 0. -1.
         -1   -1    0    0    0  501 -0.00000000000E+00 -0.00000000000E+00 -0.11909816622E+03  0.11909816622E+03  0.00000000000E+00 0.  1.
         23    2    1    2    0    0 -0.35863801894E+03  0.35951093422E+03  0.11030703718E+04  0.12179931086E+04  0.94199930396E+02 0.  0.
    5000000    2    1    2    0    0  0.35863801894E+03 -0.35951093422E+03  0.24441835590E+04  0.25674571547E+04  0.59994468961E+03 0.  0.
         23    2    4    4    0    0  0.14811968652E+03 -0.46040120216E+03  0.11830725910E+04  0.12815962507E+04  0.94443029243E+02 0.  0.
         23    2    4    4    0    0  0.21051833242E+03  0.10089026794E+03  0.12611109680E+04  0.12858609040E+04  0.92415238482E+02 0.  0.
          4    1    3    3  502    0 -0.10686608821E+03  0.17197828895E+03  0.44126865261E+03  0.48550480580E+03  0.00000000000E+00 0. -1.
         -4    1    3    3    0  502 -0.25177193073E+03  0.18753264527E+03  0.66180171919E+03  0.73248830275E+03  0.00000000000E+00 0.  1.
         15    1    5    5    0    0  0.73910769743E+02 -0.28157289959E+03  0.81963862030E+03  0.86980269331E+03  0.17770000000E+01 0.  1.
        -15    1    5    5    0    0  0.74208916773E+02 -0.17882830257E+03  0.36343397066E+03  0.41179355737E+03  0.17770000000E+01 0. -1.
          3    1    6    6  503    0  0.62625058731E+02  0.57659151837E+02  0.65334908620E+03  0.65887138670E+03  0.00000000000E+00 0. -1.
         -3    1    6    6    0  503  0.14789327369E+03  0.43231116101E+02  0.60776188183E+03  0.62698951730E+03  0.00000000000E+00 0.  1.
<mgrwt>
<rscale>  0 0.62018202E+03</rscale>
<asrwt>0</asrwt>
<pdfrwt beam="1">  1        1 0.56405408E+00 0.62018202E+03</pdfrwt>
<pdfrwt beam="2">  1       -1 0.18322798E-01 0.62018202E+03</pdfrwt>
<totfact> 0.48449452E+00</totfact>
</mgrwt>
</event>
<event>
12    1  0.7781383E-008  0.1329841E+04  0.7818608E-02  0.9006230E-01
          2   -1    0    0  501    0  0.00000000000E+00  0.00000000000E+00  0.19198735124E+04  0.19198735124E+04  0.00000000000E+00 0. -1.
         -2   -1    0    0    0  501 -0.00000000000E+00 -0.00000000000E+00 -0.98392828345E+03  0.98392828345E+03  0.00000000000E+00 0.  1.
         23    2    1    2    0    0  0.11496163244E+04  0.60423589496E+03  0.28825235413E+03  0.13334006733E+04  0.90273062481E+02 0.  0.
    5000000    2    1    2    0    0 -0.11496163244E+04 -0.60423589496E+03  0.64769287486E+03  0.15704011226E+04  0.59994576054E+03 0.  0.
         23    2    4    4    0    0 -0.94321839950E+03 -0.31465917373E+03  0.25079423818E+03  0.10295283613E+04  0.91430585668E+02 0.  0.
         23    2    4    4    0    0 -0.20639792490E+03 -0.28957672124E+03  0.39689863668E+03  0.54087276131E+03  0.92520458520E+02 0.  0.
          4    1    3    3  502    0  0.19233848733E+03  0.13756499670E+03  0.65650782064E+02  0.24541443970E+03  0.00000000000E+00 0.  1.
         -4    1    3    3    0  502  0.95727783706E+03  0.46667089827E+03  0.22260157207E+03  0.10879862336E+04  0.00000000000E+00 0. -1.
         15    1    5    5    0    0 -0.54579445163E+03 -0.13448725898E+03  0.14521604172E+03  0.58057666398E+03  0.17770000000E+01 0. -1.
        -15    1    5    5    0    0 -0.39742394787E+03 -0.18017191475E+03  0.10557819646E+03  0.44895169729E+03  0.17770000000E+01 0.  1.
          3    1    6    6  503    0 -0.12770266479E+03 -0.13222219331E+03  0.14761030791E+03  0.23575301059E+03  0.00000000000E+00 0. -1.
         -3    1    6    6    0  503 -0.78695260105E+02 -0.15735452793E+03  0.24928832877E+03  0.30511975073E+03  0.00000000000E+00 0.  1.
<mgrwt>
<rscale>  0 0.13298413E+04</rscale>
<asrwt>0</asrwt>
<pdfrwt beam="1">  1        2 0.29536515E+00 0.13298413E+04</pdfrwt>
<pdfrwt beam="2">  1       -2 0.15137358E+00 0.13298413E+04</pdfrwt>
<totfact> 0.20777386E+00</totfact>
</mgrwt>
</event>
<event>
12    1  0.7781383E-008  0.1834657E+04  0.7818608E-02  0.8688083E-01
          1   -1    0    0  501    0  0.00000000000E+00  0.00000000000E+00  0.20649583720E+04  0.20649583720E+04  0.00000000000E+00 0. -1.
         -1   -1    0    0    0  501 -0.00000000000E+00 -0.00000000000E+00 -0.27518573920E+04  0.27518573920E+04  0.00000000000E+00 0.  1.
         23    2    1    2    0    0 -0.23595757805E+03 -0.17764830667E+04 -0.18664009146E+04  0.25891053068E+04  0.91901308491E+02 0.  0.
    5000000    2    1    2    0    0  0.23595757805E+03  0.17764830667E+04  0.11795018946E+04  0.22277104573E+04  0.59991757519E+03 0.  0.
         23    2    4    4    0    0  0.88553963266E+02  0.16916627721E+04  0.10509040880E+04  0.19957077844E+04  0.94262503846E+02 0.  0.
         23    2    4    4    0    0  0.14740361479E+03  0.84820294582E+02  0.12859780660E+03  0.23200267282E+03  0.91463305803E+02 0.  0.
          4    1    3    3  502    0 -0.11915497309E+03 -0.98142665844E+03 -0.96534271205E+03  0.13817679781E+04  0.00000000000E+00 0. -1.
         -4    1    3    3    0  502 -0.11680260497E+03 -0.79505640827E+03 -0.90105820255E+03  0.12073373287E+04  0.00000000000E+00 0.  1.
         15    1    5    5    0    0  0.45842153746E+02  0.25924594073E+03  0.15029716689E+03  0.30315401522E+03  0.17770000000E+01 0. -1.
        -15    1    5    5    0    0  0.42711809519E+02  0.14324168314E+04  0.90060692114E+03  0.16925537692E+04  0.17770000000E+01 0.  1.
          3    1    6    6  503    0  0.84346569917E+02  0.82007476773E+02  0.12043509645E+03  0.16835730623E+03  0.00000000000E+00 0. -1.
         -3    1    6    6    0  503  0.63057044870E+02  0.28128178082E+01  0.81627101512E+01  0.63645366593E+02  0.00000000000E+00 0.  1.
<mgrwt>
<rscale>  0 0.18346569E+04</rscale>
<asrwt>0</asrwt>
<pdfrwt beam="1">  1        1 0.31768591E+00 0.18346569E+04</pdfrwt>
<pdfrwt beam="2">  1       -1 0.42336267E+00 0.18346569E+04</pdfrwt>
<totfact> 0.12005580E-02</totfact>
</mgrwt>
</event>
<event>
12    1  0.7781383E-008  0.4760908E+03  0.7818608E-02  0.1020215E+00
         -1   -1    0    0    0  501 -0.00000000000E+00  0.00000000000E+00  0.13852518998E+03  0.13852518998E+03  0.00000000000E+00 0.  1.
          1   -1    0    0  501    0  0.00000000000E+00 -0.00000000000E+00 -0.19591877061E+04  0.19591877061E+04  0.00000000000E+00 0. -1.
         23    2    1    2    0    0  0.17709414196E+03 -0.25826895273E+03 -0.34884369361E+03  0.47766739136E+03  0.91700747770E+02 0.  0.
    5000000    2    1    2    0    0 -0.17709414196E+03  0.25826895273E+03 -0.14718188225E+04  0.16200455047E+04  0.60019297232E+03 0.  0.
         23    2    4    4    0    0  0.17971409178E+03  0.33993232592E+02 -0.24682262164E+03  0.32179758722E+03  0.95810155724E+02 0.  0.
         23    2    4    4    0    0 -0.35680823374E+03  0.22427572013E+03 -0.12249962009E+04  0.12982479175E+04  0.84972047407E+02 0.  0.
          2    1    3    3  502    0  0.18556755365E+03 -0.24563324582E+03 -0.31443765568E+03  0.44004777892E+03  0.00000000000E+00 0.  1.
         -2    1    3    3    0  502 -0.84734116909E+01 -0.12635706908E+02 -0.34406037924E+02  0.37619612443E+02  0.00000000000E+00 0. -1.
         15    1    5    5    0    0  0.44492717002E+02 -0.27593910341E+02 -0.10005863657E+03  0.11294208355E+03  0.17770000000E+01 0.  1.
        -15    1    5    5    0    0  0.13522137478E+03  0.61587142933E+02 -0.14676398506E+03  0.20885550367E+03  0.17770000000E+01 0. -1.
          2    1    6    6  503    0 -0.22485482332E+03  0.18290145523E+03 -0.77225187682E+03  0.82485489339E+03  0.00000000000E+00 0. -1.
         -2    1    6    6    0  503 -0.13195341042E+03  0.41374264905E+02 -0.45274432403E+03  0.47339302410E+03  0.00000000000E+00 0.  1.
<mgrwt>
<rscale>  0 0.47609078E+03</rscale>
<asrwt>0</asrwt>
<pdfrwt beam="1">  1        1 0.30141350E+00 0.47609078E+03</pdfrwt>
<pdfrwt beam="2">  1       -1 0.21311567E-01 0.47609078E+03</pdfrwt>
<totfact> 0.62580577E+01</totfact>
</mgrwt>
</event>
<event>
12    1  0.7781383E-008  0.1090031E+04  0.7818608E-02  0.9214963E-01
          1   -1    0    0  501    0  0.00000000000E+00  0.00000000000E+00  0.29000223100E+04  0.29000223100E+04  0.00000000000E+00 0. -1.
         -1   -1    0    0    0  501 -0.00000000000E+00 -0.00000000000E+00 -0.46775983609E+03  0.46775983609E+03  0.00000000000E+00 0.  1.
         23    2    1    2    0    0 -0.94777807967E+03 -0.52296240228E+03  0.10265149047E+04  0.14948013471E+04  0.94473568871E+02 0.  0.
    5000000    2    1    2    0    0  0.94777807967E+03  0.52296240228E+03  0.14057475693E+04  0.18729807990E+04  0.60013155435E+03 0.  0.
         23    2    4    4    0    0  0.71625891338E+03  0.38087477652E+03  0.13547199399E+04  0.15816106221E+04  0.90186573566E+02 0.  0.
         23    2    4    4    0    0  0.23151916630E+03  0.14208762576E+03  0.51027629327E+02  0.29137017688E+03  0.92210320807E+02 0.  0.
          4    1    3    3  502    0 -0.32883796921E+03 -0.22175335167E+03  0.41516522056E+03  0.57416993942E+03  0.00000000000E+00 0. -1.
         -4    1    3    3    0  502 -0.61894011046E+03 -0.30120905061E+03  0.61134968412E+03  0.92063140766E+03  0.00000000000E+00 0.  1.
         15    1    5    5    0    0  0.33212348879E+03  0.22686385966E+03  0.68282381325E+03  0.79248011981E+03  0.17770000000E+01 0. -1.
        -15    1    5    5    0    0  0.38413542459E+03  0.15401091686E+03  0.67189612668E+03  0.78913050233E+03  0.17770000000E+01 0.  1.
          1    1    6    6  503    0  0.20838621397E+03  0.14744789457E+03  0.65521665195E+02  0.26355034508E+03  0.00000000000E+00 0. -1.
         -1    1    6    6    0  503  0.23132952329E+02 -0.53602688139E+01 -0.14494035868E+02  0.27819831792E+02  0.00000000000E+00 0.  1.
<mgrwt>
<rscale>  0 0.10900311E+04</rscale>
<asrwt>0</asrwt>
<pdfrwt beam="1">  1        1 0.44615727E+00 0.10900311E+04</pdfrwt>
<pdfrwt beam="2">  1       -1 0.71963054E-01 0.10900311E+04</pdfrwt>
<totfact> 0.13937500E+00</totfact>
</mgrwt>
</event>
<event>
12    1  0.7781383E-008  0.5605621E+03  0.7818608E-02  0.9990784E-01
         -2   -1    0    0    0  501 -0.00000000000E+00  0.00000000000E+00  0.22883103512E+03  0.22883103512E+03  0.00000000000E+00 0.  1.
          2   -1    0    0  501    0  0.00000000000E+00 -0.00000000000E+00 -0.25886909149E+04  0.25886909149E+04  0.00000000000E+00 0. -1.
         23    2    1    2    0    0  0.45689841974E+03 -0.12608875044E+03 -0.18157255533E+04  0.18790173100E+04  0.95876103902E+02 0.  0.
    5000000    2    1    2    0    0 -0.45689841974E+03  0.12608875044E+03 -0.54413432652E+03  0.93850464009E+03  0.60004521098E+03 0.  0.
         23    2    4    4    0    0 -0.11747989760E+03  0.23123969909E+03  0.79542337149E+01  0.27548200998E+03  0.92486448803E+02 0.  0.
         23    2    4    4    0    0 -0.33941852214E+03 -0.10515094865E+03 -0.55208856023E+03  0.66302263011E+03  0.92388173099E+02 0.  0.
          1    1    3    3  502    0  0.24444418590E+03 -0.21875798111E+02 -0.99869319875E+03  0.10284063476E+04  0.00000000000E+00 0. -1.
         -1    1    3    3    0  502  0.21245423384E+03 -0.10421295233E+03 -0.81703235456E+03  0.85061096237E+03  0.00000000000E+00 0.  1.
         15    1    5    5    0    0 -0.76275284282E+02  0.55447657363E+02  0.10500429698E+02  0.94898780035E+02  0.17770000000E+01 0.  1.
        -15    1    5    5    0    0 -0.41204613314E+02  0.17579204173E+03 -0.25461959834E+01  0.18058322994E+03  0.17770000000E+01 0. -1.
          4    1    6    6  503    0 -0.10023856443E+03 -0.70406314186E+02 -0.14739385705E+03  0.19165011863E+03  0.00000000000E+00 0. -1.
         -4    1    6    6    0  503 -0.23917995772E+03 -0.34744634463E+02 -0.40469470318E+03  0.47137251148E+03  0.00000000000E+00 0.  1.
<mgrwt>
<rscale>  0 0.56056206E+03</rscale>
<asrwt>0</asrwt>
<pdfrwt beam="1">  1        2 0.39826017E+00 0.56056206E+03</pdfrwt>
<pdfrwt beam="2">  1       -2 0.35204772E-01 0.56056206E+03</pdfrwt>
<totfact> 0.25330089E+01</totfact>
</mgrwt>
</event>
<event>
12    1  0.7781383E-008  0.6855670E+03  0.7818608E-02  0.9742238E-01
         -2   -1    0    0    0  501 -0.00000000000E+00  0.00000000000E+00  0.21139860502E+03  0.21139860502E+03  0.00000000000E+00 0. -1.
          2   -1    0    0  501    0  0.00000000000E+00 -0.00000000000E+00 -0.23993636828E+04  0.23993636828E+04  0.00000000000E+00 0.  1.
         23    2    1    2    0    0  0.24657928219E+03 -0.52236847318E+03 -0.78102159333E+03  0.97577416366E+03  0.92034368801E+02 0.  0.
    5000000    2    1    2    0    0 -0.24657928219E+03  0.52236847318E+03 -0.14069434844E+04  0.16349881241E+04  0.60002169420E+03 0.  0.
         23    2    4    4    0    0  0.11702909139E+03 -0.34156010605E+02 -0.18785341428E+03  0.24337697096E+03  0.95294299131E+02 0.  0.
         23    2    4    4    0    0 -0.36360837358E+03  0.55652448378E+03 -0.12190900702E+04  0.13916111532E+04  0.92035059102E+02 0.  0.
          1    1    3    3  502    0  0.13817948091E+03 -0.32054453798E+03 -0.39720286207E+03  0.52878396667E+03  0.00000000000E+00 0. -1.
         -1    1    3    3    0  502  0.10839980129E+03 -0.20182393520E+03 -0.38381873126E+03  0.44699019698E+03  0.00000000000E+00 0.  1.
         15    1    5    5    0    0  0.36472177845E+02 -0.59076582221E+01  0.42644212339E-01  0.36990265340E+02  0.17770000000E+01 0. -1.
        -15    1    5    5    0    0  0.80556913545E+02 -0.28248352383E+02 -0.18789605849E+03  0.20638670562E+03  0.17770000000E+01 0.  1.
          3    1    6    6  503    0 -0.11026230762E+03  0.24790436878E+03 -0.46673250283E+03  0.53986441052E+03  0.00000000000E+00 0. -1.
         -3    1    6    6    0  503 -0.25334606596E+03  0.30862011500E+03 -0.75235756733E+03  0.85174674266E+03  0.00000000000E+00 0.  1.
<mgrwt>
<rscale>  0 0.68556703E+03</rscale>
<asrwt>0</asrwt>
<pdfrwt beam="1">  1        2 0.36913285E+00 0.68556703E+03</pdfrwt>
<pdfrwt beam="2">  1       -2 0.32522864E-01 0.68556703E+03</pdfrwt>
<totfact> 0.36790034E+01</totfact>
</mgrwt>
</event>
<event>
12    1  0.7781383E-008  0.5486812E+03  0.7818608E-02  0.1001800E+00
          1   -1    0    0  501    0  0.00000000000E+00  0.00000000000E+00  0.13446404597E+04  0.13446404597E+04  0.00000000000E+00 0. -1.
         -1   -1    0    0    0  501 -0.00000000000E+00 -0.00000000000E+00 -0.26801273049E+03  0.26801273049E+03  0.00000000000E+00 0.  1.
         23    2    1    2    0    0  0.28286611661E+03  0.26797979992E+03  0.11915844240E+03  0.41747284068E+03  0.90875878112E+02 0.  0.
    5000000    2    1    2    0    0 -0.28286611661E+03 -0.26797979992E+03  0.95746928677E+03  0.11951803495E+04  0.59990184159E+03 0.  0.
         23    2    4    4    0    0  0.16274027668E+03  0.58172715344E+01  0.25685471590E+03  0.31621771590E+03  0.86608662768E+02 0.  0.
         23    2    4    4    0    0 -0.44560639329E+03 -0.27379707145E+03  0.70061457087E+03  0.87896263356E+03  0.90469001321E+02 0.  0.
          1    1    3    3  502    0  0.85537958252E+02  0.13287413483E+03  0.72285623098E+02  0.17377424814E+03  0.00000000000E+00 0. -1.
         -1    1    3    3    0  502  0.19732815836E+03  0.13510566509E+03  0.46872819302E+02  0.24369859254E+03  0.00000000000E+00 0.  1.
         15    1    5    5    0    0  0.69557526418E+02  0.35567895667E+02  0.68265142622E+02  0.10376228655E+03  0.17770000000E+01 0.  1.
        -15    1    5    5    0    0  0.93182750267E+02 -0.29750624133E+02  0.18858957327E+03  0.21245542935E+03  0.17770000000E+01 0. -1.
          4    1    6    6  503    0 -0.59657098938E+02 -0.23024534902E+02  0.13777616303E+03  0.15189262576E+03  0.00000000000E+00 0.  1.
         -4    1    6    6    0  503 -0.38594929435E+03 -0.25077253655E+03  0.56283840784E+03  0.72707000780E+03  0.00000000000E+00 0. -1.
<mgrwt>
<rscale>  0 0.54868119E+03</rscale>
<asrwt>0</asrwt>
<pdfrwt beam="1">  1        1 0.20686776E+00 0.54868119E+03</pdfrwt>
<pdfrwt beam="2">  1       -1 0.41232729E-01 0.54868119E+03</pdfrwt>
<totfact> 0.50974260E+01</totfact>
</mgrwt>
</event>
<event>
12    1  0.7781383E-008  0.1208877E+04  0.7818608E-02  0.9105121E-01
         -1   -1    0    0    0  501 -0.00000000000E+00  0.00000000000E+00  0.31087628222E+04  0.31087628222E+04  0.00000000000E+00 0.  1.
          1   -1    0    0  501    0  0.00000000000E+00 -0.00000000000E+00 -0.63415357809E+03  0.63415357809E+03  0.00000000000E+00 0. -1.
         23    2    1    2    0    0  0.11439756505E+04  0.13748434078E+03  0.20897385954E+04  0.23880401415E+04  0.90255679107E+02 0.  0.
    5000000    2    1    2    0    0 -0.11439756505E+04 -0.13748434078E+03  0.38487064876E+03  0.13548762588E+04  0.59998502284E+03 0.  0.
         23    2    4    4    0    0 -0.91098055669E+03 -0.30709720380E+03  0.41556936854E+03  0.10512452063E+04  0.90688016591E+02 0.  0.
         23    2    4    4    0    0 -0.23299509376E+03  0.16961286302E+03 -0.30698719788E+02  0.30363105256E+03  0.90521641957E+02 0.  0.
          4    1    3    3  502    0  0.53477673020E+03  0.33965893252E+02  0.90161154322E+03  0.10488294465E+04  0.00000000000E+00 0. -1.
         -4    1    3    3    0  502  0.60919892025E+03  0.10351844753E+03  0.11881270522E+04  0.13392106950E+04  0.00000000000E+00 0.  1.
         15    1    5    5    0    0 -0.24764681198E+03 -0.11681456426E+03  0.14657388341E+03  0.31058275376E+03  0.17770000000E+01 0.  1.
        -15    1    5    5    0    0 -0.66333374471E+03 -0.19028263954E+03  0.26899548513E+03  0.74066245249E+03  0.17770000000E+01 0. -1.
          4    1    6    6  503    0 -0.97154832309E+01  0.41530268364E+02  0.78029817536E+01  0.43359431835E+02  0.00000000000E+00 0. -1.
         -4    1    6    6    0  503 -0.22327961053E+03  0.12808259466E+03 -0.38501701541E+02  0.26027162072E+03  0.00000000000E+00 0.  1.
<mgrwt>
<rscale>  0 0.12088774E+04</rscale>
<asrwt>0</asrwt>
<pdfrwt beam="1">  1        1 0.97562091E-01 0.12088774E+04</pdfrwt>
<pdfrwt beam="2">  1       -1 0.47827119E+00 0.12088774E+04</pdfrwt>
<totfact> 0.64930877E-02</totfact>
</mgrwt>
</event>
<event>
12    1  0.7781383E-008  0.8518206E+03  0.7818608E-02  0.9487897E-01
         -1   -1    0    0    0  501 -0.00000000000E+00  0.00000000000E+00  0.13739632775E+04  0.13739632775E+04  0.00000000000E+00 0.  1.
          1   -1    0    0  501    0  0.00000000000E+00 -0.00000000000E+00 -0.54729201739E+03  0.54729201739E+03  0.00000000000E+00 0. -1.
         23    2    1    2    0    0 -0.58633889186E+03  0.46575724699E+03  0.21833908587E+03  0.78513278337E+03  0.89657246638E+02 0.  0.
    5000000    2    1    2    0    0  0.58633889186E+03 -0.46575724699E+03  0.60833217425E+03  0.11361225115E+04  0.59998601462E+03 0.  0.
         23    2    4    4    0    0 -0.41047767310E+02 -0.26964239446E+03  0.11581780861E+03  0.30995481243E+03  0.90919089663E+02 0.  0.
         23    2    4    4    0    0  0.62738665917E+03 -0.19611485253E+03  0.49251436565E+03  0.82616769910E+03  0.88924750111E+02 0.  0.
          4    1    3    3  502    0 -0.57066499707E+03  0.46719112996E+03  0.20793533045E+03  0.76626574531E+03  0.00000000000E+00 0. -1.
         -4    1    3    3    0  502 -0.15673894790E+02 -0.14338829667E+01  0.10403755420E+02  0.18867038058E+02  0.00000000000E+00 0.  1.
         15    1    5    5    0    0  0.28936985376E+02 -0.81262278551E+02  0.40831127707E+02  0.95452845724E+02  0.17770000000E+01 0.  1.
        -15    1    5    5    0    0 -0.69984752686E+02 -0.18838011591E+03  0.74986680899E+02  0.21450196671E+03  0.17770000000E+01 0. -1.
          4    1    6    6  503    0  0.53174291159E+03 -0.13163938538E+03  0.39966648569E+03  0.67809494291E+03  0.00000000000E+00 0. -1.
         -4    1    6    6    0  503  0.95643747577E+02 -0.64475467144E+02  0.92847879956E+02  0.14807275619E+03  0.00000000000E+00 0.  1.
<mgrwt>
<rscale>  0 0.85182062E+03</rscale>
<asrwt>0</asrwt>
<pdfrwt beam="1">  1        1 0.84198773E-01 0.85182062E+03</pdfrwt>
<pdfrwt beam="2">  1       -1 0.21137896E+00 0.85182062E+03</pdfrwt>
<totfact> 0.50251517E+00</totfact>
</mgrwt>
</event>
<event>
12    1  0.7781383E-008  0.3618270E+03  0.7818608E-02  0.1057863E+00
          1   -1    0    0  501    0  0.00000000000E+00  0.00000000000E+00  0.62762142973E+03  0.62762142973E+03  0.00000000000E+00 0. -1.
         -1   -1    0    0    0  501 -0.00000000000E+00 -0.00000000000E+00 -0.30015909786E+03  0.30015909786E+03  0.00000000000E+00 0.  1.
         23    2    1    2    0    0  0.18612104928E+03 -0.12927922460E+02 -0.21287960639E+02  0.20923368090E+03  0.92289651597E+02 0.  0.
    5000000    2    1    2    0    0 -0.18612104928E+03  0.12927922460E+02  0.34875029250E+03  0.71854684669E+03  0.59989551441E+03 0.  0.
         23    2    4    4    0    0  0.16307940255E+03  0.53244471410E+02 -0.27986501084E+02  0.19522091045E+03  0.88871223476E+02 0.  0.
         23    2    4    4    0    0 -0.34920045183E+03 -0.40316548949E+02  0.37673679359E+03  0.52332593624E+03  0.91504339929E+02 0.  0.
          1    1    3    3  502    0  0.11061822665E+03  0.73688851449E+01  0.31073821295E+02  0.11513589755E+03  0.00000000000E+00 0. -1.
         -1    1    3    3    0  502  0.75502822626E+02 -0.20296807605E+02 -0.52361781934E+02  0.94097783347E+02  0.00000000000E+00 0.  1.
         15    1    5    5    0    0  0.56371826866E+02  0.41833220144E+02  0.26247775925E+02  0.74966023250E+02  0.17770000000E+01 0. -1.
        -15    1    5    5    0    0  0.10670757568E+03  0.11411251265E+02 -0.54234277009E+02  0.12025488720E+03  0.17770000000E+01 0.  1.
          3    1    6    6  503    0 -0.83446053293E+01 -0.12549823983E+02  0.42666325290E+02  0.45249815843E+02  0.00000000000E+00 0. -1.
         -3    1    6    6    0  503 -0.34085584650E+03 -0.27766724966E+02  0.33407046830E+03  0.47807612040E+03  0.00000000000E+00 0.  1.
<mgrwt>
<rscale>  0 0.36182702E+03</rscale>
<asrwt>0</asrwt>
<pdfrwt beam="1">  1        1 0.96557143E-01 0.36182702E+03</pdfrwt>
<pdfrwt beam="2">  1       -1 0.46178323E-01 0.36182702E+03</pdfrwt>
<totfact> 0.15690733E+02</totfact>
</mgrwt>
</event>
<event>
12    1  0.7781383E-008  0.5293987E+03  0.7818608E-02  0.1006378E+00
         -2   -1    0    0    0  501 -0.00000000000E+00  0.00000000000E+00  0.20219465449E+03  0.20219465449E+03  0.00000000000E+00 0. -1.
          2   -1    0    0  501    0  0.00000000000E+00 -0.00000000000E+00 -0.15595107648E+04  0.15595107648E+04  0.00000000000E+00 0.  1.
         23    2    1    2    0    0  0.63133791283E+02  0.36217739282E+03 -0.26462163382E+03  0.46200785003E+03  0.90930220139E+02 0.  0.
    5000000    2    1    2    0    0 -0.63133791283E+02 -0.36217739282E+03 -0.10926944764E+04  0.12996975692E+04  0.60006184108E+03 0.  0.
         23    2    4    4    0    0  0.20857976956E+03 -0.34248147044E+03 -0.71998633829E+03  0.82907961367E+03  0.90518509796E+02 0.  0.
         23    2    4    4    0    0 -0.27171356084E+03 -0.19695922377E+02 -0.37270813815E+03  0.47061795555E+03  0.91398661581E+02 0.  0.
          4    1    3    3  502    0  0.75832400955E+02  0.18903839494E+03 -0.16278352991E+03  0.26073846169E+03  0.00000000000E+00 0. -1.
         -4    1    3    3    0  502 -0.12698609672E+02  0.17313899788E+03 -0.10183810391E+03  0.20126938834E+03  0.00000000000E+00 0.  1.
         15    1    5    5    0    0  0.19767100101E+03 -0.31929044411E+03 -0.61159178550E+03  0.71768229890E+03  0.17770000000E+01 0.  1.
        -15    1    5    5    0    0  0.10908768546E+02 -0.23191026330E+02 -0.10839455279E+03  0.11139731477E+03  0.17770000000E+01 0. -1.
          4    1    6    6  503    0 -0.89264795815E+02  0.24499660679E+02 -0.17506678471E+03  0.19803236163E+03  0.00000000000E+00 0. -1.
         -4    1    6    6    0  503 -0.18244876502E+03 -0.44195583056E+02 -0.19764135344E+03  0.27258559391E+03  0.00000000000E+00 0.  1.
<mgrwt>
<rscale>  0 0.52939872E+03</rscale>
<asrwt>0</asrwt>
<pdfrwt beam="1">  1        2 0.23992473E+00 0.52939872E+03</pdfrwt>
<pdfrwt beam="2">  1       -2 0.31106870E-01 0.52939872E+03</pdfrwt>
<totfact> 0.11732289E+02</totfact>
</mgrwt>
</event>
<event>
12    1  0.7781383E-008  0.5481069E+03  0.7818608E-02  0.1001933E+00
         -1   -1    0    0    0  501 -0.00000000000E+00  0.00000000000E+00  0.26128204960E+03  0.26128204960E+03  0.00000000000E+00 0.  1.
          1   -1    0    0  501    0  0.00000000000E+00 -0.00000000000E+00 -0.17522257196E+04  0.17522257196E+04  0.00000000000E+00 0. -1.
         23    2    1    2    0    0 -0.34187766421E+03 -0.31634419421E+03 -0.19371722876E+03  0.51046880290E+03  0.78089996259E+02 0.  0.
    5000000    2    1    2    0    0  0.34187766421E+03  0.31634419421E+03 -0.12972264412E+04  0.15030389663E+04  0.59947953079E+03 0.  0.
         23    2    4    4    0    0  0.21534558604E+02 -0.89946172388E+02 -0.43995844034E+02  0.14418765697E+03  0.10149086160E+03 0.  0.
         23    2    4    4    0    0  0.32034310561E+03  0.40629036660E+03 -0.12532305972E+04  0.13588513093E+04  0.90544926879E+02 0.  0.
          3    1    3    3  502    0 -0.20276724799E+03 -0.19924076076E+03 -0.77440552117E+02  0.29463278283E+03  0.00000000000E+00 0. -1.
         -3    1    3    3    0  502 -0.13911041622E+03 -0.11710343345E+03 -0.11627667665E+03  0.21583602007E+03  0.00000000000E+00 0.  1.
         15    1    5    5    0    0  0.40332526843E+02 -0.71312813041E+02  0.11429797138E+02  0.82740727680E+02  0.17770000000E+01 0.  1.
        -15    1    5    5    0    0 -0.18797968239E+02 -0.18633359347E+02 -0.55425641172E+02  0.61446929287E+02  0.17770000000E+01 0. -1.
          3    1    6    6  503    0  0.10593204649E+03  0.18709579159E+03 -0.59652898765E+03  0.63409247497E+03  0.00000000000E+00 0. -1.
         -3    1    6    6    0  503  0.21441105912E+03  0.21919457501E+03 -0.65670160951E+03  0.72475883432E+03  0.00000000000E+00 0.  1.
<mgrwt>
<rscale>  0 0.54810694E+03</rscale>
<asrwt>0</asrwt>
<pdfrwt beam="1">  1        1 0.26957318E+00 0.54810694E+03</pdfrwt>
<pdfrwt beam="2">  1       -1 0.40197239E-01 0.54810694E+03</pdfrwt>
<totfact> 0.28287818E+01</totfact>
</mgrwt>
</event>
<event>
12    1  0.7781383E-008  0.5881269E+03  0.7818608E-02  0.9930350E-01
          2   -1    0    0  501    0  0.00000000000E+00  0.00000000000E+00  0.82773394564E+03  0.82773394564E+03  0.00000000000E+00 0. -1.
         -2   -1    0    0    0  501 -0.00000000000E+00 -0.00000000000E+00 -0.62249709671E+03  0.62249709671E+03  0.00000000000E+00 0.  1.
         23    2    1    2    0    0 -0.47854965313E+03 -0.23337793690E+03  0.33774186958E+03  0.63713998358E+03  0.91666549391E+02 0.  0.
    5000000    2    1    2    0    0  0.47854965313E+03  0.23337793690E+03 -0.13250502064E+03  0.81309105876E+03  0.60007037704E+03 0.  0.
         23    2    4    4    0    0  0.28885104305E+03 -0.50675704554E+02  0.16690712467E+03  0.34953848872E+03  0.91193282241E+02 0.  0.
         23    2    4    4    0    0  0.18969861008E+03  0.28405364145E+03 -0.29941214532E+03  0.46355257005E+03  0.92527393485E+02 0.  0.
          4    1    3    3  502    0 -0.35440921406E+03 -0.20735113007E+03  0.22950676992E+03  0.47039742728E+03  0.00000000000E+00 0. -1.
         -4    1    3    3    0  502 -0.12414043906E+03 -0.26026806831E+02  0.10823509966E+03  0.16674255630E+03  0.00000000000E+00 0.  1.
         15    1    5    5    0    0  0.20162597930E+03 -0.57605722978E+02  0.15595874024E+03  0.26133836541E+03  0.17770000000E+01 0.  1.
        -15    1    5    5    0    0  0.87225063742E+02  0.69300184237E+01  0.10948384436E+02  0.88200123305E+02  0.17770000000E+01 0. -1.
          4    1    6    6  503    0  0.39931611096E+02  0.61950616588E+02 -0.12105553440E+03  0.14172810190E+03  0.00000000000E+00 0. -1.
         -4    1    6    6    0  503  0.14976699898E+03  0.22210302486E+03 -0.17835661092E+03  0.32182446815E+03  0.00000000000E+00 0.  1.
<mgrwt>
<rscale>  0 0.58812686E+03</rscale>
<asrwt>0</asrwt>
<pdfrwt beam="1">  1        2 0.12734369E+00 0.58812686E+03</pdfrwt>
<pdfrwt beam="2">  1       -2 0.95768783E-01 0.58812686E+03</pdfrwt>
<totfact> 0.31031606E+01</totfact>
</mgrwt>
</event>
<event>
12    1  0.7781383E-008  0.1082505E+04  0.7818608E-02  0.9222413E-01
          2   -1    0    0  501    0  0.00000000000E+00  0.00000000000E+00  0.21669431062E+04  0.21669431062E+04  0.00000000000E+00 0.  1.
         -2   -1    0    0    0  501 -0.00000000000E+00 -0.00000000000E+00 -0.55711478134E+03  0.55711478134E+03  0.00000000000E+00 0. -1.
         23    2    1    2    0    0 -0.10040371548E+04 -0.37601611429E+02  0.57224867217E+03  0.11600458927E+04  0.93452880073E+02 0.  0.
    5000000    2    1    2    0    0  0.10040371548E+04  0.37601611429E+02  0.10375796527E+04  0.15640119949E+04  0.60004791060E+03 0.  0.
         23    2    4    4    0    0  0.36785738625E+03 -0.25830234039E+03  0.47428925630E+03  0.65969468073E+03  0.90595902088E+02 0.  0.
         23    2    4    4    0    0  0.63617976858E+03  0.29590395182E+03  0.56329039637E+03  0.90431731414E+03  0.90608428799E+02 0.  0.
          1    1    3    3  502    0 -0.62450958891E+03 -0.65697798496E+02  0.33757046015E+03  0.71293915795E+03  0.00000000000E+00 0. -1.
         -1    1    3    3    0  502 -0.37952756592E+03  0.28096187067E+02  0.23467821202E+03  0.44710673470E+03  0.00000000000E+00 0.  1.
         15    1    5    5    0    0  0.83478884387E+02 -0.54717929000E+02  0.16479825021E+03  0.19267692362E+03  0.17770000000E+01 0. -1.
        -15    1    5    5    0    0  0.28437850186E+03 -0.20358441139E+03  0.30949100609E+03  0.46701775712E+03  0.17770000000E+01 0.  1.
          4    1    6    6  503    0  0.21837545569E+03  0.57257544720E+02  0.19653601843E+03  0.29932035116E+03  0.00000000000E+00 0. -1.
         -4    1    6    6    0  503  0.41780431289E+03  0.23864640709E+03  0.36675437794E+03  0.60499696299E+03  0.00000000000E+00 0.  1.
<mgrwt>
<rscale>  0 0.10825050E+04</rscale>
<asrwt>0</asrwt>
<pdfrwt beam="1">  1        2 0.33337586E+00 0.10825050E+04</pdfrwt>
<pdfrwt beam="2">  1       -2 0.85709968E-01 0.10825050E+04</pdfrwt>
<totfact> 0.63364117E+00</totfact>
</mgrwt>
</event>
<event>
12    1  0.7781383E-008  0.5932117E+03  0.7818608E-02  0.9919591E-01
          1   -1    0    0  501    0  0.00000000000E+00  0.00000000000E+00  0.11096756091E+04  0.11096756091E+04  0.00000000000E+00 0. -1.
         -1   -1    0    0    0  501 -0.00000000000E+00 -0.00000000000E+00 -0.45777850642E+03  0.45777850642E+03  0.00000000000E+00 0.  1.
         23    2    1    2    0    0  0.54486343116E+03  0.14112898185E+03  0.43395405216E+03  0.71645249644E+03  0.90523544646E+02 0.  0.
    5000000    2    1    2    0    0 -0.54486343116E+03 -0.14112898185E+03  0.21794305048E+03  0.85100161904E+03  0.59992585726E+03 0.  0.
         23    2    4    4    0    0 -0.27661938689E+03  0.56502121317E+02 -0.16173142749E+03  0.33762819462E+03  0.90138605783E+02 0.  0.
         23    2    4    4    0    0 -0.26824404428E+03 -0.19763110317E+03  0.37967447797E+03  0.51337342441E+03  0.91578618908E+02 0.  0.
          4    1    3    3  502    0  0.33039382643E+03  0.48443134306E+02  0.22192115491E+03  0.40094365789E+03  0.00000000000E+00 0. -1.
         -4    1    3    3    0  502  0.21446960473E+03  0.92685847543E+02  0.21203289725E+03  0.31550883855E+03  0.00000000000E+00 0.  1.
         15    1    5    5    0    0 -0.55167119516E+02  0.16589530868E+02 -0.79183756247E+02  0.97937983401E+02  0.17770000000E+01 0. -1.
        -15    1    5    5    0    0 -0.22145226737E+03  0.39912590449E+02 -0.82547671243E+02  0.23969021122E+03  0.17770000000E+01 0.  1.
          1    1    6    6  503    0 -0.88517764617E+02 -0.92260523240E+02  0.20448948133E+03  0.24117078342E+03  0.00000000000E+00 0. -1.
         -1    1    6    6    0  503 -0.17972627966E+03 -0.10537057993E+03  0.17518499664E+03  0.27220264099E+03  0.00000000000E+00 0.  1.
<mgrwt>
<rscale>  0 0.59321172E+03</rscale>
<asrwt>0</asrwt>
<pdfrwt beam="1">  1        1 0.17071932E+00 0.59321172E+03</pdfrwt>
<pdfrwt beam="2">  1       -1 0.70427463E-01 0.59321172E+03</pdfrwt>
<totfact> 0.26678925E+01</totfact>
</mgrwt>
</event>
<event>
12    1  0.7781383E-008  0.4980123E+03  0.7818608E-02  0.1014299E+00
         -2   -1    0    0    0  501 -0.00000000000E+00  0.00000000000E+00  0.21656034970E+03  0.21656034970E+03  0.00000000000E+00 0.  1.
          2   -1    0    0  501    0  0.00000000000E+00 -0.00000000000E+00 -0.12985601299E+04  0.12985601299E+04  0.00000000000E+00 0. -1.
         23    2    1    2    0    0 -0.13292755561E+03 -0.32262776525E+03 -0.29357910833E+03  0.46469115677E+03  0.89391097901E+02 0.  0.
    5000000    2    1    2    0    0  0.13292755561E+03  0.32262776525E+03 -0.78842067185E+03  0.10504293228E+04  0.60003016297E+03 0.  0.
         23    2    4    4    0    0  0.17786950322E+03 -0.94479793050E+02 -0.10861090753E+03  0.24656736699E+03  0.91843049594E+02 0.  0.
         23    2    4    4    0    0 -0.44941947610E+02  0.41710755830E+03 -0.67980976432E+03  0.80386195582E+03  0.89745387092E+02 0.  0.
          4    1    3    3  502    0 -0.12840947951E+03 -0.22146684240E+03 -0.23610419236E+03  0.34825528907E+03  0.00000000000E+00 0. -1.
         -4    1    3    3    0  502 -0.45180761037E+01 -0.10116092285E+03 -0.57474915968E+02  0.11643586771E+03  0.00000000000E+00 0.  1.
         15    1    5    5    0    0  0.69641393465E+02  0.63017416777E+01 -0.15012180624E+02  0.71541309242E+02  0.17770000000E+01 0. -1.
        -15    1    5    5    0    0  0.10822810976E+03 -0.10078153473E+03 -0.93598726902E+02  0.17502605775E+03  0.17770000000E+01 0.  1.
          3    1    6    6  503    0 -0.46075545926E+02  0.27710768242E+03 -0.37602921000E+03  0.46937148440E+03  0.00000000000E+00 0. -1.
         -3    1    6    6    0  503  0.11335983167E+01  0.13999987587E+03 -0.30378055432E+03  0.33449047142E+03  0.00000000000E+00 0.  1.
<mgrwt>
<rscale>  0 0.49801227E+03</rscale>
<asrwt>0</asrwt>
<pdfrwt beam="1">  1        2 0.19977848E+00 0.49801227E+03</pdfrwt>
<pdfrwt beam="2">  1       -2 0.33316977E-01 0.49801227E+03</pdfrwt>
<totfact> 0.14470086E+02</totfact>
</mgrwt>
</event>
<event>
12    1  0.7781383E-008  0.1057892E+04  0.7818608E-02  0.9247234E-01
          2   -1    0    0  501    0  0.00000000000E+00  0.00000000000E+00  0.33611627813E+04  0.33611627813E+04  0.00000000000E+00 0. -1.
         -2   -1    0    0    0  501 -0.00000000000E+00 -0.00000000000E+00 -0.38982884389E+03  0.38982884389E+03  0.00000000000E+00 0.  1.
         23    2    1    2    0    0 -0.53122389611E+03 -0.88781352435E+03  0.17946387485E+04  0.20731834199E+04  0.83364099753E+02 0.  0.
    5000000    2    1    2    0    0  0.53122389611E+03  0.88781352435E+03  0.11766951889E+04  0.16778082053E+04  0.60001427010E+03 0.  0.
         23    2    4    4    0    0  0.13543918801E+02  0.57480039930E+02  0.43589264497E+03  0.44732477616E+03  0.81299844414E+02 0.  0.
         23    2    4    4    0    0  0.51767997731E+03  0.83033348441E+03  0.74080254396E+03  0.12304834291E+04  0.88627343460E+02 0.  0.
          3    1    3    3  502    0 -0.24111568801E+03 -0.34921991041E+03  0.79616150494E+03  0.90219979094E+03  0.00000000000E+00 0. -1.
         -3    1    3    3    0  502 -0.29010820810E+03 -0.53859361393E+03  0.99847724354E+03  0.11709836289E+04  0.00000000000E+00 0.  1.
         15    1    5    5    0    0 -0.32176091162E+02  0.28783536165E+02  0.25152191636E+03  0.25520624000E+03  0.17770000000E+01 0. -1.
        -15    1    5    5    0    0  0.45720009963E+02  0.28696503765E+02  0.18437072861E+03  0.19211853616E+03  0.17770000000E+01 0.  1.
          2    1    6    6  503    0  0.36970014448E+03  0.66258698216E+03  0.56643982596E+03  0.94686523973E+03  0.00000000000E+00 0. -1.
         -2    1    6    6    0  503  0.14797983283E+03  0.16774650225E+03  0.17436271799E+03  0.28361818941E+03  0.00000000000E+00 0.  1.
<mgrwt>
<rscale>  0 0.10578917E+04</rscale>
<asrwt>0</asrwt>
<pdfrwt beam="1">  1        2 0.51710195E+00 0.10578917E+04</pdfrwt>
<pdfrwt beam="2">  1       -2 0.59973670E-01 0.10578917E+04</pdfrwt>
<totfact> 0.26879365E+00</totfact>
</mgrwt>
</event>
<event>
12    1  0.7781383E-008  0.4037820E+03  0.7818608E-02  0.1042478E+00
         -1   -1    0    0    0  501 -0.00000000000E+00  0.00000000000E+00  0.11354547631E+03  0.11354547631E+03  0.00000000000E+00 0.  1.
          1   -1    0    0  501    0  0.00000000000E+00 -0.00000000000E+00 -0.24634376985E+04  0.24634376985E+04  0.00000000000E+00 0. -1.
         23    2    1    2    0    0 -0.29389506949E+03 -0.46598917509E+02 -0.35250631884E+03  0.47030216317E+03  0.91529497311E+02 0.  0.
    5000000    2    1    2    0    0  0.29389506949E+03  0.46598917509E+02 -0.19973859033E+04  0.21066810116E+04  0.60000722239E+03 0.  0.
         23    2    4    4    0    0  0.37556166684E+03  0.91536801438E+01 -0.67340257450E+03  0.77654206647E+03  0.91739839714E+02 0.  0.
         23    2    4    4    0    0 -0.81666597353E+02  0.37445237365E+02 -0.13239833288E+04  0.13301389451E+04  0.90918532039E+02 0.  0.
          1    1    3    3  502    0 -0.23501971724E+03 -0.57361677269E+02 -0.22926889384E+03  0.33329994778E+03  0.00000000000E+00 0. -1.
         -1    1    3    3    0  502 -0.58875352253E+02  0.10762759760E+02 -0.12323742500E+03  0.13700221539E+03  0.00000000000E+00 0.  1.
         15    1    5    5    0    0  0.25997610997E+03  0.34070279725E+02 -0.39546456218E+03  0.47449313945E+03  0.17770000000E+01 0. -1.
        -15    1    5    5    0    0  0.11558555688E+03 -0.24916599582E+02 -0.27793801232E+03  0.30204892702E+03  0.17770000000E+01 0.  1.
          1    1    6    6  503    0 -0.97176097088E+02  0.46119437106E+02 -0.10251521452E+04  0.10307798587E+04  0.00000000000E+00 0. -1.
         -1    1    6    6    0  503  0.15509499735E+02 -0.86741997410E+01 -0.29883118365E+03  0.29935908646E+03  0.00000000000E+00 0.  1.
<mgrwt>
<rscale>  0 0.40378201E+03</rscale>
<asrwt>0</asrwt>
<pdfrwt beam="1">  1        1 0.37899042E+00 0.40378201E+03</pdfrwt>
<pdfrwt beam="2">  1       -1 0.17468535E-01 0.40378201E+03</pdfrwt>
<totfact> 0.40778444E+01</totfact>
</mgrwt>
</event>
<event>
12    1  0.7781383E-008  0.1301249E+04  0.7818608E-02  0.9028575E-01
         -2   -1    0    0    0  501 -0.00000000000E+00  0.00000000000E+00  0.11274154715E+04  0.11274154715E+04  0.00000000000E+00 0.  1.
          2   -1    0    0  501    0  0.00000000000E+00 -0.00000000000E+00 -0.22314476279E+04  0.22314476279E+04  0.00000000000E+00 0. -1.
         23    2    1    2    0    0 -0.12274489287E+04 -0.21656467286E+03 -0.14686410842E+04  0.19284243353E+04  0.91556827501E+02 0.  0.
    5000000    2    1    2    0    0  0.12274489287E+04  0.21656467286E+03  0.36460892790E+03  0.14304387641E+04  0.59973682345E+03 0.  0.
         23    2    4    4    0    0  0.25408504651E+03 -0.15903117146E+03  0.19638201825E+03  0.36959405411E+03  0.90464044737E+02 0.  0.
         23    2    4    4    0    0  0.97336388219E+03  0.37559584432E+03  0.16822690966E+03  0.10608447100E+04  0.92637573989E+02 0.  0.
          2    1    3    3  502    0 -0.59126192879E+03 -0.59433240536E+02 -0.68040641333E+03  0.90336917471E+03  0.00000000000E+00 0. -1.
         -2    1    3    3    0  502 -0.63618699990E+03 -0.15713143232E+03 -0.78823467091E+03  0.10250551606E+04  0.00000000000E+00 0.  1.
         15    1    5    5    0    0  0.12898279871E+03 -0.12326579492E+03  0.82082406832E+02  0.19639678664E+03  0.17770000000E+01 0.  1.
        -15    1    5    5    0    0  0.12510224779E+03 -0.35765376541E+02  0.11429961142E+03  0.17319726748E+03  0.17770000000E+01 0. -1.
          2    1    6    6  503    0  0.89529330504E+03  0.35899960539E+03  0.17649494378E+03  0.98060251065E+03  0.00000000000E+00 0. -1.
         -2    1    6    6    0  503  0.78070577146E+02  0.16596238939E+02 -0.82680341208E+01  0.80242199316E+02  0.00000000000E+00 0.  1.
<mgrwt>
<rscale>  0 0.13012487E+04</rscale>
<asrwt>0</asrwt>
<pdfrwt beam="1">  1        2 0.34329963E+00 0.13012487E+04</pdfrwt>
<pdfrwt beam="2">  1       -2 0.17344853E+00 0.13012487E+04</pdfrwt>
<totfact> 0.96063376E-01</totfact>
</mgrwt>
</event>
<event>
12    1  0.7781383E-008  0.9197554E+03  0.7818608E-02  0.9401218E-01
          1   -1    0    0  501    0  0.00000000000E+00  0.00000000000E+00  0.47376351577E+03  0.47376351577E+03  0.00000000000E+00 0. -1.
         -1   -1    0    0    0  501 -0.00000000000E+00 -0.00000000000E+00 -0.26353138356E+04  0.26353138356E+04  0.00000000000E+00 0.  1.
         23    2    1    2    0    0 -0.26113481350E+01 -0.82887067063E+03 -0.14287769796E+03  0.84585154113E+03  0.89539853018E+02 0.  0.
    5000000    2    1    2    0    0  0.26113481350E+01  0.82887067063E+03 -0.20186726219E+04  0.22632258103E+04  0.60009874692E+03 0.  0.
         23    2    4    4    0    0  0.18503516559E+03  0.49283094813E+02 -0.39607488168E+03  0.45165439290E+03  0.10222300518E+03 0.  0.
         23    2    4    4    0    0 -0.18242381746E+03  0.77958757582E+03 -0.16225977402E+04  0.18115714174E+04  0.89063663154E+02 0.  0.
          2    1    3    3  502    0 -0.65989806266E+01 -0.37287572902E+03 -0.10922069888E+03  0.38859878654E+03  0.00000000000E+00 0. -1.
         -2    1    3    3    0  502  0.39876324916E+01 -0.45599494162E+03 -0.33656999080E+02  0.45725275459E+03  0.00000000000E+00 0.  1.
         15    1    5    5    0    0  0.10576254464E+03  0.70191642990E+02 -0.29734624615E+03  0.32331181609E+03  0.17770000000E+01 0.  1.
        -15    1    5    5    0    0  0.79272620951E+02 -0.20908548177E+02 -0.98728635523E+02  0.12834257680E+03  0.17770000000E+01 0. -1.
          1    1    6    6  503    0 -0.14578327447E+02  0.12509295685E+03 -0.19472914758E+03  0.23190561960E+03  0.00000000000E+00 0. -1.
         -1    1    6    6    0  503 -0.16784549001E+03  0.65449461896E+03 -0.14278685926E+04  0.15796657978E+04  0.00000000000E+00 0.  1.
<mgrwt>
<rscale>  0 0.91975535E+03</rscale>
<asrwt>0</asrwt>
<pdfrwt beam="1">  1        1 0.72886696E-01 0.91975535E+03</pdfrwt>
<pdfrwt beam="2">  1       -1 0.40543289E+00 0.91975535E+03</pdfrwt>
<totfact> 0.32595418E-01</totfact>
</mgrwt>
</event>
<event>
12    1  0.7781383E-008  0.9850662E+03  0.7818608E-02  0.9325077E-01
          2   -1    0    0  501    0  0.00000000000E+00  0.00000000000E+00  0.84439915958E+03  0.84439915958E+03  0.00000000000E+00 0. -1.
         -2   -1    0    0    0  501 -0.00000000000E+00 -0.00000000000E+00 -0.13929205905E+04  0.13929205905E+04  0.00000000000E+00 0.  1.
         23    2    1    2    0    0 -0.87016099676E+03  0.22025331850E+03  0.19963767295E+03  0.92360644641E+03  0.86613987234E+02 0.  0.
    5000000    2    1    2    0    0  0.87016099676E+03 -0.22025331850E+03 -0.74815910385E+03  0.13137133037E+04  0.60034066574E+03 0.  0.
         23    2    4    4    0    0  0.39557637744E+03 -0.38903668421E+03 -0.45635746033E+03  0.72424449658E+03  0.91857210881E+02 0.  0.
         23    2    4    4    0    0  0.47458461933E+03  0.16878336571E+03 -0.29180164352E+03  0.58946880707E+03  0.92773325420E+02 0.  0.
          2    1    3    3  502    0 -0.52316433334E+03  0.10402718934E+03  0.85072754791E+02  0.54014808100E+03  0.00000000000E+00 0. -1.
         -2    1    3    3    0  502 -0.34699666342E+03  0.11622612916E+03  0.11456491816E+03  0.38345836541E+03  0.00000000000E+00 0.  1.
         15    1    5    5    0    0  0.16839938725E+03 -0.10918480786E+03 -0.14070229159E+03  0.24511215491E+03  0.17770000000E+01 0.  1.
        -15    1    5    5    0    0  0.22717699018E+03 -0.27985187635E+03 -0.31565516873E+03  0.47913234168E+03  0.17770000000E+01 0. -1.
          3    1    6    6  503    0  0.28648212701E+03  0.14158514785E+03 -0.15413870161E+03  0.35479163254E+03  0.00000000000E+00 0. -1.
         -3    1    6    6    0  503  0.18810249232E+03  0.27198217861E+02 -0.13766294192E+03  0.23467717454E+03  0.00000000000E+00 0.  1.
<mgrwt>
<rscale>  0 0.98506623E+03</rscale>
<asrwt>0</asrwt>
<pdfrwt beam="1">  1        2 0.12990756E+00 0.98506623E+03</pdfrwt>
<pdfrwt beam="2">  1       -2 0.21429547E+00 0.98506623E+03</pdfrwt>
<totfact> 0.34251770E+00</totfact>
</mgrwt>
</event>
<event>
12    1  0.7781383E-008  0.6962101E+03  0.7818608E-02  0.9723736E-01
         -2   -1    0    0    0  501 -0.00000000000E+00  0.00000000000E+00  0.22289266697E+03  0.22289266697E+03  0.00000000000E+00 0.  1.
          2   -1    0    0  501    0  0.00000000000E+00 -0.00000000000E+00 -0.26385325231E+04  0.26385325231E+04  0.00000000000E+00 0. -1.
         23    2    1    2    0    0  0.52294647749E+03 -0.29618521077E+03 -0.14689485587E+04  0.15896463740E+04  0.89258214202E+02 0.  0.
    5000000    2    1    2    0    0 -0.52294647749E+03  0.29618521077E+03 -0.94669129744E+03  0.12717788161E+04  0.59999853917E+03 0.  0.
         23    2    4    4    0    0 -0.46154838516E+03 -0.10156561261E+02 -0.76668714435E+03  0.89961505496E+03  0.91476785096E+02 0.  0.
         23    2    4    4    0    0 -0.61398092336E+02  0.30634177203E+03 -0.18000415309E+03  0.37216376113E+03  0.92137738962E+02 0.  0.
          1    1    3    3  502    0  0.26531834589E+03 -0.14532518801E+03 -0.85543112165E+03  0.90734538012E+03  0.00000000000E+00 0. -1.
         -1    1    3    3    0  502  0.25762813160E+03 -0.15086002275E+03 -0.61351743704E+03  0.68230099385E+03  0.00000000000E+00 0.  1.
         15    1    5    5    0    0 -0.25676356538E+03 -0.50738045766E+02 -0.41610540281E+03  0.49157780846E+03  0.17770000000E+01 0. -1.
        -15    1    5    5    0    0 -0.20478481978E+03  0.40581484505E+02 -0.35058174154E+03  0.40803724650E+03  0.17770000000E+01 0.  1.
          1    1    6    6  503    0 -0.68989298310E+02  0.15909934460E+03 -0.65066221783E+02  0.18521808214E+03  0.00000000000E+00 0. -1.
         -1    1    6    6    0  503  0.75912059745E+01  0.14724242743E+03 -0.11493793130E+03  0.18694567900E+03  0.00000000000E+00 0.  1.
<mgrwt>
<rscale>  0 0.69621006E+03</rscale>
<asrwt>0</asrwt>
<pdfrwt beam="1">  1        2 0.40592806E+00 0.69621006E+03</pdfrwt>
<pdfrwt beam="2">  1       -2 0.34291181E-01 0.69621006E+03</pdfrwt>
<totfact> 0.24321645E+01</totfact>
</mgrwt>
</event>
<event>
12    1  0.7781383E-008  0.5829804E+03  0.7818608E-02  0.9941359E-01
         -2   -1    0    0    0  501 -0.00000000000E+00  0.00000000000E+00  0.54294206008E+03  0.54294206008E+03  0.00000000000E+00 0. -1.
          2   -1    0    0  501    0  0.00000000000E+00 -0.00000000000E+00 -0.11733413603E+04  0.11733413603E+04  0.00000000000E+00 0.  1.
         23    2    1    2    0    0 -0.46096568204E+03 -0.23231924912E+03  0.20757524274E+03  0.56366547092E+03  0.90386327398E+02 0.  0.
    5000000    2    1    2    0    0  0.46096568204E+03  0.23231924912E+03 -0.83797454295E+03  0.11526179494E+04  0.59988766384E+03 0.  0.
         23    2    4    4    0    0  0.50279631937E+03  0.20339101953E+03 -0.88240867375E+03  0.10392141369E+04  0.84551222576E+02 0.  0.
         23    2    4    4    0    0 -0.41830637334E+02  0.28928229596E+02  0.44434130793E+02  0.11340381254E+03  0.91100977123E+02 0.  0.
          4    1    3    3  502    0 -0.17503196762E+03 -0.10996068668E+03  0.40573081197E+02  0.21065069956E+03  0.00000000000E+00 0.  1.
         -4    1    3    3    0  502 -0.28593371442E+03 -0.12235856244E+03  0.16700216155E+03  0.35301477137E+03  0.00000000000E+00 0. -1.
         15    1    5    5    0    0  0.36193566085E+02 -0.72418544485E+01 -0.62103794277E+02  0.72266573701E+02  0.17770000000E+01 0.  1.
        -15    1    5    5    0    0  0.46660275329E+03  0.21063287398E+03 -0.82030487947E+03  0.96694756320E+03  0.17770000000E+01 0. -1.
          1    1    6    6  503    0 -0.42931721424E+01  0.54020009687E+02  0.67818552933E+01  0.54613060113E+02  0.00000000000E+00 0. -1.
         -1    1    6    6    0  503 -0.37537465192E+02 -0.25091780091E+02  0.37652275500E+02  0.58790752432E+02  0.00000000000E+00 0.  1.
<mgrwt>
<rscale>  0 0.58298039E+03</rscale>
<asrwt>0</asrwt>
<pdfrwt beam="1">  1        2 0.18051405E+00 0.58298039E+03</pdfrwt>
<pdfrwt beam="2">  1       -2 0.83529548E-01 0.58298039E+03</pdfrwt>
<totfact> 0.25605554E+01</totfact>
</mgrwt>
</event>
<event>
12    1  0.7781383E-008  0.1502162E+04  0.7818608E-02  0.8883016E-01
          2   -1    0    0  501    0  0.00000000000E+00  0.00000000000E+00  0.10966301481E+04  0.10966301481E+04  0.00000000000E+00 0. -1.
         -2   -1    0    0    0  501 -0.00000000000E+00 -0.00000000000E+00 -0.21557684959E+04  0.21557684959E+04  0.00000000000E+00 0.  1.
         23    2    1    2    0    0  0.13176077011E+04  0.63253688235E+03 -0.73799172535E+03  0.16400606059E+04  0.94731424037E+02 0.  0.
    5000000    2    1    2    0    0 -0.13176077011E+04 -0.63253688235E+03 -0.32114662240E+03  0.16123380381E+04  0.60025480800E+03 0.  0.
         23    2    4    4    0    0 -0.13304611786E+04 -0.53688978786E+03 -0.34362793792E+03  0.14778876228E+04  0.87715869259E+02 0.  0.
         23    2    4    4    0    0  0.12853477498E+02 -0.95647094490E+02  0.22481315520E+02  0.13445041535E+03  0.90873131740E+02 0.  0.
          2    1    3    3  502    0  0.16404278215E+03  0.87242482663E+02 -0.12924967742E+03  0.22633330349E+03  0.00000000000E+00 0. -1.
         -2    1    3    3    0  502  0.11535649190E+04  0.54529439969E+03 -0.60874204794E+03  0.14137273024E+04  0.00000000000E+00 0.  1.
         15    1    5    5    0    0 -0.13947666133E+03 -0.30207408429E+02 -0.44328883161E+02  0.14944709496E+03  0.17770000000E+01 0. -1.
        -15    1    5    5    0    0 -0.11909845173E+04 -0.50668237944E+03 -0.29929905476E+03  0.13284405278E+04  0.17770000000E+01 0.  1.
          3    1    6    6  503    0  0.24999670438E+02 -0.31183584225E+02  0.49400730224E+02  0.63543934359E+02  0.00000000000E+00 0. -1.
         -3    1    6    6    0  503 -0.12146192940E+02 -0.64463510265E+02 -0.26919414705E+02  0.70906480992E+02  0.00000000000E+00 0.  1.
<mgrwt>
<rscale>  0 0.15021624E+04</rscale>
<asrwt>0</asrwt>
<pdfrwt beam="1">  1        2 0.16871233E+00 0.15021624E+04</pdfrwt>
<pdfrwt beam="2">  1       -2 0.33165669E+00 0.15021624E+04</pdfrwt>
<totfact> 0.42016437E-01</totfact>
</mgrwt>
</event>
<event>
12    1  0.7781383E-008  0.1148102E+04  0.7818608E-02  0.9159536E-01
          2   -1    0    0  501    0  0.00000000000E+00  0.00000000000E+00  0.12452886968E+04  0.12452886968E+04  0.00000000000E+00 0. -1.
         -2   -1    0    0    0  501 -0.00000000000E+00 -0.00000000000E+00 -0.14833053885E+04  0.14833053885E+04  0.00000000000E+00 0.  1.
         23    2    1    2    0    0 -0.23602707881E+03  0.11169938833E+04 -0.71885785569E+03  0.13522132547E+04  0.91323339331E+02 0.  0.
    5000000    2    1    2    0    0  0.23602707881E+03 -0.11169938833E+04  0.48084116404E+03  0.13763808306E+04  0.59985985748E+03 0.  0.
         23    2    4    4    0    0  0.78242780070E+02 -0.61595138020E+03  0.55506161289E+03  0.83742614189E+03  0.87584893705E+02 0.  0.
         23    2    4    4    0    0  0.15778429874E+03 -0.50104250307E+03 -0.74220448856E+02  0.53895468871E+03  0.94994771674E+02 0.  0.
          3    1    3    3  502    0 -0.81338579317E+02  0.31946778788E+03 -0.16216643835E+03  0.36738751435E+03  0.00000000000E+00 0. -1.
         -3    1    3    3    0  502 -0.15468849949E+03  0.79752609540E+03 -0.55669141734E+03  0.98482574035E+03  0.00000000000E+00 0.  1.
         15    1    5    5    0    0  0.84701389666E+02 -0.61375887469E+03  0.54517102882E+03  0.82528109761E+03  0.17770000000E+01 0. -1.
        -15    1    5    5    0    0 -0.64586095961E+01 -0.21925055136E+01  0.98905840754E+01  0.12145044285E+02  0.17770000000E+01 0.  1.
          3    1    6    6  503    0  0.14147334143E+03 -0.38165007748E+03 -0.21991493897E+02  0.40762128720E+03  0.00000000000E+00 0. -1.
         -3    1    6    6    0  503  0.16310957315E+02 -0.11939242559E+03 -0.52228954959E+02  0.13133340151E+03  0.00000000000E+00 0.  1.
<mgrwt>
<rscale>  0 0.11481025E+04</rscale>
<asrwt>0</asrwt>
<pdfrwt beam="1">  1        2 0.19158288E+00 0.11481025E+04</pdfrwt>
<pdfrwt beam="2">  1       -2 0.22820083E+00 0.11481025E+04</pdfrwt>
<totfact> 0.15260192E+00</totfact>
</mgrwt>
</event>
<event>
12    1  0.7781383E-008  0.6220164E+03  0.7818608E-02  0.9860753E-01
         -2   -1    0    0    0  501 -0.00000000000E+00  0.00000000000E+00  0.77926410053E+03  0.77926410053E+03  0.00000000000E+00 0. -1.
          2   -1    0    0  501    0  0.00000000000E+00 -0.00000000000E+00 -0.66900618637E+03  0.66900618637E+03  0.00000000000E+00 0.  1.
         23    2    1    2    0    0  0.49537848554E+02 -0.49820056915E+03  0.36284210949E+03  0.62703666073E+03  0.10422462254E+03 0.  0.
    5000000    2    1    2    0    0 -0.49537848554E+02  0.49820056915E+03 -0.25258419533E+03  0.82123362617E+03  0.59997340565E+03 0.  0.
         23    2    4    4    0    0 -0.28382274754E+03  0.33372318481E+03 -0.26604860988E+03  0.52048114181E+03  0.90510994115E+02 0.  0.
         23    2    4    4    0    0  0.23428489898E+03  0.16447738433E+03  0.13464414556E+02  0.30075248436E+03  0.91260848895E+02 0.  0.
          4    1    3    3  502    0 -0.85711223841E+01 -0.21933794048E+03  0.10716543627E+03  0.24426835039E+03  0.00000000000E+00 0. -1.
         -4    1    3    3    0  502  0.58108970938E+02 -0.27886262867E+03  0.25567667322E+03  0.38276831033E+03  0.00000000000E+00 0.  1.
         15    1    5    5    0    0 -0.18707888260E+03  0.19633227194E+03 -0.21112719145E+03  0.34368985731E+03  0.17770000000E+01 0. -1.
        -15    1    5    5    0    0 -0.96743864940E+02  0.13739091287E+03 -0.54921418438E+02  0.17679128450E+03  0.17770000000E+01 0.  1.
          3    1    6    6  503    0  0.16695450958E+03  0.62574246202E+02  0.63952186895E+01  0.17841032307E+03  0.00000000000E+00 0. -1.
         -3    1    6    6    0  503  0.67330389401E+02  0.10190313813E+03  0.70691958668E+01  0.12234216129E+03  0.00000000000E+00 0.  1.
<mgrwt>
<rscale>  0 0.62201641E+03</rscale>
<asrwt>0</asrwt>
<pdfrwt beam="1">  1        2 0.10292403E+00 0.62201641E+03</pdfrwt>
<pdfrwt beam="2">  1       -2 0.11988678E+00 0.62201641E+03</pdfrwt>
<totfact> 0.23693627E+01</totfact>
</mgrwt>
</event>
<event>
12    1  0.7781383E-008  0.1210304E+04  0.7818608E-02  0.9103885E-01
          2   -1    0    0  501    0  0.00000000000E+00  0.00000000000E+00  0.17219412786E+04  0.17219412786E+04  0.00000000000E+00 0. -1.
         -2   -1    0    0    0  501 -0.00000000000E+00 -0.00000000000E+00 -0.11431036415E+04  0.11431036415E+04  0.00000000000E+00 0.  1.
         23    2    1    2    0    0 -0.11842837091E+04 -0.13708505198E+03  0.89478087682E+03  0.14933728467E+04  0.90605887224E+02 0.  0.
    5000000    2    1    2    0    0  0.11842837091E+04  0.13708505198E+03 -0.31594323971E+03  0.13716720734E+04  0.60028654098E+03 0.  0.
         23    2    4    4    0    0  0.67020762538E+03 -0.57750002031E+02  0.85895700204E+02  0.68449673056E+03  0.92975152486E+02 0.  0.
         23    2    4    4    0    0  0.51407608367E+03  0.19483505401E+03 -0.40183893991E+03  0.68717534286E+03  0.92198156904E+02 0.  0.
          4    1    3    3  502    0 -0.51538059025E+03 -0.57491058677E+02  0.44558335814E+03  0.68371551371E+03  0.00000000000E+00 0. -1.
         -4    1    3    3    0  502 -0.66890311880E+03 -0.79593993299E+02  0.44919751868E+03  0.80965733301E+03  0.00000000000E+00 0.  1.
         15    1    5    5    0    0  0.31263105092E+03  0.17850900721E+02  0.52130497731E+02  0.31745483959E+03  0.17770000000E+01 0.  1.
        -15    1    5    5    0    0  0.35757657447E+03 -0.75600902751E+02  0.33765202473E+02  0.36704189097E+03  0.17770000000E+01 0. -1.
          1    1    6    6  503    0  0.31877138920E+03  0.11848096014E+03 -0.30245309412E+03  0.45511626057E+03  0.00000000000E+00 0. -1.
         -1    1    6    6    0  503  0.19530469447E+03  0.76354093866E+02 -0.99385845787E+02  0.23205908229E+03  0.00000000000E+00 0.  1.
<mgrwt>
<rscale>  0 0.12103037E+04</rscale>
<asrwt>0</asrwt>
<pdfrwt beam="1">  1        2 0.26491404E+00 0.12103037E+04</pdfrwt>
<pdfrwt beam="2">  1       -2 0.17586210E+00 0.12103037E+04</pdfrwt>
<totfact> 0.17913734E+00</totfact>
</mgrwt>
</event>
<event>
12    1  0.7781383E-008  0.1191976E+04  0.7818608E-02  0.9119909E-01
          2   -1    0    0  501    0  0.00000000000E+00  0.00000000000E+00  0.36438962589E+04  0.36438962589E+04  0.00000000000E+00 0. -1.
         -2   -1    0    0    0  501 -0.00000000000E+00 -0.00000000000E+00 -0.39995184465E+03  0.39995184465E+03  0.00000000000E+00 0.  1.
         23    2    1    2    0    0 -0.11266436164E+04 -0.43973603309E+02  0.16637802587E+04  0.20120143254E+04  0.93687673092E+02 0.  0.
    5000000    2    1    2    0    0  0.11266436164E+04  0.43973603309E+02  0.15801641555E+04  0.20318337782E+04  0.60014183954E+03 0.  0.
         23    2    4    4    0    0  0.80175312017E+03  0.28391863344E+03  0.11691184265E+04  0.14486225965E+04  0.90838735483E+02 0.  0.
         23    2    4    4    0    0  0.32489049622E+03 -0.23994503013E+03  0.41104572906E+03  0.58321118167E+03  0.89717551427E+02 0.  0.
          4    1    3    3  502    0 -0.46682154722E+03 -0.37292118761E+02  0.76622972041E+03  0.89800948966E+03  0.00000000000E+00 0. -1.
         -4    1    3    3    0  502 -0.65982206917E+03 -0.66814845478E+01  0.89755053830E+03  0.11140048357E+04  0.00000000000E+00 0.  1.
         15    1    5    5    0    0  0.66928253260E+03  0.22344042387E+03  0.91154016125E+03  0.11527243186E+04  0.17770000000E+01 0.  1.
        -15    1    5    5    0    0  0.13247058757E+03  0.60478209573E+02  0.25757826521E+03  0.29589827786E+03  0.17770000000E+01 0. -1.
          2    1    6    6  503    0  0.38691839012E+02 -0.38396430998E+02  0.19222781982E+02  0.57800170126E+02  0.00000000000E+00 0. -1.
         -2    1    6    6    0  503  0.28619865721E+03 -0.20154859913E+03  0.39182294708E+03  0.52541101155E+03  0.00000000000E+00 0.  1.
<mgrwt>
<rscale>  0 0.11919755E+04</rscale>
<asrwt>0</asrwt>
<pdfrwt beam="1">  1        2 0.56059940E+00 0.11919755E+04</pdfrwt>
<pdfrwt beam="2">  1       -2 0.61531056E-01 0.11919755E+04</pdfrwt>
<totfact> 0.15926200E+00</totfact>
</mgrwt>
</event>
<event>
12    1  0.7781383E-008  0.4366330E+03  0.7818608E-02  0.1031785E+00
         -1   -1    0    0    0  501 -0.00000000000E+00  0.00000000000E+00  0.12910532127E+04  0.12910532127E+04  0.00000000000E+00 0.  1.
          1   -1    0    0  501    0  0.00000000000E+00 -0.00000000000E+00 -0.16969442778E+03  0.16969442778E+03  0.00000000000E+00 0. -1.
         23    2    1    2    0    0  0.10206331087E+03 -0.21617537754E+03  0.51216031271E+03  0.57291883512E+03  0.93696811269E+02 0.  0.
    5000000    2    1    2    0    0 -0.10206331087E+03  0.21617537754E+03  0.60919847218E+03  0.88782880532E+03  0.59997374590E+03 0.  0.
         23    2    4    4    0    0  0.23387307981E+03  0.41526527221E+02  0.27070399870E+03  0.37136700958E+03  0.90618601692E+02 0.  0.
         23    2    4    4    0    0 -0.33593639068E+03  0.17464885032E+03  0.33849447349E+03  0.51646179574E+03  0.93801910296E+02 0.  0.
          2    1    3    3  502    0  0.47053671764E+02 -0.13460969994E+03  0.39488034214E+03  0.41983842601E+03  0.00000000000E+00 0.  1.
         -2    1    3    3    0  502  0.55009639108E+02 -0.81565677606E+02  0.11727997056E+03  0.15308040911E+03  0.00000000000E+00 0. -1.
         15    1    5    5    0    0  0.67637068379E+02  0.41492608309E+02  0.45624839092E+02  0.91548857089E+02  0.17770000000E+01 0. -1.
        -15    1    5    5    0    0  0.16623601143E+03  0.33918912494E-01  0.22507915961E+03  0.27981815249E+03  0.17770000000E+01 0.  1.
          4    1    6    6  503    0 -0.30240245987E+03  0.18115679898E+03  0.28652249460E+03  0.45426883391E+03  0.00000000000E+00 0. -1.
         -4    1    6    6    0  503 -0.33533930807E+02 -0.65079486569E+01  0.51971978891E+02  0.62192961828E+02  0.00000000000E+00 0.  1.
<mgrwt>
<rscale>  0 0.43663305E+03</rscale>
<asrwt>0</asrwt>
<pdfrwt beam="1">  1        1 0.26106836E-01 0.43663305E+03</pdfrwt>
<pdfrwt beam="2">  1       -1 0.19862357E+00 0.43663305E+03</pdfrwt>
<totfact> 0.30136030E+01</totfact>
</mgrwt>
</event>
<event>
12    1  0.7781383E-008  0.8579073E+03  0.7818608E-02  0.9479785E-01
          1   -1    0    0  501    0  0.00000000000E+00  0.00000000000E+00  0.10054876781E+04  0.10054876781E+04  0.00000000000E+00 0. -1.
         -1   -1    0    0    0  501 -0.00000000000E+00 -0.00000000000E+00 -0.86645668020E+03  0.86645668020E+03  0.00000000000E+00 0.  1.
         23    2    1    2    0    0 -0.76857405667E+03  0.86530301349E+02  0.37471117031E+03  0.86500820163E+03  0.98169007825E+02 0.  0.
    5000000    2    1    2    0    0  0.76857405667E+03 -0.86530301349E+02 -0.23568017238E+03  0.10069361567E+04  0.60015140287E+03 0.  0.
         23    2    4    4    0    0  0.19312277171E+03 -0.26908115318E+03  0.24441857645E+02  0.34443238047E+03  0.91297252784E+02 0.  0.
         23    2    4    4    0    0  0.57545128496E+03  0.18255085183E+03 -0.26012203003E+03  0.66250377622E+03  0.82333396225E+02 0.  0.
          2    1    3    3  502    0 -0.18902634316E+03 -0.35641976438E+01  0.13029447603E+03  0.22960904250E+03  0.00000000000E+00 0. -1.
         -2    1    3    3    0  502 -0.57954771351E+03  0.90094498992E+02  0.24441669428E+03  0.63539915913E+03  0.00000000000E+00 0.  1.
         15    1    5    5    0    0  0.17498785728E+03 -0.26052205554E+03  0.43342025411E+02  0.31681884494E+03  0.17770000000E+01 0.  1.
        -15    1    5    5    0    0  0.18134914431E+02 -0.85590976395E+01 -0.18900167766E+02  0.27613535529E+02  0.17770000000E+01 0. -1.
          1    1    6    6  503    0  0.87783274805E+02  0.73554220797E+01 -0.62070368969E+02  0.10776240659E+03  0.00000000000E+00 0. -1.
         -1    1    6    6    0  503  0.48766801015E+03  0.17519542975E+03 -0.19805166106E+03  0.55474136963E+03  0.00000000000E+00 0.  1.
<mgrwt>
<rscale>  0 0.85790727E+03</rscale>
<asrwt>0</asrwt>
<pdfrwt beam="1">  1        1 0.15469041E+00 0.85790727E+03</pdfrwt>
<pdfrwt beam="2">  1       -1 0.13330103E+00 0.85790727E+03</pdfrwt>
<totfact> 0.72659603E+00</totfact>
</mgrwt>
</event>
<event>
12    1  0.7781383E-008  0.5562772E+03  0.7818608E-02  0.1000051E+00
          2   -1    0    0  501    0  0.00000000000E+00  0.00000000000E+00  0.22171293911E+03  0.22171293911E+03  0.00000000000E+00 0. -1.
         -2   -1    0    0    0  501 -0.00000000000E+00 -0.00000000000E+00 -0.17475360334E+04  0.17475360334E+04  0.00000000000E+00 0.  1.
         23    2    1    2    0    0  0.32591984134E+03 -0.34208003227E+03 -0.59299815138E+03  0.76359886616E+03  0.90520325902E+02 0.  0.
    5000000    2    1    2    0    0 -0.32591984134E+03  0.34208003227E+03 -0.93282494293E+03  0.12056501064E+04  0.60015607419E+03 0.  0.
         23    2    4    4    0    0 -0.17873046966E+03 -0.73936961765E+02 -0.62123216526E+03  0.65753081581E+03  0.94900555764E+02 0.  0.
         23    2    4    4    0    0 -0.14718937168E+03  0.41601699403E+03 -0.31159277767E+03  0.54811929056E+03  0.92789261960E+02 0.  0.
          3    1    3    3  502    0  0.57834792875E+02 -0.68513567981E+02 -0.62570106018E+02  0.10933430583E+03  0.00000000000E+00 0. -1.
         -3    1    3    3    0  502  0.26808504847E+03 -0.27356646428E+03 -0.53042804537E+03  0.65426456033E+03  0.00000000000E+00 0.  1.
         15    1    5    5    0    0 -0.37458843967E+02 -0.70348054742E+01 -0.38532835839E+02  0.54227213151E+02  0.17770000000E+01 0. -1.
        -15    1    5    5    0    0 -0.14127162569E+03 -0.66902156291E+02 -0.58269932942E+03  0.60330360266E+03  0.17770000000E+01 0.  1.
          3    1    6    6  503    0 -0.10784237170E+03  0.21466742707E+03 -0.12504490146E+03  0.27082892896E+03  0.00000000000E+00 0. -1.
         -3    1    6    6    0  503 -0.39346999980E+02  0.20134956696E+03 -0.18654787621E+03  0.27729036161E+03  0.00000000000E+00 0.  1.
<mgrwt>
<rscale>  0 0.55627723E+03</rscale>
<asrwt>0</asrwt>
<pdfrwt beam="1">  1        2 0.34109683E-01 0.55627723E+03</pdfrwt>
<pdfrwt beam="2">  1       -2 0.26885170E+00 0.55627723E+03</pdfrwt>
<totfact> 0.80163094E+00</totfact>
</mgrwt>
</event>
<event>
12    1  0.7781383E-008  0.4888255E+03  0.7818608E-02  0.1016737E+00
         -2   -1    0    0    0  501 -0.00000000000E+00  0.00000000000E+00  0.47225762624E+03  0.47225762624E+03  0.00000000000E+00 0.  1.
          2   -1    0    0  501    0  0.00000000000E+00 -0.00000000000E+00 -0.83081079968E+03  0.83081079968E+03  0.00000000000E+00 0. -1.
         23    2    1    2    0    0 -0.42216671303E+03  0.21145399714E+03 -0.21306390426E+03  0.52584502416E+03  0.90439126671E+02 0.  0.
    5000000    2    1    2    0    0  0.42216671303E+03 -0.21145399714E+03 -0.14548926918E+03  0.77722340177E+03  0.59997630145E+03 0.  0.
         23    2    4    4    0    0  0.92904042457E+02 -0.81732736113E+02  0.21471195546E+03  0.26397139973E+03  0.90930054453E+02 0.  0.
         23    2    4    4    0    0  0.32926267058E+03 -0.12972126102E+03 -0.36020122464E+03  0.51325200203E+03  0.91875913946E+02 0.  0.
          3    1    3    3  502    0 -0.26211073136E+03  0.82137234741E+02 -0.11262664320E+03  0.29687256792E+03  0.00000000000E+00 0. -1.
         -3    1    3    3    0  502 -0.16005598168E+03  0.12931676239E+03 -0.10043726107E+03  0.22897245624E+03  0.00000000000E+00 0.  1.
         15    1    5    5    0    0  0.24716220773E+02 -0.54807417594E+02  0.34338554969E+02  0.69260657512E+02  0.17770000000E+01 0.  1.
        -15    1    5    5    0    0  0.68187821683E+02 -0.26925318519E+02  0.18037340049E+03  0.19471074222E+03  0.17770000000E+01 0. -1.
          3    1    6    6  503    0  0.27811594775E+03 -0.73393233267E+02 -0.30510302837E+03  0.41931241933E+03  0.00000000000E+00 0. -1.
         -3    1    6    6    0  503  0.51146722826E+02 -0.56328027755E+02 -0.55098196266E+02  0.93939582703E+02  0.00000000000E+00 0.  1.
<mgrwt>
<rscale>  0 0.48882547E+03</rscale>
<asrwt>0</asrwt>
<pdfrwt beam="1">  1        2 0.12781705E+00 0.48882547E+03</pdfrwt>
<pdfrwt beam="2">  1       -2 0.72655019E-01 0.48882547E+03</pdfrwt>
<totfact> 0.58290256E+01</totfact>
</mgrwt>
</event>
<event>
12    1  0.7781383E-008  0.7324189E+03  0.7818608E-02  0.9663343E-01
          2   -1    0    0  501    0  0.00000000000E+00  0.00000000000E+00  0.93184218982E+03  0.93184218982E+03  0.00000000000E+00 0. -1.
         -2   -1    0    0    0  501 -0.00000000000E+00 -0.00000000000E+00 -0.77524701899E+03  0.77524701899E+03  0.00000000000E+00 0.  1.
         23    2    1    2    0    0 -0.41424931136E+01  0.68200586003E+03  0.35943517407E+03  0.77635530922E+03  0.91568381216E+02 0.  0.
    5000000    2    1    2    0    0  0.41424931136E+01 -0.68200586003E+03 -0.20284000324E+03  0.93073389959E+03  0.59997697587E+03 0.  0.
         23    2    4    4    0    0 -0.11070345240E+03 -0.80469442355E+02  0.14622605062E+03  0.22013904574E+03  0.91370433151E+02 0.  0.
         23    2    4    4    0    0  0.11484594552E+03 -0.60153641767E+03 -0.34906605386E+03  0.71059485385E+03  0.89790218705E+02 0.  0.
          2    1    3    3  502    0 -0.29043465677E+02  0.74497408987E+02  0.36458790580E+02  0.87878497113E+02  0.00000000000E+00 0. -1.
         -2    1    3    3    0  502  0.24900972563E+02  0.60750845104E+03  0.32297638349E+03  0.68847681211E+03  0.00000000000E+00 0.  1.
         15    1    5    5    0    0 -0.51954810636E+00 -0.50110053033E+02  0.40929894964E+02  0.64727902607E+02  0.17770000000E+01 0. -1.
        -15    1    5    5    0    0 -0.11018390430E+03 -0.30359389322E+02  0.10529615566E+03  0.15541114314E+03  0.17770000000E+01 0.  1.
          1    1    6    6  503    0  0.91498238995E+02 -0.48697983999E+03 -0.23941960896E+03  0.55031176750E+03  0.00000000000E+00 0. -1.
         -1    1    6    6    0  503  0.23347706521E+02 -0.11455657768E+03 -0.10964644490E+03  0.16028308635E+03  0.00000000000E+00 0.  1.
<mgrwt>
<rscale>  0 0.73241893E+03</rscale>
<asrwt>0</asrwt>
<pdfrwt beam="1">  1        2 0.14336034E+00 0.73241893E+03</pdfrwt>
<pdfrwt beam="2">  1       -2 0.11926877E+00 0.73241893E+03</pdfrwt>
<totfact> 0.15319690E+01</totfact>
</mgrwt>
</event>
<event>
12    1  0.7781383E-008  0.6248525E+03  0.7818608E-02  0.9855145E-01
          2   -1    0    0  501    0  0.00000000000E+00  0.00000000000E+00  0.31820463816E+04  0.31820463816E+04  0.00000000000E+00 0. -1.
         -2   -1    0    0    0  501 -0.00000000000E+00 -0.00000000000E+00 -0.13306958764E+03  0.13306958764E+03  0.00000000000E+00 0.  1.
         23    2    1    2    0    0  0.45983646757E+03 -0.17352306595E+03  0.15203065192E+04  0.16004678371E+04  0.92766124222E+02 0.  0.
    5000000    2    1    2    0    0 -0.45983646757E+03  0.17352306595E+03  0.15286702748E+04  0.17146481322E+04  0.60135312166E+03 0.  0.
         23    2    4    4    0    0 -0.51137004958E+03 -0.48373948582E+02  0.90854729026E+03  0.10477204684E+04  0.91764016262E+02 0.  0.
         23    2    4    4    0    0  0.51533582008E+02  0.22189701453E+03  0.62012298452E+03  0.66692766384E+03  0.91356432320E+02 0.  0.
          3    1    3    3  502    0  0.10692561225E+03 -0.81028018231E+02  0.45905884990E+03  0.47826107302E+03  0.00000000000E+00 0. -1.
         -3    1    3    3    0  502  0.35291085532E+03 -0.92495047719E+02  0.10612476693E+04  0.11222067640E+04  0.00000000000E+00 0.  1.
         15    1    5    5    0    0 -0.36284499924E+03  0.11213065010E+00  0.68197308635E+03  0.77249398333E+03  0.17770000000E+01 0. -1.
        -15    1    5    5    0    0 -0.14852505033E+03 -0.48486079233E+02  0.22657420392E+03  0.27522648504E+03  0.17770000000E+01 0.  1.
          4    1    6    6  503    0  0.58652943066E+02  0.18628553173E+03  0.41554762778E+03  0.45915389361E+03  0.00000000000E+00 0.  1.
         -4    1    6    6    0  503 -0.71193610576E+01  0.35611482803E+02  0.20457535674E+03  0.20777377023E+03  0.00000000000E+00 0. -1.
<mgrwt>
<rscale>  0 0.62485255E+03</rscale>
<asrwt>0</asrwt>
<pdfrwt beam="1">  1        2 0.48954554E+00 0.62485255E+03</pdfrwt>
<pdfrwt beam="2">  1       -2 0.20472247E-01 0.62485255E+03</pdfrwt>
<totfact> 0.29668714E+01</totfact>
</mgrwt>
</event>
<event>
12    1  0.7781383E-008  0.9009622E+03  0.7818608E-02  0.9424379E-01
         -2   -1    0    0    0  501 -0.00000000000E+00  0.00000000000E+00  0.22999569191E+03  0.22999569191E+03  0.00000000000E+00 0.  1.
          2   -1    0    0  501    0  0.00000000000E+00 -0.00000000000E+00 -0.37613563799E+04  0.37613563799E+04  0.00000000000E+00 0. -1.
         23    2    1    2    0    0  0.37316247538E+03 -0.70663683031E+03 -0.20728844070E+04  0.22234596179E+04  0.91307528834E+02 0.  0.
    5000000    2    1    2    0    0 -0.37316247538E+03  0.70663683031E+03 -0.14584762810E+04  0.17678924539E+04  0.59975396893E+03 0.  0.
         23    2    4    4    0    0 -0.49984662089E+03  0.66505052869E+03 -0.12096737464E+04  0.14709859140E+04  0.91379079483E+02 0.  0.
         23    2    4    4    0    0  0.12668414551E+03  0.41586301617E+02 -0.24880253457E+03  0.29690653990E+03  0.92046178759E+02 0.  0.
          2    1    3    3  502    0  0.34174752246E+03 -0.58615617438E+03 -0.17033616247E+04  0.18335242716E+04  0.00000000000E+00 0. -1.
         -2    1    3    3    0  502  0.31414952919E+02 -0.12048065593E+03 -0.36952278226E+03  0.38993534634E+03  0.00000000000E+00 0.  1.
         15    1    5    5    0    0 -0.20934144824E+03  0.20639204265E+03 -0.43260019403E+03  0.52303690388E+03  0.17770000000E+01 0. -1.
        -15    1    5    5    0    0 -0.29050517265E+03  0.45865848604E+03 -0.77707355239E+03  0.94794901008E+03  0.17770000000E+01 0.  1.
          2    1    6    6  503    0  0.60259032945E+02 -0.27438268388E+02 -0.10361339643E+03  0.12296237451E+03  0.00000000000E+00 0. -1.
         -2    1    6    6    0  503  0.66425112567E+02  0.69024570005E+02 -0.14518913813E+03  0.17394416540E+03  0.00000000000E+00 0.  1.
<mgrwt>
<rscale>  0 0.90096219E+03</rscale>
<asrwt>0</asrwt>
<pdfrwt beam="1">  1        2 0.57867025E+00 0.90096219E+03</pdfrwt>
<pdfrwt beam="2">  1       -2 0.35383951E-01 0.90096219E+03</pdfrwt>
<totfact> 0.41893380E+00</totfact>
</mgrwt>
</event>
<event>
12    1  0.7781383E-008  0.1344030E+04  0.7818608E-02  0.8995360E-01
          2   -1    0    0  501    0  0.00000000000E+00  0.00000000000E+00  0.32526956547E+04  0.32526956547E+04  0.00000000000E+00 0. -1.
         -2   -1    0    0    0  501 -0.00000000000E+00 -0.00000000000E+00 -0.57819638433E+03  0.57819638433E+03  0.00000000000E+00 0.  1.
         23    2    1    2    0    0 -0.30099843184E+03  0.12663511266E+04  0.11618719998E+04  0.17471329401E+04  0.91004037639E+02 0.  0.
    5000000    2    1    2    0    0  0.30099843184E+03 -0.12663511266E+04  0.15126272706E+04  0.20837590989E+04  0.59980454388E+03 0.  0.
         23    2    4    4    0    0  0.38268384572E+03 -0.12173951763E+04  0.14691556829E+04  0.19485386440E+04  0.99430807952E+02 0.  0.
         23    2    4    4    0    0 -0.81685413880E+02 -0.48955950262E+02  0.43471587615E+02  0.13522045484E+03  0.85589722349E+02 0.  0.
          2    1    3    3  502    0 -0.10993406360E+03  0.65739960499E+03  0.58524200698E+03  0.88699940570E+03  0.00000000000E+00 0. -1.
         -2    1    3    3    0  502 -0.19106436824E+03  0.60895152157E+03  0.57662999279E+03  0.86013353441E+03  0.00000000000E+00 0.  1.
         15    1    5    5    0    0  0.27978823326E+03 -0.76532155910E+03  0.89068815224E+03  0.12071980312E+04  0.17770000000E+01 0. -1.
        -15    1    5    5    0    0  0.10289561246E+03 -0.45207361719E+03  0.57846753071E+03  0.74134061283E+03  0.17770000000E+01 0.  1.
          2    1    6    6  503    0 -0.13825029701E+02  0.82088914327E+01  0.43622448591E+02  0.46491239668E+02  0.00000000000E+00 0. -1.
         -2    1    6    6    0  503 -0.67860384178E+02 -0.57164841695E+02 -0.15086097570E+00  0.88729215177E+02  0.00000000000E+00 0.  1.
<mgrwt>
<rscale>  0 0.13440300E+04</rscale>
<asrwt>0</asrwt>
<pdfrwt beam="1">  1        2 0.50041471E+00 0.13440300E+04</pdfrwt>
<pdfrwt beam="2">  1       -2 0.88953291E-01 0.13440300E+04</pdfrwt>
<totfact> 0.12722578E+00</totfact>
</mgrwt>
</event>
<event>
12    1  0.7781383E-008  0.7486386E+03  0.7818608E-02  0.9637489E-01
          2   -1    0    0  501    0  0.00000000000E+00  0.00000000000E+00  0.10642440374E+04  0.10642440374E+04  0.00000000000E+00 0.  1.
         -2   -1    0    0    0  501 -0.00000000000E+00 -0.00000000000E+00 -0.16406933293E+04  0.16406933293E+04  0.00000000000E+00 0. -1.
         23    2    1    2    0    0 -0.47170723069E+03  0.45195024707E+03 -0.13665107866E+04  0.15175284890E+04  0.93670954625E+02 0.  0.
    5000000    2    1    2    0    0  0.47170723069E+03 -0.45195024707E+03  0.79006149466E+03  0.11874088777E+04  0.59914600899E+03 0.  0.
         23    2    4    4    0    0 -0.23658677468E+02 -0.32297894103E+03  0.16538646899E+03  0.37502001660E+03  0.91718042713E+02 0.  0.
         23    2    4    4    0    0  0.49536590816E+03 -0.12897130604E+03  0.62467502568E+03  0.81238886106E+03  0.87953357635E+02 0.  0.
          2    1    3    3  502    0 -0.37425289692E+03  0.36565302399E+03 -0.10004457116E+04  0.11290079658E+04  0.00000000000E+00 0. -1.
         -2    1    3    3    0  502 -0.97454333772E+02  0.86297223088E+02 -0.36606507492E+03  0.38852052321E+03  0.00000000000E+00 0.  1.
         15    1    5    5    0    0 -0.10494659100E+02 -0.39323212983E+02 -0.90827554562E+01  0.41738556811E+02  0.17770000000E+01 0. -1.
        -15    1    5    5    0    0 -0.13164018368E+02 -0.28365572805E+03  0.17446922444E+03  0.33328145979E+03  0.17770000000E+01 0.  1.
          1    1    6    6  503    0  0.37877692847E+03 -0.13579868973E+03  0.47441553103E+03  0.62207985159E+03  0.00000000000E+00 0. -1.
         -1    1    6    6    0  503  0.11658897969E+03  0.68273836870E+01  0.15025949464E+03  0.19030900947E+03  0.00000000000E+00 0.  1.
<mgrwt>
<rscale>  0 0.74863858E+03</rscale>
<asrwt>0</asrwt>
<pdfrwt beam="1">  1        2 0.16372985E+00 0.74863858E+03</pdfrwt>
<pdfrwt beam="2">  1       -2 0.25241436E+00 0.74863858E+03</pdfrwt>
<totfact> 0.14748992E+00</totfact>
</mgrwt>
</event>
<event>
12    1  0.7781383E-008  0.9302338E+03  0.7818608E-02  0.9388557E-01
          2   -1    0    0  501    0  0.00000000000E+00  0.00000000000E+00  0.67475599183E+03  0.67475599183E+03  0.00000000000E+00 0. -1.
         -2   -1    0    0    0  501 -0.00000000000E+00 -0.00000000000E+00 -0.18257876117E+04  0.18257876117E+04  0.00000000000E+00 0.  1.
         23    2    1    2    0    0  0.55963374713E+03 -0.73943081220E+03 -0.10303434311E+04  0.13894407910E+04  0.94817027110E+02 0.  0.
    5000000    2    1    2    0    0 -0.55963374713E+03  0.73943081220E+03 -0.12068818881E+03  0.11111028126E+04  0.60002996951E+03 0.  0.
         23    2    4    4    0    0 -0.45210012795E+03  0.59527513847E+03 -0.32860535913E+03  0.82132160634E+03  0.88547630227E+02 0.  0.
         23    2    4    4    0    0 -0.10753361918E+03  0.14415567373E+03  0.20791717032E+03  0.28978120627E+03  0.91647478255E+02 0.  0.
          4    1    3    3  502    0  0.27562438107E+03 -0.40279508760E+03 -0.47996340543E+03  0.68452724751E+03  0.00000000000E+00 0. -1.
         -4    1    3    3    0  502  0.28400936606E+03 -0.33663572460E+03 -0.55038002567E+03  0.70491354345E+03  0.00000000000E+00 0.  1.
         15    1    5    5    0    0 -0.27823096742E+03  0.29842678130E+03 -0.16082253636E+03  0.43856363388E+03  0.17770000000E+01 0. -1.
        -15    1    5    5    0    0 -0.17386916052E+03  0.29684835718E+03 -0.16778282276E+03  0.38275797246E+03  0.17770000000E+01 0.  1.
          3    1    6    6  503    0 -0.60766362684E+02  0.77047771507E+02  0.45995401888E+02  0.10837198403E+03  0.00000000000E+00 0. -1.
         -3    1    6    6    0  503 -0.46767256496E+02  0.67107902222E+02  0.16192176843E+03  0.18140922224E+03  0.00000000000E+00 0.  1.
<mgrwt>
<rscale>  0 0.93023377E+03</rscale>
<asrwt>0</asrwt>
<pdfrwt beam="1">  1        2 0.10380862E+00 0.93023377E+03</pdfrwt>
<pdfrwt beam="2">  1       -2 0.28089040E+00 0.93023377E+03</pdfrwt>
<totfact> 0.18050046E+00</totfact>
</mgrwt>
</event>
<event>
12    1  0.7781383E-008  0.4869270E+03  0.7818608E-02  0.1017249E+00
          2   -1    0    0  501    0  0.00000000000E+00  0.00000000000E+00  0.58423459062E+03  0.58423459062E+03  0.00000000000E+00 0. -1.
         -2   -1    0    0    0  501 -0.00000000000E+00 -0.00000000000E+00 -0.58888867510E+03  0.58888867510E+03  0.00000000000E+00 0.  1.
         23    2    1    2    0    0 -0.14443874483E+03 -0.35880266135E+03  0.17947935424E+03  0.43606959079E+03  0.91334268556E+02 0.  0.
    5000000    2    1    2    0    0  0.14443874483E+03  0.35880266135E+03 -0.18413343872E+03  0.73705367493E+03  0.59978420759E+03 0.  0.
         23    2    4    4    0    0 -0.14684258511E+03  0.96474310989E+02 -0.26040391720E+03  0.32695225572E+03  0.90650647792E+02 0.  0.
         23    2    4    4    0    0  0.29128132994E+03  0.26232835036E+03  0.76270478480E+02  0.41010141921E+03  0.93300651540E+02 0.  0.
          3    1    3    3  502    0 -0.20220703470E+02 -0.97719626642E+02  0.87347466387E+02  0.13261818188E+03  0.00000000000E+00 0. -1.
         -3    1    3    3    0  502 -0.12421804136E+03 -0.26108303471E+03  0.92131887851E+02  0.30345140891E+03  0.00000000000E+00 0.  1.
         15    1    5    5    0    0 -0.57089185055E+02 -0.51068985722E+01 -0.47066570376E+02  0.74186759191E+02  0.17770000000E+01 0. -1.
        -15    1    5    5    0    0 -0.89753400057E+02  0.10158120956E+03 -0.21333734682E+03  0.25276549653E+03  0.17770000000E+01 0.  1.
          1    1    6    6  503    0  0.12026553929E+03  0.11165443574E+03  0.79070163819E+02  0.18216092821E+03  0.00000000000E+00 0. -1.
         -1    1    6    6    0  503  0.17101579066E+03  0.15067391462E+03 -0.27996853392E+01  0.22794049100E+03  0.00000000000E+00 0.  1.
<mgrwt>
<rscale>  0 0.48692698E+03</rscale>
<asrwt>0</asrwt>
<pdfrwt beam="1">  1        2 0.89882245E-01 0.48692698E+03</pdfrwt>
<pdfrwt beam="2">  1       -2 0.90598257E-01 0.48692698E+03</pdfrwt>
<totfact> 0.55157565E+01</totfact>
</mgrwt>
</event>
<event>
12    1  0.7781383E-008  0.3462663E+03  0.7818608E-02  0.1064158E+00
         -2   -1    0    0    0  501 -0.00000000000E+00  0.00000000000E+00  0.29036298437E+03  0.29036298437E+03  0.00000000000E+00 0.  1.
          2   -1    0    0  501    0  0.00000000000E+00 -0.00000000000E+00 -0.19429126071E+04  0.19429126071E+04  0.00000000000E+00 0. -1.
         23    2    1    2    0    0  0.27573701909E+03 -0.16444999576E+03 -0.14988753452E+04  0.15356319160E+04  0.91996609519E+02 0.  0.
    5000000    2    1    2    0    0 -0.27573701909E+03  0.16444999576E+03 -0.15367427756E+03  0.69764367551E+03  0.60001350784E+03 0.  0.
         23    2    4    4    0    0 -0.18683732330E+03  0.11128415953E+03  0.20619589304E+03  0.31248331030E+03  0.88525269657E+02 0.  0.
         23    2    4    4    0    0 -0.88899695793E+02  0.53165836225E+02 -0.35987017059E+03  0.38516036521E+03  0.90067781099E+02 0.  0.
          2    1    3    3  502    0  0.19630377711E+03 -0.65586842451E+02 -0.90461588928E+03  0.92799068635E+03  0.00000000000E+00 0. -1.
         -2    1    3    3    0  502  0.79433241981E+02 -0.98863153305E+02 -0.59425945591E+03  0.60764122963E+03  0.00000000000E+00 0.  1.
         15    1    5    5    0    0 -0.13977703423E+02 -0.15100881233E+02  0.18007740487E+02  0.27401628664E+02  0.17770000000E+01 0. -1.
        -15    1    5    5    0    0 -0.17285961987E+03  0.12638504076E+03  0.18818815255E+03  0.28508168163E+03  0.17770000000E+01 0.  1.
          2    1    6    6  503    0 -0.57900359731E+02  0.68224608304E+02 -0.32087615815E+03  0.33311943460E+03  0.00000000000E+00 0. -1.
         -2    1    6    6    0  503 -0.30999336062E+02 -0.15058772079E+02 -0.38994012440E+02  0.52040930612E+02  0.00000000000E+00 0.  1.
<mgrwt>
<rscale>  0 0.34626630E+03</rscale>
<asrwt>0</asrwt>
<pdfrwt beam="1">  1        2 0.29890963E+00 0.34626630E+03</pdfrwt>
<pdfrwt beam="2">  1       -2 0.44671228E-01 0.34626630E+03</pdfrwt>
<totfact> 0.37896815E+01</totfact>
</mgrwt>
</event>
<event>
12    1  0.7781383E-008  0.7188040E+03  0.7818608E-02  0.9685604E-01
          2   -1    0    0  501    0  0.00000000000E+00  0.00000000000E+00  0.12597441248E+04  0.12597441248E+04  0.00000000000E+00 0.  1.
         -2   -1    0    0    0  501 -0.00000000000E+00 -0.00000000000E+00 -0.55231714040E+03  0.55231714040E+03  0.00000000000E+00 0. -1.
         23    2    1    2    0    0  0.35759680092E+03  0.47480131058E+03 -0.13800954006E+03  0.61716401572E+03  0.92374415285E+02 0.  0.
    5000000    2    1    2    0    0 -0.35759680092E+03 -0.47480131058E+03  0.84543652450E+03  0.11948972495E+04  0.59975391903E+03 0.  0.
         23    2    4    4    0    0  0.91928503131E+02 -0.34279391657E+03  0.38839475685E+03  0.53418799027E+03  0.92454328630E+02 0.  0.
         23    2    4    4    0    0 -0.44952530405E+03 -0.13200739401E+03  0.45704176765E+03  0.66070925924E+03  0.90280655845E+02 0.  0.
          4    1    3    3  502    0  0.17786916834E+03  0.17073736069E+03 -0.33510600153E+02  0.24882051303E+03  0.00000000000E+00 0. -1.
         -4    1    3    3    0  502  0.17972763258E+03  0.30406394989E+03 -0.10449893990E+03  0.36834350269E+03  0.00000000000E+00 0.  1.
         15    1    5    5    0    0  0.23355860968E+02 -0.81107107939E+01  0.20927920484E+02  0.32440953375E+02  0.17770000000E+01 0.  1.
        -15    1    5    5    0    0  0.68572642163E+02 -0.33468320577E+03  0.36746683637E+03  0.50174703690E+03  0.17770000000E+01 0. -1.
          2    1    6    6  503    0 -0.40829425030E+03 -0.10324837831E+03  0.43608361218E+03  0.60624527979E+03  0.00000000000E+00 0. -1.
         -2    1    6    6    0  503 -0.41231053744E+02 -0.28759015706E+02  0.20958155467E+02  0.54463979452E+02  0.00000000000E+00 0.  1.
<mgrwt>
<rscale>  0 0.71880401E+03</rscale>
<asrwt>0</asrwt>
<pdfrwt beam="1">  1        2 0.19380679E+00 0.71880401E+03</pdfrwt>
<pdfrwt beam="2">  1       -2 0.84971868E-01 0.71880401E+03</pdfrwt>
<totfact> 0.21543727E+01</totfact>
</mgrwt>
</event>
<event>
12    1  0.7781383E-008  0.7791983E+03  0.7818608E-02  0.9590625E-01
          2   -1    0    0  501    0  0.00000000000E+00  0.00000000000E+00  0.10816262888E+04  0.10816262888E+04  0.00000000000E+00 0. -1.
         -2   -1    0    0    0  501 -0.00000000000E+00 -0.00000000000E+00 -0.57637104114E+03  0.57637104114E+03  0.00000000000E+00 0.  1.
         23    2    1    2    0    0 -0.55198866378E+03  0.37734506994E+03  0.14903170424E+03  0.69159603089E+03  0.94941215121E+02 0.  0.
    5000000    2    1    2    0    0  0.55198866378E+03 -0.37734506994E+03  0.35622354341E+03  0.96640129904E+03  0.59996289148E+03 0.  0.
         23    2    4    4    0    0  0.25852189914E+03 -0.49472443329E+03  0.18168863503E+03  0.59359435293E+03  0.88077570999E+02 0.  0.
         23    2    4    4    0    0  0.29346676464E+03  0.11737936335E+03  0.17453490838E+03  0.37280694610E+03  0.92854337150E+02 0.  0.
          3    1    3    3  502    0 -0.29204666425E+03  0.15497731889E+03  0.42654800914E+02  0.33335964889E+03  0.00000000000E+00 0. -1.
         -3    1    3    3    0  502 -0.25994199954E+03  0.22236775105E+03  0.10637690333E+03  0.35823638200E+03  0.00000000000E+00 0.  1.
         15    1    5    5    0    0 -0.37611766164E+01 -0.12501324029E+02  0.14869494236E+02  0.19866784840E+02  0.17770000000E+01 0. -1.
        -15    1    5    5    0    0  0.26228307576E+03 -0.48222310926E+03  0.16681914079E+03  0.57372756810E+03  0.17770000000E+01 0.  1.
          3    1    6    6  503    0  0.93848447287E+01  0.22000346094E+02 -0.36077293790E+01  0.24188969596E+02  0.00000000000E+00 0. -1.
         -3    1    6    6    0  503  0.28408191992E+03  0.95379017253E+02  0.17814263776E+03  0.34861797651E+03  0.00000000000E+00 0.  1.
<mgrwt>
<rscale>  0 0.77919828E+03</rscale>
<asrwt>0</asrwt>
<pdfrwt beam="1">  1        2 0.16640404E+00 0.77919828E+03</pdfrwt>
<pdfrwt beam="2">  1       -2 0.88672468E-01 0.77919828E+03</pdfrwt>
<totfact> 0.24809538E+01</totfact>
</mgrwt>
</event>
<event>
12    1  0.7781383E-008  0.7957422E+03  0.7818608E-02  0.9566201E-01
          1   -1    0    0  501    0  0.00000000000E+00  0.00000000000E+00  0.10887505003E+04  0.10887505003E+04  0.00000000000E+00 0. -1.
         -1   -1    0    0    0  501 -0.00000000000E+00 -0.00000000000E+00 -0.67232167048E+03  0.67232167048E+03  0.00000000000E+00 0.  1.
         23    2    1    2    0    0  0.72900167076E+03 -0.16215583023E+03  0.16076959134E+03  0.76933719762E+03  0.91076412396E+02 0.  0.
    5000000    2    1    2    0    0 -0.72900167076E+03  0.16215583023E+03  0.25565923853E+03  0.99173497320E+03  0.60036544003E+03 0.  0.
         23    2    4    4    0    0 -0.14430732790E+03  0.19006156600E+03 -0.12862302061E+03  0.28573458734E+03  0.90290471344E+02 0.  0.
         23    2    4    4    0    0 -0.58469434286E+03 -0.27905735769E+02  0.38428225914E+03  0.70600038586E+03  0.90097089263E+02 0.  0.
          3    1    3    3  502    0  0.16860172721E+03 -0.34359712993E+02 -0.15365172188E+01  0.17207409213E+03  0.00000000000E+00 0. -1.
         -3    1    3    3    0  502  0.56039994355E+03 -0.12779611723E+03  0.16230610856E+03  0.59726310549E+03  0.00000000000E+00 0.  1.
         15    1    5    5    0    0  0.35398308858E+01  0.45968623927E+02 -0.86284087862E+01  0.46938810761E+02  0.17770000000E+01 0.  1.
        -15    1    5    5    0    0 -0.14784715879E+03  0.14409294207E+03 -0.11999461182E+03  0.23879577658E+03  0.17770000000E+01 0. -1.
          4    1    6    6  503    0 -0.43319386145E+03 -0.59538448567E+02  0.29219678111E+03  0.52590940983E+03  0.00000000000E+00 0. -1.
         -4    1    6    6    0  503 -0.15150048141E+03  0.31632712798E+02  0.92085478028E+02  0.18009097603E+03  0.00000000000E+00 0.  1.
<mgrwt>
<rscale>  0 0.79574223E+03</rscale>
<asrwt>0</asrwt>
<pdfrwt beam="1">  1        1 0.16750008E+00 0.79574223E+03</pdfrwt>
<pdfrwt beam="2">  1       -1 0.10343410E+00 0.79574223E+03</pdfrwt>
<totfact> 0.11700549E+01</totfact>
</mgrwt>
</event>
<event>
12    1  0.7781383E-008  0.4527469E+03  0.7818608E-02  0.1026906E+00
         -1   -1    0    0    0  501 -0.00000000000E+00  0.00000000000E+00  0.43406350639E+03  0.43406350639E+03  0.00000000000E+00 0.  1.
          1   -1    0    0  501    0  0.00000000000E+00 -0.00000000000E+00 -0.64121091120E+03  0.64121091120E+03  0.00000000000E+00 0. -1.
         23    2    1    2    0    0  0.18372706490E+03 -0.22803048096E+03 -0.26501544450E+03  0.40516103173E+03  0.90381088659E+02 0.  0.
    5000000    2    1    2    0    0 -0.18372706490E+03  0.22803048096E+03  0.57868039696E+02  0.67011338586E+03  0.59995808626E+03 0.  0.
         23    2    4    4    0    0  0.17870145921E+03  0.13636935811E+03  0.13928777357E+03  0.27681535824E+03  0.81822034519E+02 0.  0.
         23    2    4    4    0    0 -0.36242852411E+03  0.91661122851E+02 -0.81419733875E+02  0.39329802762E+03  0.91093188216E+02 0.  0.
          3    1    3    3  502    0  0.10672723421E+03 -0.11959942759E+03 -0.20234702360E+03  0.25814539230E+03  0.00000000000E+00 0. -1.
         -3    1    3    3    0  502  0.76999830683E+02 -0.10843105338E+03 -0.62668420897E+02  0.14701563944E+03  0.00000000000E+00 0.  1.
         15    1    5    5    0    0  0.11413744745E+03  0.46682055482E+02  0.44174784620E+02  0.13100053641E+03  0.17770000000E+01 0. -1.
        -15    1    5    5    0    0  0.64564011759E+02  0.89687302631E+02  0.95112988951E+02  0.14581482183E+03  0.17770000000E+01 0.  1.
          2    1    6    6  503    0 -0.13071244508E+03  0.44995475128E+01 -0.62649055229E+02  0.14502032047E+03  0.00000000000E+00 0. -1.
         -2    1    6    6    0  503 -0.23171607902E+03  0.87161575338E+02 -0.18770678646E+02  0.24827770716E+03  0.00000000000E+00 0.  1.
<mgrwt>
<rscale>  0 0.45274693E+03</rscale>
<asrwt>0</asrwt>
<pdfrwt beam="1">  1        1 0.98647832E-01 0.45274693E+03</pdfrwt>
<pdfrwt beam="2">  1       -1 0.66779001E-01 0.45274693E+03</pdfrwt>
<totfact> 0.74207033E+01</totfact>
</mgrwt>
</event>
<event>
12    1  0.7781383E-008  0.1129349E+04  0.7818608E-02  0.9177049E-01
         -2   -1    0    0    0  501 -0.00000000000E+00  0.00000000000E+00  0.72344771412E+03  0.72344771412E+03  0.00000000000E+00 0.  1.
          2   -1    0    0  501    0  0.00000000000E+00 -0.00000000000E+00 -0.19294651666E+04  0.19294651666E+04  0.00000000000E+00 0. -1.
         23    2    1    2    0    0 -0.10757711451E+04  0.23389704461E+03 -0.48424420431E+03  0.12061732967E+04  0.91488732072E+02 0.  0.
    5000000    2    1    2    0    0  0.10757711451E+04 -0.23389704461E+03 -0.72177324817E+03  0.14467395841E+04  0.60008950855E+03 0.  0.
         23    2    4    4    0    0  0.49082694652E+03  0.57772272718E+02 -0.58701237773E+03  0.77278777544E+03  0.91480529792E+02 0.  0.
         23    2    4    4    0    0  0.58494419856E+03 -0.29166931733E+03 -0.13476087044E+03  0.67395180863E+03  0.93914014180E+02 0.  0.
          1    1    3    3  502    0 -0.34584872714E+03  0.68207370066E+02 -0.10959687350E+03  0.36915452330E+03  0.00000000000E+00 0. -1.
         -1    1    3    3    0  502 -0.72992241794E+03  0.16568967454E+03 -0.37464733080E+03  0.83701877335E+03  0.00000000000E+00 0.  1.
         15    1    5    5    0    0  0.15455829704E+03  0.55423008447E+02 -0.16009966738E+03  0.22933608149E+03  0.17770000000E+01 0.  1.
        -15    1    5    5    0    0  0.33626864949E+03  0.23492642711E+01 -0.42691271035E+03  0.54345169395E+03  0.17770000000E+01 0. -1.
          4    1    6    6  503    0  0.18690472661E+03 -0.12959478871E+03 -0.78033897399E+02  0.24045264656E+03  0.00000000000E+00 0. -1.
         -4    1    6    6    0  503  0.39803947194E+03 -0.16207452861E+03 -0.56726973045E+02  0.43349916208E+03  0.00000000000E+00 0.  1.
<mgrwt>
<rscale>  0 0.11293490E+04</rscale>
<asrwt>0</asrwt>
<pdfrwt beam="1">  1        2 0.29684080E+00 0.11293490E+04</pdfrwt>
<pdfrwt beam="2">  1       -2 0.11129965E+00 0.11293490E+04</pdfrwt>
<totfact> 0.45957548E+00</totfact>
</mgrwt>
</event>
