<event>
12    1  0.1980523E-007  0.1747431E+04  0.7818608E-02  0.8734766E-01
         -1   -1    0    0    0  501 -0.00000000000E+00  0.00000000000E+00  0.95714332575E+03  0.95714332575E+03  0.00000000000E+00 0.  1.
          1   -1    0    0  501    0  0.00000000000E+00 -0.00000000000E+00 -0.79755906858E+03  0.79755906858E+03  0.00000000000E+00 0. -1.
         23    2    1    2    0    0 -0.20699786882E+03 -0.14175407600E+03 -0.52941247036E+03  0.59318890166E+03  0.93022435598E+02 0.  0.
        254    2    1    2    0    0  0.20699786882E+03  0.14175407600E+03  0.68899672753E+03  0.11615134927E+04  0.90080784152E+03 0.  0.
        -24    2    4    4    0    0 -0.34376594403E+03  0.98774955906E+02  0.36151538108E+03  0.51475704823E+03  0.79686459093E+02 0.  0.
         24    2    4    4    0    0  0.55076381285E+03  0.42979120090E+02  0.32748134645E+03  0.64675644443E+03  0.76562940313E+02 0.  0.
         13    1    3    3    0    0 -0.14457847386E+03 -0.13950336212E+03 -0.35469844586E+03  0.40764581519E+03  0.00000000000E+00 0. -1.
        -13    1    3    3    0    0 -0.62419394967E+02 -0.22507138733E+01 -0.17471402450E+03  0.18554308647E+03  0.00000000000E+00 0.  1.
          4    1    6    6  502    0  0.33349029971E+03  0.60698442492E+02  0.18279517535E+03  0.38511577098E+03  0.00000000000E+00 0. -1.
          1    1    5    5  503    0 -0.30818447931E+03  0.10335731357E+03  0.34857758406E+03  0.47662012092E+03  0.00000000000E+00 0. -1.
         -4    1    5    5    0  503 -0.35581464719E+02 -0.45823576619E+01  0.12937797014E+02  0.38136927313E+02  0.00000000000E+00 0.  1.
         -3    1    6    6    0  502  0.21727351314E+03 -0.17719322402E+02  0.14468617110E+03  0.26164067346E+03  0.00000000000E+00 0.  1.
<mgrwt>
<rscale>  0 0.17474305E+04</rscale>
<asrwt>0</asrwt>
<pdfrwt beam="1">  1        1 0.12270140E+00 0.17474305E+04</pdfrwt>
<pdfrwt beam="2">  1       -1 0.14725282E+00 0.17474305E+04</pdfrwt>
<totfact> 0.77226930E+00</totfact>
</mgrwt>
</event>
<event>
12    1  0.1980523E-007  0.1854395E+04  0.7818608E-02  0.8677896E-01
         -1   -1    0    0    0  501 -0.00000000000E+00  0.00000000000E+00  0.55219363788E+03  0.55219363788E+03  0.00000000000E+00 0. -1.
          1   -1    0    0  501    0  0.00000000000E+00 -0.00000000000E+00 -0.15568720751E+04  0.15568720751E+04  0.00000000000E+00 0.  1.
         23    2    1    2    0    0  0.18734981444E+03 -0.51315196805E+03  0.12136948304E+03  0.56712612810E+03  0.92068444514E+02 0.  0.
        254    2    1    2    0    0 -0.18734981444E+03  0.51315196805E+03 -0.11260479203E+04  0.15419395849E+04  0.90064913782E+03 0.  0.
        -24    2    4    4    0    0 -0.38962098852E+01  0.52167082751E+03 -0.15472966123E+03  0.55010689612E+03  0.80750828891E+02 0.  0.
         24    2    4    4    0    0 -0.18345360455E+03 -0.85188594584E+01 -0.97131825902E+03  0.99183268877E+03  0.80901954310E+02 0.  0.
         11    1    3    3    0    0  0.18793959083E+03 -0.42169155203E+03  0.89507625551E+02  0.47027297381E+03  0.00000000000E+00 0. -1.
        -11    1    3    3    0    0 -0.58977639651E+00 -0.91460416017E+02  0.31861857484E+02  0.96853154293E+02  0.00000000000E+00 0.  1.
          2    1    6    6  502    0 -0.12283397813E+03 -0.78721943607E+01 -0.81372151006E+03  0.82297803954E+03  0.00000000000E+00 0. -1.
          3    1    5    5  503    0 -0.11792790142E+02  0.43085856278E+03 -0.95725525374E+02  0.44152185363E+03  0.00000000000E+00 0. -1.
         -4    1    5    5    0  503  0.78965802571E+01  0.90812264727E+02 -0.59004135857E+02  0.10858504249E+03  0.00000000000E+00 0.  1.
         -1    1    6    6    0  502 -0.60619626424E+02 -0.64666509767E+00 -0.15759674896E+03  0.16885464923E+03  0.00000000000E+00 0.  1.
<mgrwt>
<rscale>  0 0.18543946E+04</rscale>
<asrwt>0</asrwt>
<pdfrwt beam="1">  1        1 0.23951878E+00 0.18543946E+04</pdfrwt>
<pdfrwt beam="2">  1       -1 0.84952869E-01 0.18543946E+04</pdfrwt>
<totfact> 0.76921239E+00</totfact>
</mgrwt>
</event>
<event>
12    1  0.1980523E-007  0.2528455E+04  0.7818608E-02  0.8392918E-01
         -1   -1    0    0    0  501 -0.00000000000E+00  0.00000000000E+00  0.12253048806E+04  0.12253048806E+04  0.00000000000E+00 0.  1.
          1   -1    0    0  501    0  0.00000000000E+00 -0.00000000000E+00 -0.13043869159E+04  0.13043869159E+04  0.00000000000E+00 0. -1.
         23    2    1    2    0    0 -0.10310876923E+04  0.38231266845E+03 -0.11420694521E+03  0.11083412296E+04  0.77924638074E+02 0.  0.
        254    2    1    2    0    0  0.10310876923E+04 -0.38231266845E+03  0.35124909915E+02  0.14213505670E+04  0.89983268956E+03 0.  0.
        -24    2    4    4    0    0  0.96445029081E+03 -0.57555560206E+03  0.20341873088E+03  0.11440736705E+04  0.78081809911E+02 0.  0.
         24    2    4    4    0    0  0.66637401522E+02  0.19324293361E+03 -0.16829382096E+03  0.27727689643E+03  0.82318238855E+02 0.  0.
         11    1    3    3    0    0 -0.50178374695E+03  0.17000193411E+03 -0.91111768219E+02  0.53757691599E+03  0.00000000000E+00 0.  1.
        -11    1    3    3    0    0 -0.52930394538E+03  0.21231073434E+03 -0.23095176992E+02  0.57076431363E+03  0.00000000000E+00 0. -1.
          4    1    6    6  502    0  0.71097310428E+02  0.16376999078E+03 -0.17116362413E+03  0.24733059587E+03  0.00000000000E+00 0. -1.
          3    1    5    5  503    0  0.72725179590E+03 -0.41169808443E+03  0.17975955477E+03  0.85481225125E+03  0.00000000000E+00 0. -1.
         -4    1    5    5    0  503  0.23719849491E+03 -0.16385751763E+03  0.23659176105E+02  0.28926141928E+03  0.00000000000E+00 0.  1.
         -3    1    6    6    0  502 -0.44599089062E+01  0.29472942838E+02  0.28698031704E+01  0.29946300559E+02  0.00000000000E+00 0.  1.
<mgrwt>
<rscale>  0 0.25284554E+04</rscale>
<asrwt>0</asrwt>
<pdfrwt beam="1">  1        1 0.20067491E+00 0.25284554E+04</pdfrwt>
<pdfrwt beam="2">  1       -1 0.18850844E+00 0.25284554E+04</pdfrwt>
<totfact> 0.14407666E+00</totfact>
</mgrwt>
</event>
<event>
12    1  0.1980523E-007  0.2547739E+04  0.7818608E-02  0.8386173E-01
          2   -1    0    0  501    0  0.00000000000E+00  0.00000000000E+00  0.37804814739E+04  0.37804814739E+04  0.00000000000E+00 0.  1.
         -2   -1    0    0    0  501 -0.00000000000E+00 -0.00000000000E+00 -0.42924241491E+03  0.42924241491E+03  0.00000000000E+00 0. -1.
         23    2    1    2    0    0  0.84953090929E+03 -0.32682105092E+03  0.25206530836E+04  0.26816324014E+04  0.94581197971E+02 0.  0.
        254    2    1    2    0    0 -0.84953090929E+03  0.32682105092E+03  0.83058597532E+03  0.15280914874E+04  0.90370114875E+03 0.  0.
        -24    2    4    4    0    0 -0.23683583158E+03  0.56573593299E+03  0.43660455326E+03  0.75725504104E+03  0.81629064972E+02 0.  0.
         24    2    4    4    0    0 -0.61269507771E+03 -0.23891488207E+03  0.39398142207E+03  0.77083644635E+03  0.80572246868E+02 0.  0.
         13    1    3    3    0    0  0.38402355367E+03 -0.15233636388E+03  0.12826742108E+04  0.13475658012E+04  0.00000000000E+00 0.  1.
        -13    1    3    3    0    0  0.46550735562E+03 -0.17448468705E+03  0.12379788728E+04  0.13340666002E+04  0.00000000000E+00 0. -1.
          2    1    6    6  502    0 -0.51895509980E+03 -0.20018919596E+03  0.36521683559E+03  0.66541223823E+03  0.00000000000E+00 0. -1.
          3    1    5    5  503    0 -0.20349729359E+03  0.39504575767E+03  0.30106365194E+03  0.53676030188E+03  0.00000000000E+00 0. -1.
         -4    1    5    5    0  503 -0.33338537996E+02  0.17069017532E+03  0.13554090131E+03  0.22049473916E+03  0.00000000000E+00 0.  1.
         -1    1    6    6    0  502 -0.93739977904E+02 -0.38725686108E+02  0.28764586480E+02  0.10542420812E+03  0.00000000000E+00 0.  1.
<mgrwt>
<rscale>  0 0.25477386E+04</rscale>
<asrwt>0</asrwt>
<pdfrwt beam="1">  1        2 0.58161251E+00 0.25477386E+04</pdfrwt>
<pdfrwt beam="2">  1       -2 0.66037297E-01 0.25477386E+04</pdfrwt>
<totfact> 0.95437238E-01</totfact>
</mgrwt>
</event>
<event>
12    1  0.1980523E-007  0.2116902E+04  0.7818608E-02  0.8553834E-01
         -2   -1    0    0    0  501 -0.00000000000E+00  0.00000000000E+00  0.30063147623E+03  0.30063147623E+03  0.00000000000E+00 0.  1.
          2   -1    0    0  501    0  0.00000000000E+00 -0.00000000000E+00 -0.37265524125E+04  0.37265524125E+04  0.00000000000E+00 0. -1.
         23    2    1    2    0    0  0.49940591771E+03  0.17292614265E+03 -0.26918887651E+04  0.27447836733E+04  0.90898670085E+02 0.  0.
        254    2    1    2    0    0 -0.49940591771E+03 -0.17292614265E+03 -0.73403217119E+03  0.12824002154E+04  0.90908600403E+03 0.  0.
        -24    2    4    4    0    0 -0.24957897290E+03 -0.36544797396E+03  0.31474012627E+02  0.45063443181E+03  0.78986658872E+02 0.  0.
         24    2    4    4    0    0 -0.24982694482E+03  0.19252183131E+03 -0.76550618382E+03  0.83176578362E+03  0.79727306717E+02 0.  0.
         13    1    3    3    0    0  0.71382301100E+02  0.49523902909E+02 -0.32936381807E+03  0.34062967358E+03  0.00000000000E+00 0. -1.
        -13    1    3    3    0    0  0.42802361661E+03  0.12340223974E+03 -0.23625249470E+04  0.24041539997E+04  0.00000000000E+00 0.  1.
          2    1    6    6  502    0 -0.62824309260E+01  0.20386026090E+02 -0.21852690904E+02  0.30538485520E+02  0.00000000000E+00 0. -1.
          1    1    5    5  503    0 -0.70483111557E+02 -0.16536075561E+03  0.29065067270E+02  0.18209016077E+03  0.00000000000E+00 0. -1.
         -2    1    5    5    0  503 -0.17909586134E+03 -0.20008721835E+03  0.24089453575E+01  0.26854427105E+03  0.00000000000E+00 0.  1.
         -1    1    6    6    0  502 -0.24354451389E+03  0.17213580522E+03 -0.74365349292E+03  0.80122729810E+03  0.00000000000E+00 0.  1.
<mgrwt>
<rscale>  0 0.21169024E+04</rscale>
<asrwt>0</asrwt>
<pdfrwt beam="1">  1        2 0.57331574E+00 0.21169024E+04</pdfrwt>
<pdfrwt beam="2">  1       -2 0.46250997E-01 0.21169024E+04</pdfrwt>
<totfact> 0.22890900E+00</totfact>
</mgrwt>
</event>
<event>
12    1  0.1980523E-007  0.1630164E+04  0.7818608E-02  0.8802229E-01
          1   -1    0    0  501    0  0.00000000000E+00  0.00000000000E+00  0.21015079695E+04  0.21015079695E+04  0.00000000000E+00 0. -1.
         -1   -1    0    0    0  501 -0.00000000000E+00 -0.00000000000E+00 -0.31613421458E+03  0.31613421458E+03  0.00000000000E+00 0.  1.
         23    2    1    2    0    0 -0.72295278033E+02  0.39420340165E+03  0.12048263747E+04  0.12730866748E+04  0.92304709247E+02 0.  0.
        254    2    1    2    0    0  0.72295278033E+02 -0.39420340165E+03  0.58054738030E+03  0.11445555093E+04  0.90130412408E+03 0.  0.
        -24    2    4    4    0    0  0.17158143907E+02  0.28683760037E+03  0.17898467375E+03  0.34820641208E+03  0.81498350237E+02 0.  0.
         24    2    4    4    0    0  0.55137134126E+02 -0.68104100201E+03  0.40156270655E+03  0.79634909726E+03  0.77860949294E+02 0.  0.
         11    1    3    3    0    0 -0.93689625395E+02  0.28810465108E+03  0.89865645892E+03  0.94834881085E+03  0.00000000000E+00 0.  1.
        -11    1    3    3    0    0  0.21394347362E+02  0.10609875057E+03  0.30616991573E+03  0.32473786393E+03  0.00000000000E+00 0. -1.
          4    1    6    6  502    0  0.87841991966E+01 -0.26465050390E+02  0.34806760194E+02  0.44599008990E+02  0.00000000000E+00 0. -1.
          3    1    5    5  503    0  0.19379636414E+02  0.10503833800E+02  0.92947248968E+01  0.23922640802E+02  0.00000000000E+00 0. -1.
         -4    1    5    5    0  503 -0.22214925072E+01  0.27633376657E+03  0.16968994885E+03  0.32428377128E+03  0.00000000000E+00 0.  1.
         -3    1    6    6    0  502  0.46352934929E+02 -0.65457595162E+03  0.36675594636E+03  0.75175008827E+03  0.00000000000E+00 0.  1.
<mgrwt>
<rscale>  0 0.16301639E+04</rscale>
<asrwt>0</asrwt>
<pdfrwt beam="1">  1        1 0.32330891E+00 0.16301639E+04</pdfrwt>
<pdfrwt beam="2">  1       -1 0.48636034E-01 0.16301639E+04</pdfrwt>
<totfact> 0.10301453E+01</totfact>
</mgrwt>
</event>
<event>
12    1  0.1980523E-007  0.2618516E+04  0.7818608E-02  0.8361939E-01
         -1   -1    0    0    0  501 -0.00000000000E+00  0.00000000000E+00  0.10602833255E+04  0.10602833255E+04  0.00000000000E+00 0.  1.
          1   -1    0    0  501    0  0.00000000000E+00 -0.00000000000E+00 -0.16166965052E+04  0.16166965052E+04  0.00000000000E+00 0. -1.
         23    2    1    2    0    0 -0.95647357376E+03 -0.20682897389E+03 -0.86835652361E+03  0.13114753615E+04  0.91129851956E+02 0.  0.
        254    2    1    2    0    0  0.95647357376E+03  0.20682897389E+03  0.31194334390E+03  0.13655044692E+04  0.89981880605E+03 0.  0.
        -24    2    4    4    0    0 -0.14165831101E+03 -0.41690754538E+02 -0.58104648421E+02  0.17773056494E+03  0.80042535277E+02 0.  0.
         24    2    4    4    0    0  0.10981318848E+04  0.24851972843E+03  0.37004799232E+03  0.11877739042E+04  0.78839324784E+02 0.  0.
         11    1    3    3    0    0 -0.66792154066E+03 -0.10124203053E+03 -0.59660283884E+03  0.90127913575E+03  0.00000000000E+00 0. -1.
        -11    1    3    3    0    0 -0.28855203311E+03 -0.10558694336E+03 -0.27175368477E+03  0.41019622573E+03  0.00000000000E+00 0.  1.
          2    1    6    6  502    0  0.21941204394E+03  0.18307853089E+02  0.65673182687E+02  0.22976028690E+03  0.00000000000E+00 0. -1.
          3    1    5    5  503    0 -0.11271421558E+03 -0.23133702792E+02 -0.77045752495E+02  0.13847638996E+03  0.00000000000E+00 0. -1.
         -4    1    5    5    0  503 -0.28944095428E+02 -0.18557051746E+02  0.18941104075E+02  0.39254174978E+02  0.00000000000E+00 0.  1.
         -1    1    6    6    0  502  0.87871984083E+03  0.23021187534E+03  0.30437480963E+03  0.95801361731E+03  0.00000000000E+00 0.  1.
<mgrwt>
<rscale>  0 0.26185159E+04</rscale>
<asrwt>0</asrwt>
<pdfrwt beam="1">  1        1 0.24872254E+00 0.26185159E+04</pdfrwt>
<pdfrwt beam="2">  1       -1 0.16312051E+00 0.26185159E+04</pdfrwt>
<totfact> 0.13229046E+00</totfact>
</mgrwt>
</event>
<event>
12    1  0.1980523E-007  0.3724819E+04  0.7818608E-02  0.8062484E-01
         -2   -1    0    0    0  501 -0.00000000000E+00  0.00000000000E+00  0.16493143445E+04  0.16493143445E+04  0.00000000000E+00 0.  1.
          2   -1    0    0  501    0  0.00000000000E+00 -0.00000000000E+00 -0.21030368728E+04  0.21030368728E+04  0.00000000000E+00 0. -1.
         23    2    1    2    0    0 -0.11508718455E+04  0.92077460652E+03  0.74396444789E+03  0.16536003157E+04  0.92623019671E+02 0.  0.
        254    2    1    2    0    0  0.11508718455E+04 -0.92077460652E+03 -0.11976869762E+04  0.20987509015E+04  0.89329131478E+03 0.  0.
        -24    2    4    4    0    0  0.63192392229E+03 -0.66923702438E+03 -0.20241146640E+03  0.94576621947E+03  0.79355540479E+02 0.  0.
         24    2    4    4    0    0  0.51894792317E+03 -0.25153758215E+03 -0.99527550977E+03  0.11529846821E+04  0.78881141598E+02 0.  0.
         11    1    3    3    0    0 -0.77150854315E+03  0.62326039567E+03  0.54850298943E+03  0.11333730553E+04  0.00000000000E+00 0. -1.
        -11    1    3    3    0    0 -0.37936330231E+03  0.29751421085E+03  0.19546145845E+03  0.52022726047E+03  0.00000000000E+00 0.  1.
          2    1    6    6  502    0  0.28034137159E+03 -0.17734875510E+03 -0.59032141935E+03  0.67714344396E+03  0.00000000000E+00 0. -1.
          1    1    5    5  503    0  0.22105115127E+03 -0.28123388126E+03 -0.10016701600E+03  0.37146943150E+03  0.00000000000E+00 0. -1.
         -2    1    5    5    0  503  0.41087277103E+03 -0.38800314312E+03 -0.10224445040E+03  0.57429678798E+03  0.00000000000E+00 0.  1.
         -3    1    6    6    0  502  0.23860655158E+03 -0.74188827052E+02 -0.40495409042E+03  0.47584123809E+03  0.00000000000E+00 0.  1.
<mgrwt>
<rscale>  0 0.37248189E+04</rscale>
<asrwt>0</asrwt>
<pdfrwt beam="1">  1        2 0.32354413E+00 0.37248189E+04</pdfrwt>
<pdfrwt beam="2">  1       -2 0.25374067E+00 0.37248189E+04</pdfrwt>
<totfact> 0.28780704E-01</totfact>
</mgrwt>
</event>
<event>
12    1  0.1980523E-007  0.1799028E+04  0.7818608E-02  0.8706817E-01
          2   -1    0    0  501    0  0.00000000000E+00  0.00000000000E+00  0.29173439794E+04  0.29173439794E+04  0.00000000000E+00 0. -1.
         -2   -1    0    0    0  501 -0.00000000000E+00 -0.00000000000E+00 -0.27734987602E+03  0.27734987602E+03  0.00000000000E+00 0.  1.
         23    2    1    2    0    0  0.14614599731E+03 -0.65417106180E+03  0.10010386894E+04  0.12090025636E+04  0.10153969825E+03 0.  0.
        254    2    1    2    0    0 -0.14614599731E+03  0.65417106180E+03  0.16389554140E+04  0.19856912919E+04  0.89860816101E+03 0.  0.
        -24    2    4    4    0    0  0.36841756071E+03  0.25994097035E+03  0.80437950000E+03  0.92574211158E+03  0.81677842961E+02 0.  0.
         24    2    4    4    0    0 -0.51456355803E+03  0.39423009145E+03  0.83457591395E+03  0.10599491803E+04  0.82354650022E+02 0.  0.
         13    1    3    3    0    0  0.95514491398E+01 -0.61186854084E+02  0.15450651064E+03  0.16645516851E+03  0.00000000000E+00 0. -1.
        -13    1    3    3    0    0  0.13659454817E+03 -0.59298420771E+03  0.84653217881E+03  0.10425473951E+04  0.00000000000E+00 0.  1.
          2    1    6    6  502    0 -0.47457902422E+03  0.35561637937E+03  0.72145296694E+03  0.93390719186E+03  0.00000000000E+00 0. -1.
          3    1    5    5  503    0  0.36527078420E+03  0.25937095098E+03  0.76716741586E+03  0.88839286352E+03  0.00000000000E+00 0. -1.
         -4    1    5    5    0  503  0.31467765095E+01  0.57001936955E+00  0.37212084141E+02  0.37349248059E+02  0.00000000000E+00 0.  1.
         -1    1    6    6    0  502 -0.39984533806E+02  0.38613712085E+02  0.11312294701E+03  0.12604198842E+03  0.00000000000E+00 0.  1.
<mgrwt>
<rscale>  0 0.17990275E+04</rscale>
<asrwt>0</asrwt>
<pdfrwt beam="1">  1        2 0.44882213E+00 0.17990275E+04</pdfrwt>
<pdfrwt beam="2">  1       -2 0.42669214E-01 0.17990275E+04</pdfrwt>
<totfact> 0.96682858E+00</totfact>
</mgrwt>
</event>
<event>
12    1  0.1980523E-007  0.2065462E+04  0.7818608E-02  0.8576612E-01
          2   -1    0    0  501    0  0.00000000000E+00  0.00000000000E+00  0.86045098982E+03  0.86045098982E+03  0.00000000000E+00 0. -1.
         -2   -1    0    0    0  501 -0.00000000000E+00 -0.00000000000E+00 -0.12395055179E+04  0.12395055179E+04  0.00000000000E+00 0.  1.
         23    2    1    2    0    0 -0.32939240941E+03  0.74520572730E+03 -0.33632424955E+03  0.88627307912E+03  0.92385250837E+02 0.  0.
        254    2    1    2    0    0  0.32939240941E+03 -0.74520572730E+03 -0.42730278580E+02  0.12136834286E+04  0.89853806423E+03 0.  0.
        -24    2    4    4    0    0  0.43121042945E+02 -0.85574336096E+03 -0.16071138961E+03  0.87541448955E+03  0.79788806105E+02 0.  0.
         24    2    4    4    0    0  0.28627136646E+03  0.11053763367E+03  0.11798111103E+03  0.33826893909E+03  0.79601940175E+02 0.  0.
         11    1    3    3    0    0 -0.13218703368E+03  0.29599818491E+03 -0.18312053319E+03  0.37231903929E+03  0.00000000000E+00 0. -1.
        -11    1    3    3    0    0 -0.19720537573E+03  0.44920754238E+03 -0.15320371636E+03  0.51395403983E+03  0.00000000000E+00 0.  1.
          2    1    6    6  502    0  0.82245584620E+02 -0.50783657812E+01  0.34747105239E+02  0.89428671639E+02  0.00000000000E+00 0. -1.
          3    1    5    5  503    0 -0.14653062596E+02 -0.87540664345E+02 -0.32075381000E+02  0.94376428326E+02  0.00000000000E+00 0. -1.
         -4    1    5    5    0  503  0.57774105540E+02 -0.76820269662E+03 -0.12863600861E+03  0.78103806122E+03  0.00000000000E+00 0.  1.
         -1    1    6    6    0  502  0.20402578184E+03  0.11561599945E+03  0.83234005793E+02  0.24884026745E+03  0.00000000000E+00 0.  1.
<mgrwt>
<rscale>  0 0.20654624E+04</rscale>
<asrwt>0</asrwt>
<pdfrwt beam="1">  1        2 0.13237708E+00 0.20654624E+04</pdfrwt>
<pdfrwt beam="2">  1       -2 0.19069316E+00 0.20654624E+04</pdfrwt>
<totfact> 0.44212752E+00</totfact>
</mgrwt>
</event>
<event>
12    1  0.1980523E-007  0.3744423E+04  0.7818608E-02  0.8058188E-01
          1   -1    0    0  501    0  0.00000000000E+00  0.00000000000E+00  0.89422406671E+03  0.89422406671E+03  0.00000000000E+00 0. -1.
         -1   -1    0    0    0  501 -0.00000000000E+00 -0.00000000000E+00 -0.39197962694E+04  0.39197962694E+04  0.00000000000E+00 0.  1.
         23    2    1    2    0    0  0.10041669468E+04 -0.68814153718E+02  0.43649848362E+03  0.11008115511E+04  0.90379754520E+02 0.  0.
        254    2    1    2    0    0 -0.10041669468E+04  0.68814153718E+02 -0.34620706864E+04  0.37132087850E+04  0.88820008962E+03 0.  0.
        -24    2    4    4    0    0 -0.18597334437E+03 -0.12027346974E+03 -0.20839442005E+04  0.20971828385E+04  0.79376539261E+02 0.  0.
         24    2    4    4    0    0 -0.81819360245E+03  0.18908762346E+03 -0.13781264858E+04  0.16160259465E+04  0.84334740314E+02 0.  0.
         13    1    3    3    0    0  0.37869299670E+03 -0.37450772430E+02  0.21146277861E+03  0.43534750814E+03  0.00000000000E+00 0. -1.
        -13    1    3    3    0    0  0.62547395012E+03 -0.31363381288E+02  0.22503570501E+03  0.66546404297E+03  0.00000000000E+00 0.  1.
          2    1    6    6  502    0 -0.80011930400E+02  0.24498053603E+02 -0.18994044973E+03  0.20755586737E+03  0.00000000000E+00 0. -1.
          3    1    5    5  503    0  0.30402683452E+01  0.41521822184E+01 -0.14180846060E+02  0.15085762949E+02  0.00000000000E+00 0. -1.
         -4    1    5    5    0  503 -0.18901361271E+03 -0.12442565196E+03 -0.20697633545E+04  0.20820970756E+04  0.00000000000E+00 0.  1.
         -1    1    6    6    0  502 -0.73818167205E+03  0.16458956986E+03 -0.11881860361E+04  0.14084700791E+04  0.00000000000E+00 0.  1.
<mgrwt>
<rscale>  0 0.37444231E+04</rscale>
<asrwt>0</asrwt>
<pdfrwt beam="1">  1        1 0.13757293E+00 0.37444231E+04</pdfrwt>
<pdfrwt beam="2">  1       -1 0.60304558E+00 0.37444231E+04</pdfrwt>
<totfact> 0.62877210E-03</totfact>
</mgrwt>
</event>
<event>
12    1  0.1980523E-007  0.2460813E+04  0.7818608E-02  0.8417081E-01
          1   -1    0    0  501    0  0.00000000000E+00  0.00000000000E+00  0.20245432746E+04  0.20245432746E+04  0.00000000000E+00 0. -1.
         -1   -1    0    0    0  501 -0.00000000000E+00 -0.00000000000E+00 -0.74777368915E+03  0.74777368915E+03  0.00000000000E+00 0.  1.
         23    2    1    2    0    0 -0.13562446567E+03  0.10365404905E+04  0.77144770452E+03  0.13024588488E+04  0.91963621677E+02 0.  0.
        254    2    1    2    0    0  0.13562446567E+03 -0.10365404905E+04  0.50532188092E+03  0.14698581150E+04  0.90128934902E+03 0.  0.
        -24    2    4    4    0    0  0.43216211567E+03 -0.89731825627E+03  0.53155201375E+03  0.11316318286E+04  0.78095486145E+02 0.  0.
         24    2    4    4    0    0 -0.29653765000E+03 -0.13922223425E+03 -0.26230132827E+02  0.33822628637E+03  0.79947436121E+02 0.  0.
         13    1    3    3    0    0 -0.12594589542E+03  0.63761258561E+03  0.49611125848E+03  0.81764207248E+03  0.00000000000E+00 0.  1.
        -13    1    3    3    0    0 -0.96785702553E+01  0.39892790491E+03  0.27533644605E+03  0.48481677628E+03  0.00000000000E+00 0. -1.
          2    1    6    6  502    0 -0.78828883618E+02 -0.49453335112E+02  0.26799507829E+02  0.96839242386E+02  0.00000000000E+00 0. -1.
          1    1    5    5  503    0  0.24829653041E+03 -0.57103864435E+03  0.29863887414E+03  0.69059501700E+03  0.00000000000E+00 0. -1.
         -2    1    5    5    0  503  0.18386558526E+03 -0.32627961192E+03  0.23291313961E+03  0.44103681162E+03  0.00000000000E+00 0.  1.
         -1    1    6    6    0  502 -0.21770876638E+03 -0.89768899139E+02 -0.53029640656E+02  0.24138704398E+03  0.00000000000E+00 0.  1.
<mgrwt>
<rscale>  0 0.24608130E+04</rscale>
<asrwt>0</asrwt>
<pdfrwt beam="1">  1        1 0.31146819E+00 0.24608130E+04</pdfrwt>
<pdfrwt beam="2">  1       -1 0.11504211E+00 0.24608130E+04</pdfrwt>
<totfact> 0.17528657E+00</totfact>
</mgrwt>
</event>
<event>
12    1  0.1980523E-007  0.1086115E+04  0.7818608E-02  0.9218832E-01
         -2   -1    0    0    0  501 -0.00000000000E+00  0.00000000000E+00  0.92042959868E+03  0.92042959868E+03  0.00000000000E+00 0.  1.
          2   -1    0    0  501    0  0.00000000000E+00 -0.00000000000E+00 -0.32040613764E+03  0.32040613764E+03  0.00000000000E+00 0. -1.
         23    2    1    2    0    0 -0.12318341083E+03  0.35105758842E+02  0.88818885963E+01  0.15650669912E+03  0.89492412620E+02 0.  0.
        254    2    1    2    0    0  0.12318341083E+03 -0.35105758842E+02  0.59114157244E+03  0.10843290372E+04  0.89995251832E+03 0.  0.
        -24    2    4    4    0    0 -0.16372364439E+03 -0.10642952111E+03  0.72192210537E+03  0.75224770319E+03  0.81070377096E+02 0.  0.
         24    2    4    4    0    0  0.28690705522E+03  0.71323762268E+02 -0.13078053292E+03  0.33208133400E+03  0.75971884310E+02 0.  0.
         13    1    3    3    0    0 -0.11990173061E+03  0.51396972674E+02 -0.10619528093E+02  0.13088486612E+03  0.00000000000E+00 0. -1.
        -13    1    3    3    0    0 -0.32816802208E+01 -0.16291213832E+02  0.19501416689E+02  0.25621832996E+02  0.00000000000E+00 0.  1.
          4    1    6    6  502    0  0.21489939178E+03  0.65798811181E+02 -0.13044784915E+03  0.25986125815E+03  0.00000000000E+00 0. -1.
          3    1    5    5  503    0 -0.17084272815E+03 -0.90354822626E+02  0.64441967649E+03  0.67277630099E+03  0.00000000000E+00 0. -1.
         -2    1    5    5    0  503  0.71190837632E+01 -0.16074698484E+02  0.77502428880E+02  0.79471402197E+02  0.00000000000E+00 0.  1.
         -3    1    6    6    0  502  0.72007663437E+02  0.55249510863E+01 -0.33268377899E+00  0.72220075856E+02  0.00000000000E+00 0.  1.
<mgrwt>
<rscale>  0 0.10861147E+04</rscale>
<asrwt>0</asrwt>
<pdfrwt beam="1">  1        2 0.49293252E-01 0.10861147E+04</pdfrwt>
<pdfrwt beam="2">  1       -2 0.14160455E+00 0.10861147E+04</pdfrwt>
<totfact> 0.35308044E+01</totfact>
</mgrwt>
</event>
<event>
12    1  0.1980523E-007  0.3610114E+04  0.7818608E-02  0.8088179E-01
          2   -1    0    0  501    0  0.00000000000E+00  0.00000000000E+00  0.17337968049E+04  0.17337968049E+04  0.00000000000E+00 0. -1.
         -2   -1    0    0    0  501 -0.00000000000E+00 -0.00000000000E+00 -0.18792459786E+04  0.18792459786E+04  0.00000000000E+00 0.  1.
         23    2    1    2    0    0 -0.14738903445E+03 -0.83988987697E+03 -0.15300478725E+04  0.17542183697E+04  0.95378527990E+02 0.  0.
        254    2    1    2    0    0  0.14738903445E+03  0.83988987697E+03  0.13845986988E+04  0.18588244138E+04  0.90054212103E+03 0.  0.
        -24    2    4    4    0    0 -0.55965369468E+02  0.54168929330E+03  0.15199880712E+03  0.57197006061E+03  0.86525717627E+02 0.  0.
         24    2    4    4    0    0  0.20335440392E+03  0.29820058368E+03  0.12325998917E+04  0.12868543532E+04  0.80093893077E+02 0.  0.
         13    1    3    3    0    0 -0.98528184906E+02 -0.72681412850E+03 -0.12730671540E+04  0.14692401299E+04  0.00000000000E+00 0.  1.
        -13    1    3    3    0    0 -0.48860849548E+02 -0.11307574848E+03 -0.25698071848E+03  0.28497823985E+03  0.00000000000E+00 0. -1.
          2    1    6    6  502    0  0.73349518916E+02  0.47933570271E+02  0.30342617550E+03  0.31582467139E+03  0.00000000000E+00 0. -1.
          3    1    5    5  503    0 -0.13995513243E+02  0.92235304864E+01  0.90770146724E+01  0.19061482129E+02  0.00000000000E+00 0. -1.
         -4    1    5    5    0  503 -0.41969856225E+02  0.53246576281E+03  0.14292179245E+03  0.55290857848E+03  0.00000000000E+00 0.  1.
         -1    1    6    6    0  502  0.13000488501E+03  0.25026701341E+03  0.92917371616E+03  0.97102968180E+03  0.00000000000E+00 0.  1.
<mgrwt>
<rscale>  0 0.36101139E+04</rscale>
<asrwt>0</asrwt>
<pdfrwt beam="1">  1        2 0.26673797E+00 0.36101139E+04</pdfrwt>
<pdfrwt beam="2">  1       -2 0.28911476E+00 0.36101139E+04</pdfrwt>
<totfact> 0.28333702E-01</totfact>
</mgrwt>
</event>
<event>
12    1  0.1980523E-007  0.2207816E+04  0.7818608E-02  0.8515182E-01
         -1   -1    0    0    0  501 -0.00000000000E+00  0.00000000000E+00  0.45579018772E+03  0.45579018772E+03  0.00000000000E+00 0.  1.
          1   -1    0    0  501    0  0.00000000000E+00 -0.00000000000E+00 -0.26736278978E+04  0.26736278978E+04  0.00000000000E+00 0. -1.
         23    2    1    2    0    0 -0.18679376315E+03  0.70727064964E+03 -0.16907811170E+04  0.18445131350E+04  0.91456206701E+02 0.  0.
        254    2    1    2    0    0  0.18679376315E+03 -0.70727064964E+03 -0.52705659313E+03  0.12849049506E+04  0.91546075714E+03 0.  0.
        -24    2    4    4    0    0  0.15776959809E+03 -0.77737599334E+03 -0.53586909679E+02  0.79865361564E+03  0.75969466065E+02 0.  0.
         24    2    4    4    0    0  0.29024165059E+02  0.70105343699E+02 -0.47346968345E+03  0.48625133494E+03  0.80682452964E+02 0.  0.
         11    1    3    3    0    0 -0.52133305276E+02  0.22341848748E+03 -0.42991759203E+03  0.48730158834E+03  0.00000000000E+00 0.  1.
        -11    1    3    3    0    0 -0.13466045787E+03  0.48385216217E+03 -0.12608635249E+04  0.13572115466E+04  0.00000000000E+00 0. -1.
          4    1    6    6  502    0  0.36541097292E+02  0.67920646893E+02 -0.22866772459E+03  0.24132425144E+03  0.00000000000E+00 0. -1.
          3    1    5    5  503    0  0.86785766179E+02 -0.50677281498E+03 -0.67429146388E+02  0.51855293365E+03  0.00000000000E+00 0. -1.
         -2    1    5    5    0  503  0.70983831909E+02 -0.27060317836E+03  0.13842236709E+02  0.28010068198E+03  0.00000000000E+00 0.  1.
         -3    1    6    6    0  502 -0.75169322327E+01  0.21846968054E+01 -0.24480195886E+03  0.24492708350E+03  0.00000000000E+00 0.  1.
<mgrwt>
<rscale>  0 0.22078164E+04</rscale>
<asrwt>0</asrwt>
<pdfrwt beam="1">  1        1 0.41132736E+00 0.22078164E+04</pdfrwt>
<pdfrwt beam="2">  1       -1 0.70121569E-01 0.22078164E+04</pdfrwt>
<totfact> 0.19191395E+00</totfact>
</mgrwt>
</event>
<event>
12    1  0.1980523E-007  0.1259224E+04  0.7818608E-02  0.9062541E-01
         -2   -1    0    0    0  501 -0.00000000000E+00  0.00000000000E+00  0.32016228579E+03  0.32016228579E+03  0.00000000000E+00 0.  1.
          2   -1    0    0  501    0  0.00000000000E+00 -0.00000000000E+00 -0.12381567397E+04  0.12381567397E+04  0.00000000000E+00 0. -1.
         23    2    1    2    0    0  0.25087293083E+03  0.15983210063E+03 -0.27606519694E+03  0.41582804839E+03  0.90650124387E+02 0.  0.
        254    2    1    2    0    0 -0.25087293083E+03 -0.15983210063E+03 -0.64192925702E+03  0.11424909771E+04  0.89706685037E+03 0.  0.
        -24    2    4    4    0    0 -0.23345609095E+03 -0.59684002454E+02 -0.85580318696E+03  0.89290544367E+03  0.82565791838E+02 0.  0.
         24    2    4    4    0    0 -0.17416839876E+02 -0.10014809817E+03  0.21387392994E+03  0.24958553347E+03  0.78853615839E+02 0.  0.
         13    1    3    3    0    0  0.26650179182E+02  0.42203319869E+02 -0.14945312187E+02  0.52102923285E+02  0.00000000000E+00 0.  1.
        -13    1    3    3    0    0  0.22422275165E+03  0.11762878076E+03 -0.26111988475E+03  0.36372512510E+03  0.00000000000E+00 0. -1.
          2    1    6    6  502    0 -0.13844468171E+02  0.68481246201E+01  0.61190963623E+02  0.63110222142E+02  0.00000000000E+00 0. -1.
          3    1    5    5  503    0 -0.87229836949E+01 -0.13097067908E+02 -0.16554874461E+02  0.22840479434E+02  0.00000000000E+00 0. -1.
         -4    1    5    5    0  503 -0.22473310726E+03 -0.46586934546E+02 -0.83924831250E+03  0.87006496424E+03  0.00000000000E+00 0.  1.
         -1    1    6    6    0  502 -0.35723717046E+01 -0.10699622279E+03  0.15268296632E+03  0.18647531133E+03  0.00000000000E+00 0.  1.
<mgrwt>
<rscale>  0 0.12592237E+04</rscale>
<asrwt>0</asrwt>
<pdfrwt beam="1">  1        2 0.19048566E+00 0.12592237E+04</pdfrwt>
<pdfrwt beam="2">  1       -2 0.49255735E-01 0.12592237E+04</pdfrwt>
<totfact> 0.68916613E+01</totfact>
</mgrwt>
</event>
<event>
12    1  0.1980523E-007  0.3395182E+04  0.7818608E-02  0.8139090E-01
         -1   -1    0    0    0  501 -0.00000000000E+00  0.00000000000E+00  0.11406173604E+04  0.11406173604E+04  0.00000000000E+00 0.  1.
          1   -1    0    0  501    0  0.00000000000E+00 -0.00000000000E+00 -0.25265397412E+04  0.25265397412E+04  0.00000000000E+00 0. -1.
         23    2    1    2    0    0  0.67971468278E+02  0.95906915878E+03 -0.19951501645E+04  0.22162692487E+04  0.82410146047E+02 0.  0.
        254    2    1    2    0    0 -0.67971468278E+02 -0.95906915878E+03  0.60922778364E+03  0.14508878529E+04  0.89971289721E+03 0.  0.
        -24    2    4    4    0    0  0.37159834071E+03 -0.19401525445E+03  0.25435788473E+03  0.49708596123E+03  0.81665620373E+02 0.  0.
         24    2    4    4    0    0 -0.43956980898E+03 -0.76505390433E+03  0.35486989890E+03  0.95380189163E+03  0.72638211943E+02 0.  0.
         13    1    3    3    0    0  0.25450125249E+02  0.30246941908E+03 -0.72003478594E+03  0.78139973849E+03  0.00000000000E+00 0. -1.
        -13    1    3    3    0    0  0.42521343029E+02  0.65659973970E+03 -0.12751153786E+04  0.14348695102E+04  0.00000000000E+00 0.  1.
          4    1    6    6  502    0 -0.40314231416E+02 -0.10472619252E+03  0.27200206152E+02  0.11546715494E+03  0.00000000000E+00 0. -1.
          1    1    5    5  503    0  0.56324421177E+02 -0.16197496931E+02  0.68648971862E+02  0.90263396044E+02  0.00000000000E+00 0. -1.
         -2    1    5    5    0  503  0.31527391953E+03 -0.17781775752E+03  0.18570891287E+03  0.40682256519E+03  0.00000000000E+00 0.  1.
         -3    1    6    6    0  502 -0.39925557757E+03 -0.66032771180E+03  0.32766969275E+03  0.83833473669E+03  0.00000000000E+00 0.  1.
<mgrwt>
<rscale>  0 0.33951819E+04</rscale>
<asrwt>0</asrwt>
<pdfrwt beam="1">  1        1 0.38869842E+00 0.33951819E+04</pdfrwt>
<pdfrwt beam="2">  1       -1 0.17547960E+00 0.33951819E+04</pdfrwt>
<totfact> 0.23971693E-01</totfact>
</mgrwt>
</event>
<event>
12    1  0.1980523E-007  0.1683602E+04  0.7818608E-02  0.8770772E-01
          1   -1    0    0  501    0  0.00000000000E+00  0.00000000000E+00  0.21801547879E+04  0.21801547879E+04  0.00000000000E+00 0. -1.
         -1   -1    0    0    0  501 -0.00000000000E+00 -0.00000000000E+00 -0.32503607895E+03  0.32503607895E+03  0.00000000000E+00 0.  1.
         23    2    1    2    0    0  0.60488618622E+03 -0.80558149204E+02  0.73672682719E+03  0.96088612090E+03  0.90326107842E+02 0.  0.
        254    2    1    2    0    0 -0.60488618622E+03  0.80558149204E+02  0.11183918817E+04  0.15443047459E+04  0.87275416553E+03 0.  0.
        -24    2    4    4    0    0  0.17225181732E+03  0.19429694997E+03  0.22732941315E+03  0.35413266655E+03  0.79431039874E+02 0.  0.
         24    2    4    4    0    0 -0.77713800354E+03 -0.11373880077E+03  0.89106246858E+03  0.11901720794E+04  0.75081717062E+02 0.  0.
         11    1    3    3    0    0  0.40044236878E+03 -0.59715146739E+02  0.42032139287E+03  0.58360094480E+03  0.00000000000E+00 0. -1.
        -11    1    3    3    0    0  0.20444381744E+03 -0.20843002464E+02  0.31640543432E+03  0.37728517611E+03  0.00000000000E+00 0.  1.
          4    1    6    6  502    0 -0.12512392848E+03 -0.46374235562E+02  0.14476073681E+03  0.19688127927E+03  0.00000000000E+00 0. -1.
          3    1    5    5  503    0  0.65073171864E+02  0.82172491204E+02  0.14384187947E+03  0.17798124142E+03  0.00000000000E+00 0. -1.
         -4    1    5    5    0  503  0.10717864546E+03  0.11212445877E+03  0.83487533679E+02  0.17615142513E+03  0.00000000000E+00 0.  1.
         -3    1    6    6    0  502 -0.65201407506E+03 -0.67364565204E+02  0.74630173177E+03  0.99329080010E+03  0.00000000000E+00 0.  1.
<mgrwt>
<rscale>  0 0.16836020E+04</rscale>
<asrwt>0</asrwt>
<pdfrwt beam="1">  1        1 0.33540842E+00 0.16836020E+04</pdfrwt>
<pdfrwt beam="2">  1       -1 0.50005552E-01 0.16836020E+04</pdfrwt>
<totfact> 0.86001873E+00</totfact>
</mgrwt>
</event>
<event>
12    1  0.1980523E-007  0.2711520E+04  0.7818608E-02  0.8331277E-01
         -2   -1    0    0    0  501 -0.00000000000E+00  0.00000000000E+00  0.88442799112E+03  0.88442799112E+03  0.00000000000E+00 0. -1.
          2   -1    0    0  501    0  0.00000000000E+00 -0.00000000000E+00 -0.20782749839E+04  0.20782749839E+04  0.00000000000E+00 0.  1.
         23    2    1    2    0    0 -0.72437581426E+03 -0.66311856010E+03 -0.12943052465E+04  0.16272450711E+04  0.90851006691E+02 0.  0.
        254    2    1    2    0    0  0.72437581426E+03  0.66311856010E+03  0.10045825369E+03  0.13354579039E+04  0.89939391109E+03 0.  0.
        -24    2    4    4    0    0  0.61344532701E+02  0.65069204527E+03 -0.16469969796E+02  0.65824784428E+03  0.76522383182E+02 0.  0.
         24    2    4    4    0    0  0.66303128156E+03  0.12426514831E+02  0.11692822349E+03  0.67721005961E+03  0.71946902636E+02 0.  0.
         13    1    3    3    0    0 -0.47836764386E+03 -0.43091535225E+03 -0.91755372535E+03  0.11209052067E+04  0.00000000000E+00 0.  1.
        -13    1    3    3    0    0 -0.24600817040E+03 -0.23220320785E+03 -0.37675152111E+03  0.50633986442E+03  0.00000000000E+00 0. -1.
          2    1    6    6  502    0  0.86021694080E+02  0.48148111976E+01  0.40193655588E+02  0.95070732662E+02  0.00000000000E+00 0. -1.
          1    1    5    5  503    0 -0.13956642334E+02  0.42500998478E+02  0.51654743964E+01  0.45031154355E+02  0.00000000000E+00 0. -1.
         -2    1    5    5    0  503  0.75301175035E+02  0.60819104679E+03 -0.21635444193E+02  0.61321668993E+03  0.00000000000E+00 0.  1.
         -1    1    6    6    0  502  0.57700958748E+03  0.76117036329E+01  0.76734567899E+02  0.58213932695E+03  0.00000000000E+00 0.  1.
<mgrwt>
<rscale>  0 0.27115196E+04</rscale>
<asrwt>0</asrwt>
<pdfrwt beam="1">  1        2 0.31973461E+00 0.27115196E+04</pdfrwt>
<pdfrwt beam="2">  1       -2 0.13606585E+00 0.27115196E+04</pdfrwt>
<totfact> 0.20477395E+00</totfact>
</mgrwt>
</event>
<event>
12    1  0.1980523E-007  0.2123324E+04  0.7818608E-02  0.8551038E-01
          1   -1    0    0  501    0  0.00000000000E+00  0.00000000000E+00  0.19819576429E+04  0.19819576429E+04  0.00000000000E+00 0. -1.
         -1   -1    0    0    0  501 -0.00000000000E+00 -0.00000000000E+00 -0.56869351611E+03  0.56869351611E+03  0.00000000000E+00 0.  1.
         23    2    1    2    0    0 -0.62767545628E+03 -0.49003186951E+03  0.99749188764E+03  0.12797351921E+04  0.92867564097E+02 0.  0.
        254    2    1    2    0    0  0.62767545628E+03  0.49003186951E+03  0.41577223917E+03  0.12709159669E+04  0.89902899205E+03 0.  0.
        -24    2    4    4    0    0  0.51917395467E+03  0.49621092219E+03  0.66835796266E+03  0.98429291909E+03  0.79770356691E+02 0.  0.
         24    2    4    4    0    0  0.10850150161E+03 -0.61790526765E+01 -0.25258572349E+03  0.28662304783E+03  0.80885519678E+02 0.  0.
         13    1    3    3    0    0 -0.15522517343E+03 -0.15142296235E+03  0.32696832875E+03  0.39234175919E+03  0.00000000000E+00 0. -1.
        -13    1    3    3    0    0 -0.47245028285E+03 -0.33860890716E+03  0.67052355889E+03  0.88739343292E+03  0.00000000000E+00 0.  1.
          2    1    6    6  502    0  0.10920410070E+02  0.14120347182E+02 -0.33032752295E+01  0.18153544775E+02  0.00000000000E+00 0. -1.
          1    1    5    5  503    0  0.33800049909E+02  0.92700821200E+01  0.31540528634E+02  0.47150638839E+02  0.00000000000E+00 0. -1.
         -2    1    5    5    0  503  0.48537390476E+03  0.48694084007E+03  0.63681743403E+03  0.93714228025E+03  0.00000000000E+00 0.  1.
         -1    1    6    6    0  502  0.97581091536E+02 -0.20299399859E+02 -0.24928244826E+03  0.26846950305E+03  0.00000000000E+00 0.  1.
<mgrwt>
<rscale>  0 0.21233242E+04</rscale>
<asrwt>0</asrwt>
<pdfrwt beam="1">  1        1 0.30491656E+00 0.21233242E+04</pdfrwt>
<pdfrwt beam="2">  1       -1 0.87491311E-01 0.21233242E+04</pdfrwt>
<totfact> 0.36159699E+00</totfact>
</mgrwt>
</event>
<event>
12    1  0.1980523E-007  0.1394744E+04  0.7818608E-02  0.8957632E-01
         -1   -1    0    0    0  501 -0.00000000000E+00  0.00000000000E+00  0.53362007913E+03  0.53362007913E+03  0.00000000000E+00 0.  1.
          1   -1    0    0  501    0  0.00000000000E+00 -0.00000000000E+00 -0.91137471681E+03  0.91137471681E+03  0.00000000000E+00 0. -1.
         23    2    1    2    0    0 -0.10629303427E+03 -0.20869473530E+03  0.22419407623E+03  0.33739753480E+03  0.93393848828E+02 0.  0.
        254    2    1    2    0    0  0.10629303427E+03  0.20869473530E+03 -0.60194871391E+03  0.11075972611E+04  0.89976537888E+03 0.  0.
        -24    2    4    4    0    0  0.20631962785E+02 -0.31874997125E+03 -0.42846791125E+03  0.54007999756E+03  0.77938634332E+02 0.  0.
         24    2    4    4    0    0  0.85661071490E+02  0.52744470655E+03 -0.17348080265E+03  0.56751726359E+03  0.80277754967E+02 0.  0.
         13    1    3    3    0    0 -0.80867391150E+02 -0.21148217511E+03  0.19787657782E+03  0.30069816326E+03  0.00000000000E+00 0.  1.
        -13    1    3    3    0    0 -0.25425643125E+02  0.27874398098E+01  0.26317498406E+02  0.36699371539E+02  0.00000000000E+00 0. -1.
          4    1    6    6  502    0  0.69340331590E+02  0.18589871953E+03 -0.62354053030E+02  0.20797702623E+03  0.00000000000E+00 0. -1.
          1    1    5    5  503    0 -0.20015742810E+02 -0.11072453593E+03 -0.19182697239E+03  0.22239186171E+03  0.00000000000E+00 0. -1.
         -2    1    5    5    0  503  0.40647705595E+02 -0.20802543533E+03 -0.23664093886E+03  0.31768813585E+03  0.00000000000E+00 0.  1.
         -3    1    6    6    0  502  0.16320739900E+02  0.34154598702E+03 -0.11112674962E+03  0.35954023736E+03  0.00000000000E+00 0.  1.
<mgrwt>
<rscale>  0 0.13947442E+04</rscale>
<asrwt>0</asrwt>
<pdfrwt beam="1">  1        1 0.14021149E+00 0.13947442E+04</pdfrwt>
<pdfrwt beam="2">  1       -1 0.82095398E-01 0.13947442E+04</pdfrwt>
<totfact> 0.25649328E+01</totfact>
</mgrwt>
</event>
<event>
12    1  0.1980523E-007  0.2621375E+04  0.7818608E-02  0.8360977E-01
          2   -1    0    0  501    0  0.00000000000E+00  0.00000000000E+00  0.15146827777E+04  0.15146827777E+04  0.00000000000E+00 0. -1.
         -2   -1    0    0    0  501 -0.00000000000E+00 -0.00000000000E+00 -0.11341663177E+04  0.11341663177E+04  0.00000000000E+00 0.  1.
         23    2    1    2    0    0 -0.36835092920E+02 -0.88130343796E+03 -0.58490967380E+03  0.10622590570E+04  0.90677471023E+02 0.  0.
        254    2    1    2    0    0  0.36835092920E+02  0.88130343796E+03  0.96542613390E+03  0.15865900384E+04  0.89842515338E+03 0.  0.
        -24    2    4    4    0    0  0.35792236878E+03  0.14063196709E+03  0.54669715848E+03  0.67312056289E+03  0.79547073231E+02 0.  0.
         24    2    4    4    0    0 -0.32108727586E+03  0.74067147087E+03  0.41872897542E+03  0.91346947554E+03  0.86030584164E+02 0.  0.
         11    1    3    3    0    0 -0.63659113020E+02 -0.59547899150E+03 -0.37449561982E+03  0.70632477038E+03  0.00000000000E+00 0.  1.
        -11    1    3    3    0    0  0.26824020100E+02 -0.28582444646E+03 -0.21041405398E+03  0.35593428658E+03  0.00000000000E+00 0. -1.
          2    1    6    6  502    0 -0.29351296676E+03  0.69146854510E+03  0.41176561830E+03  0.85663850890E+03  0.00000000000E+00 0. -1.
          3    1    5    5  503    0  0.27260905832E+03  0.13014376040E+03  0.46517891563E+03  0.55465711984E+03  0.00000000000E+00 0. -1.
         -2    1    5    5    0  503  0.85313310463E+02  0.10488206689E+02  0.81518242850E+02  0.11846344305E+03  0.00000000000E+00 0.  1.
         -1    1    6    6    0  502 -0.27574309105E+02  0.49202925776E+02  0.69633571153E+01  0.56830966645E+02  0.00000000000E+00 0.  1.
<mgrwt>
<rscale>  0 0.26213754E+04</rscale>
<asrwt>0</asrwt>
<pdfrwt beam="1">  1        2 0.23302812E+00 0.26213754E+04</pdfrwt>
<pdfrwt beam="2">  1       -2 0.17448713E+00 0.26213754E+04</pdfrwt>
<totfact> 0.21789563E+00</totfact>
</mgrwt>
</event>
<event>
12    1  0.1980523E-007  0.3523634E+04  0.7818608E-02  0.8108212E-01
          2   -1    0    0  501    0  0.00000000000E+00  0.00000000000E+00  0.28471840097E+04  0.28471840097E+04  0.00000000000E+00 0.  1.
         -2   -1    0    0    0  501 -0.00000000000E+00 -0.00000000000E+00 -0.10901996210E+04  0.10901996210E+04  0.00000000000E+00 0. -1.
         23    2    1    2    0    0 -0.14264427627E+04  0.55671088137E+03  0.14953682031E+04  0.21422951337E+04  0.92932321296E+02 0.  0.
        254    2    1    2    0    0  0.14264427627E+04 -0.55671088137E+03  0.26161618559E+03  0.17950884969E+04  0.89957418942E+03 0.  0.
        -24    2    4    4    0    0  0.17988582569E+03 -0.48556515913E+03  0.56337931798E+02  0.52687322218E+03  0.79303188124E+02 0.  0.
         24    2    4    4    0    0  0.12465569370E+04 -0.71145722238E+02  0.20527825379E+03  0.12682152747E+04  0.85234443825E+02 0.  0.
         13    1    3    3    0    0 -0.29402926038E+03  0.14980549720E+03  0.29462637133E+03  0.44237946566E+03  0.00000000000E+00 0. -1.
        -13    1    3    3    0    0 -0.11324135024E+04  0.40690538417E+03  0.12007418318E+04  0.16999156681E+04  0.00000000000E+00 0.  1.
          2    1    6    6  502    0  0.10150858088E+03 -0.26650629169E+02  0.61405859181E+01  0.10512827794E+03  0.00000000000E+00 0. -1.
          3    1    5    5  503    0  0.31526026440E+02 -0.18624072803E+03  0.35105759680E+02  0.19212473418E+03  0.00000000000E+00 0. -1.
         -4    1    5    5    0  503  0.14835979925E+03 -0.29932443110E+03  0.21232172118E+02  0.33474848800E+03  0.00000000000E+00 0.  1.
         -1    1    6    6    0  502  0.11450483562E+04 -0.44495093069E+02  0.19913766787E+03  0.11630869968E+04  0.00000000000E+00 0.  1.
<mgrwt>
<rscale>  0 0.35236339E+04</rscale>
<asrwt>0</asrwt>
<pdfrwt beam="1">  1        2 0.43802831E+00 0.35236339E+04</pdfrwt>
<pdfrwt beam="2">  1       -2 0.16772302E+00 0.35236339E+04</pdfrwt>
<totfact> 0.39263022E-01</totfact>
</mgrwt>
</event>
<event>
12    1  0.1980523E-007  0.3843246E+04  0.7818608E-02  0.8036938E-01
          2   -1    0    0  501    0  0.00000000000E+00  0.00000000000E+00  0.12516709168E+04  0.12516709168E+04  0.00000000000E+00 0. -1.
         -2   -1    0    0    0  501 -0.00000000000E+00 -0.00000000000E+00 -0.29501638742E+04  0.29501638742E+04  0.00000000000E+00 0.  1.
         23    2    1    2    0    0 -0.76573979516E+03 -0.11875601039E+04  0.44282099772E+03  0.14835097581E+04  0.89745931777E+02 0.  0.
        254    2    1    2    0    0  0.76573979516E+03  0.11875601039E+04 -0.21413139551E+04  0.27183250329E+04  0.89855945615E+03 0.  0.
        -24    2    4    4    0    0  0.92007323732E+03  0.11125664086E+04 -0.20474301938E+04  0.25065121652E+04  0.79335112109E+02 0.  0.
         24    2    4    4    0    0 -0.15433344216E+03  0.74993695261E+02 -0.93883761299E+02  0.21181286779E+03  0.81287542876E+02 0.  0.
         13    1    3    3    0    0 -0.34114374563E+03 -0.59555074538E+03  0.18682406852E+03  0.71131074650E+03  0.00000000000E+00 0.  1.
        -13    1    3    3    0    0 -0.42459604953E+03 -0.59200935848E+03  0.25599692920E+03  0.77219901163E+03  0.00000000000E+00 0. -1.
          2    1    6    6  502    0 -0.48038077604E+02  0.10837536121E+02  0.96150128377E+01  0.50175268419E+02  0.00000000000E+00 0. -1.
          1    1    5    5  503    0  0.58802790096E+03  0.71851715835E+03 -0.13811884230E+04  0.16642491337E+04  0.00000000000E+00 0. -1.
         -2    1    5    5    0  503  0.33204533635E+03  0.39404925025E+03 -0.66624177082E+03  0.84226303148E+03  0.00000000000E+00 0.  1.
         -1    1    6    6    0  502 -0.10629536455E+03  0.64156159140E+02 -0.10349877414E+03  0.16163759937E+03  0.00000000000E+00 0.  1.
<mgrwt>
<rscale>  0 0.38432457E+04</rscale>
<asrwt>0</asrwt>
<pdfrwt beam="1">  1        2 0.19256476E+00 0.38432457E+04</pdfrwt>
<pdfrwt beam="2">  1       -2 0.45387136E+00 0.38432457E+04</pdfrwt>
<totfact> 0.46123408E-02</totfact>
</mgrwt>
</event>
<event>
12    1  0.1980523E-007  0.1075946E+04  0.7818608E-02  0.9228959E-01
          1   -1    0    0  501    0  0.00000000000E+00  0.00000000000E+00  0.21755283691E+04  0.21755283691E+04  0.00000000000E+00 0. -1.
         -1   -1    0    0    0  501 -0.00000000000E+00 -0.00000000000E+00 -0.13303198003E+03  0.13303198003E+03  0.00000000000E+00 0.  1.
         23    2    1    2    0    0 -0.17714895086E+02 -0.11068036982E+03  0.48054674090E+03  0.50173573863E+03  0.90827415772E+02 0.  0.
        254    2    1    2    0    0  0.17714895086E+02  0.11068036982E+03  0.15619496482E+04  0.18068246105E+04  0.90131265824E+03 0.  0.
        -24    2    4    4    0    0  0.25270025635E+03  0.32970422352E+03  0.13479001085E+04  0.14126666096E+04  0.78930050209E+02 0.  0.
         24    2    4    4    0    0 -0.23498536126E+03 -0.21902385370E+03  0.21404953963E+03  0.39415800086E+03  0.79710449282E+02 0.  0.
         11    1    3    3    0    0 -0.36676075786E+02 -0.45337189726E+02  0.34689423119E+03  0.35176157115E+03  0.00000000000E+00 0. -1.
        -11    1    3    3    0    0  0.18961180700E+02 -0.65343180091E+02  0.13365250971E+03  0.14997416748E+03  0.00000000000E+00 0.  1.
          2    1    6    6  502    0 -0.11818376560E+03 -0.15934801943E+03  0.11082431554E+03  0.22724705204E+03  0.00000000000E+00 0. -1.
          1    1    5    5  503    0  0.17912615099E+03  0.27407963548E+03  0.11178516462E+04  0.11648167785E+04  0.00000000000E+00 0. -1.
         -2    1    5    5    0  503  0.73574105354E+02  0.55624588034E+02  0.23004846235E+03  0.24784983115E+03  0.00000000000E+00 0.  1.
         -1    1    6    6    0  502 -0.11680159566E+03 -0.59675834275E+02  0.10322522409E+03  0.16691094881E+03  0.00000000000E+00 0.  1.
<mgrwt>
<rscale>  0 0.10759458E+04</rscale>
<asrwt>0</asrwt>
<pdfrwt beam="1">  1        1 0.33469665E+00 0.10759458E+04</pdfrwt>
<pdfrwt beam="2">  1       -1 0.20466460E-01 0.10759458E+04</pdfrwt>
<totfact> 0.44693141E+01</totfact>
</mgrwt>
</event>
<event>
12    1  0.1980523E-007  0.1620759E+04  0.7818608E-02  0.8807895E-01
         -2   -1    0    0    0  501 -0.00000000000E+00  0.00000000000E+00  0.13543936229E+04  0.13543936229E+04  0.00000000000E+00 0.  1.
          2   -1    0    0  501    0  0.00000000000E+00 -0.00000000000E+00 -0.48487755694E+03  0.48487755694E+03  0.00000000000E+00 0. -1.
         23    2    1    2    0    0 -0.47649137384E+03  0.20720066755E+03  0.52288885538E+03  0.74188216786E+03  0.83667496232E+02 0.  0.
        254    2    1    2    0    0  0.47649137384E+03 -0.20720066755E+03  0.34662721060E+03  0.10973890120E+04  0.90229489334E+03 0.  0.
        -24    2    4    4    0    0 -0.14486516889E+03 -0.34227675004E+03  0.28083067492E+02  0.38158610001E+03  0.81731280804E+02 0.  0.
         24    2    4    4    0    0  0.62135654274E+03  0.13507608249E+03  0.31854414310E+03  0.71580291199E+03  0.81079815274E+02 0.  0.
         11    1    3    3    0    0 -0.92589331659E+02  0.37406028247E+02  0.57850469045E+02  0.11540655118E+03  0.00000000000E+00 0. -1.
        -11    1    3    3    0    0 -0.38390204218E+03  0.16979463930E+03  0.46503838633E+03  0.62647561668E+03  0.00000000000E+00 0.  1.
          2    1    6    6  502    0  0.48744882707E+03  0.84642043707E+02  0.27600100691E+03  0.56652201227E+03  0.00000000000E+00 0. -1.
          1    1    5    5  503    0 -0.82382609730E+02 -0.10126883534E+03  0.23012231411E+02  0.13255879522E+03  0.00000000000E+00 0. -1.
         -2    1    5    5    0  503 -0.62482559161E+02 -0.24100791470E+03  0.50708360811E+01  0.24902730478E+03  0.00000000000E+00 0.  1.
         -1    1    6    6    0  502  0.13390771567E+03  0.50434038784E+02  0.42543136196E+02  0.14928089972E+03  0.00000000000E+00 0.  1.
<mgrwt>
<rscale>  0 0.16207592E+04</rscale>
<asrwt>0</asrwt>
<pdfrwt beam="1">  1        2 0.74596548E-01 0.16207592E+04</pdfrwt>
<pdfrwt beam="2">  1       -2 0.20836825E+00 0.16207592E+04</pdfrwt>
<totfact> 0.71615047E+00</totfact>
</mgrwt>
</event>
<event>
12    1  0.1980523E-007  0.1618274E+04  0.7818608E-02  0.8809400E-01
          1   -1    0    0  501    0  0.00000000000E+00  0.00000000000E+00  0.12473054037E+04  0.12473054037E+04  0.00000000000E+00 0. -1.
         -1   -1    0    0    0  501 -0.00000000000E+00 -0.00000000000E+00 -0.52489342639E+03  0.52489342639E+03  0.00000000000E+00 0.  1.
         23    2    1    2    0    0  0.85986765603E+02 -0.46287435290E+03  0.56987018310E+03  0.74463172751E+03  0.89877659061E+02 0.  0.
        254    2    1    2    0    0 -0.85986765603E+02  0.46287435290E+03  0.15254179422E+03  0.10275671026E+04  0.90054359191E+03 0.  0.
        -24    2    4    4    0    0 -0.44236106063E+03  0.46838815155E+03  0.12425928090E+03  0.66099272283E+03  0.80001514206E+02 0.  0.
         24    2    4    4    0    0  0.35637429502E+03 -0.55137986559E+01  0.28282513317E+02  0.36657437976E+03  0.80893975120E+02 0.  0.
         13    1    3    3    0    0  0.96543243499E+02 -0.32103726690E+03  0.36951359747E+03  0.49892466698E+03  0.00000000000E+00 0.  1.
        -13    1    3    3    0    0 -0.10556477896E+02 -0.14183708599E+03  0.20035658562E+03  0.24570706052E+03  0.00000000000E+00 0. -1.
          2    1    6    6  502    0  0.93314449357E+02 -0.29778370327E+02  0.29833610834E+02  0.10239327192E+03  0.00000000000E+00 0. -1.
          3    1    5    5  503    0 -0.24359390705E+03  0.30466698470E+03  0.51956803419E+02  0.39352188318E+03  0.00000000000E+00 0. -1.
         -4    1    5    5    0  503 -0.19876715357E+03  0.16372116685E+03  0.72302477482E+02  0.26747083966E+03  0.00000000000E+00 0.  1.
         -1    1    6    6    0  502  0.26305984567E+03  0.24264571672E+02 -0.15510975173E+01  0.26418110785E+03  0.00000000000E+00 0.  1.
<mgrwt>
<rscale>  0 0.16182737E+04</rscale>
<asrwt>0</asrwt>
<pdfrwt beam="1">  1        1 0.19189314E+00 0.16182737E+04</pdfrwt>
<pdfrwt beam="2">  1       -1 0.80752835E-01 0.16182737E+04</pdfrwt>
<totfact> 0.14461292E+01</totfact>
</mgrwt>
</event>
<event>
12    1  0.1980523E-007  0.1382743E+04  0.7818608E-02  0.8966406E-01
         -1   -1    0    0    0  501 -0.00000000000E+00  0.00000000000E+00  0.29431832626E+03  0.29431832626E+03  0.00000000000E+00 0.  1.
          1   -1    0    0  501    0  0.00000000000E+00 -0.00000000000E+00 -0.16240733825E+04  0.16240733825E+04  0.00000000000E+00 0. -1.
         23    2    1    2    0    0 -0.19895251973E+03 -0.30626603322E+03 -0.18350063691E+03  0.41686363789E+03  0.81986710083E+02 0.  0.
        254    2    1    2    0    0  0.19895251973E+03  0.30626603322E+03 -0.11462544193E+04  0.15015280709E+04  0.89850229025E+03 0.  0.
        -24    2    4    4    0    0 -0.10166345769E+03 -0.26755495395E+03 -0.22430515929E+03  0.37230641751E+03  0.79863333397E+02 0.  0.
         24    2    4    4    0    0  0.30061597742E+03  0.57382098717E+03 -0.92194926003E+03  0.11292216534E+04  0.74233504212E+02 0.  0.
         13    1    3    3    0    0 -0.79317334135E+02 -0.10361123759E+03 -0.24271833283E+02  0.13272396144E+03  0.00000000000E+00 0.  1.
        -13    1    3    3    0    0 -0.11963518560E+03 -0.20265479563E+03 -0.15922880363E+03  0.28413967645E+03  0.00000000000E+00 0. -1.
          2    1    6    6  502    0  0.26318496602E+03  0.47415726863E+03 -0.80958252626E+03  0.97443076129E+03  0.00000000000E+00 0. -1.
          1    1    5    5  503    0 -0.30040082792E+02 -0.13036016572E+02 -0.24476699923E+02  0.40883409121E+02  0.00000000000E+00 0. -1.
         -2    1    5    5    0  503 -0.71623374896E+02 -0.25451893738E+03 -0.19982845936E+03  0.33142300838E+03  0.00000000000E+00 0.  1.
         -1    1    6    6    0  502  0.37431011406E+02  0.99663718541E+02 -0.11236673377E+03  0.15479089207E+03  0.00000000000E+00 0.  1.
<mgrwt>
<rscale>  0 0.13827430E+04</rscale>
<asrwt>0</asrwt>
<pdfrwt beam="1">  1        1 0.24985744E+00 0.13827430E+04</pdfrwt>
<pdfrwt beam="2">  1       -1 0.45279742E-01 0.13827430E+04</pdfrwt>
<totfact> 0.25390448E+01</totfact>
</mgrwt>
</event>
<event>
12    1  0.1980523E-007  0.1751818E+04  0.7818608E-02  0.8732350E-01
          2   -1    0    0  501    0  0.00000000000E+00  0.00000000000E+00  0.12177923602E+04  0.12177923602E+04  0.00000000000E+00 0. -1.
         -2   -1    0    0    0  501 -0.00000000000E+00 -0.00000000000E+00 -0.63000590717E+03  0.63000590717E+03  0.00000000000E+00 0.  1.
         23    2    1    2    0    0 -0.17614479922E+03  0.52108126089E+03 -0.13211680279E+03  0.57291963828E+03  0.90715994220E+02 0.  0.
        254    2    1    2    0    0  0.17614479922E+03 -0.52108126089E+03  0.71990325585E+03  0.12748786291E+04  0.89694043865E+03 0.  0.
        -24    2    4    4    0    0  0.36038832783E+03 -0.16063573019E+03 -0.45197668542E+02  0.40560811678E+03  0.82410742679E+02 0.  0.
         24    2    4    4    0    0 -0.18424352861E+03 -0.36044553070E+03  0.76510092439E+03  0.86927051235E+03  0.79907075396E+02 0.  0.
         13    1    3    3    0    0 -0.72457657330E+02  0.19110838592E+03 -0.50755436809E+01  0.20444629715E+03  0.00000000000E+00 0. -1.
        -13    1    3    3    0    0 -0.10368714189E+03  0.32997287497E+03 -0.12704125911E+03  0.36847334113E+03  0.00000000000E+00 0.  1.
          4    1    6    6  502    0 -0.25014958123E+02 -0.10179725953E+02  0.37660590878E+02  0.46343230958E+02  0.00000000000E+00 0. -1.
          1    1    5    5  503    0  0.67964921387E+02 -0.27670503109E+02  0.23612348957E+02  0.77087160440E+02  0.00000000000E+00 0. -1.
         -2    1    5    5    0  503  0.29242340644E+03 -0.13296522708E+03 -0.68810017499E+02  0.32852095634E+03  0.00000000000E+00 0.  1.
         -3    1    6    6    0  502 -0.15922857048E+03 -0.35026580475E+03  0.72744033351E+03  0.82292728139E+03  0.00000000000E+00 0.  1.
<mgrwt>
<rscale>  0 0.17518178E+04</rscale>
<asrwt>0</asrwt>
<pdfrwt beam="1">  1        2 0.18735267E+00 0.17518178E+04</pdfrwt>
<pdfrwt beam="2">  1       -2 0.96923986E-01 0.17518178E+04</pdfrwt>
<totfact> 0.15578066E+01</totfact>
</mgrwt>
</event>
<event>
12    1  0.1980523E-007  0.1886824E+04  0.7818608E-02  0.8661443E-01
          2   -1    0    0  501    0  0.00000000000E+00  0.00000000000E+00  0.89351298055E+03  0.89351298055E+03  0.00000000000E+00 0.  1.
         -2   -1    0    0    0  501 -0.00000000000E+00 -0.00000000000E+00 -0.99609767823E+03  0.99609767823E+03  0.00000000000E+00 0. -1.
         23    2    1    2    0    0 -0.22789702724E+03 -0.65123665141E+03 -0.26578870899E+03  0.74430095003E+03  0.85405124135E+02 0.  0.
        254    2    1    2    0    0  0.22789702724E+03  0.65123665141E+03  0.16320401131E+03  0.11453097087E+04  0.89947348403E+03 0.  0.
        -24    2    4    4    0    0  0.53667161012E+03  0.33238515507E+03 -0.64905600358E+02  0.63973778718E+03  0.80965369000E+02 0.  0.
         24    2    4    4    0    0 -0.30877458288E+03  0.31885149634E+03  0.22810961167E+03  0.50557192156E+03  0.80999711003E+02 0.  0.
         11    1    3    3    0    0 -0.17100975017E+02 -0.13661712700E+03 -0.72089315107E+02  0.15541413092E+03  0.00000000000E+00 0. -1.
        -11    1    3    3    0    0 -0.21079605222E+03 -0.51461952441E+03 -0.19369939388E+03  0.58888681911E+03  0.00000000000E+00 0.  1.
          4    1    6    6  502    0 -0.21813055109E+03  0.22097396549E+03  0.19970591704E+03  0.36917866141E+03  0.00000000000E+00 0. -1.
          1    1    5    5  503    0  0.33817238390E+03  0.19801013887E+03 -0.78436738723E+02  0.39965097061E+03  0.00000000000E+00 0. -1.
         -2    1    5    5    0  503  0.19849922622E+03  0.13437501620E+03  0.13531138366E+02  0.24008681657E+03  0.00000000000E+00 0.  1.
         -3    1    6    6    0  502 -0.90644031789E+02  0.97877530853E+02  0.28403694631E+02  0.13639326015E+03  0.00000000000E+00 0.  1.
<mgrwt>
<rscale>  0 0.18868240E+04</rscale>
<asrwt>0</asrwt>
<pdfrwt beam="1">  1        2 0.13746354E+00 0.18868240E+04</pdfrwt>
<pdfrwt beam="2">  1       -2 0.15324580E+00 0.18868240E+04</pdfrwt>
<totfact> 0.78574925E+00</totfact>
</mgrwt>
</event>
<event>
12    1  0.1980523E-007  0.5351326E+04  0.7818608E-02  0.7776485E-01
         -2   -1    0    0    0  501 -0.00000000000E+00  0.00000000000E+00  0.20278362986E+04  0.20278362986E+04  0.00000000000E+00 0.  1.
          2   -1    0    0  501    0  0.00000000000E+00 -0.00000000000E+00 -0.35304490074E+04  0.35304490074E+04  0.00000000000E+00 0. -1.
         23    2    1    2    0    0  0.42698705058E+03 -0.17220424576E+04 -0.27019300794E+04  0.32336505695E+04  0.91223268240E+02 0.  0.
        254    2    1    2    0    0 -0.42698705058E+03  0.17220424576E+04  0.11993173706E+04  0.23246347365E+04  0.90433198301E+03 0.  0.
        -24    2    4    4    0    0 -0.96477082793E+02  0.13596941385E+04  0.47425861618E+03  0.14455409225E+04  0.81187103802E+02 0.  0.
         24    2    4    4    0    0 -0.33050996779E+03  0.36234831909E+03  0.72505875443E+03  0.87909381399E+03  0.81009834353E+02 0.  0.
         13    1    3    3    0    0  0.26177065209E+03 -0.11107394307E+04 -0.18125773769E+04  0.21418923186E+04  0.00000000000E+00 0. -1.
        -13    1    3    3    0    0  0.16521639849E+03 -0.61130302686E+03 -0.88935270251E+03  0.10917582509E+04  0.00000000000E+00 0.  1.
          2    1    6    6  502    0 -0.14316439597E+03  0.19203304881E+03  0.29451634394E+03  0.37962167081E+03  0.00000000000E+00 0. -1.
          1    1    5    5  503    0 -0.16124684030E+02  0.28833988428E+03  0.66099461485E+02  0.29625838909E+03  0.00000000000E+00 0. -1.
         -2    1    5    5    0  503 -0.80352398762E+02  0.10713542542E+04  0.40815915470E+03  0.11492825334E+04  0.00000000000E+00 0.  1.
         -1    1    6    6    0  502 -0.18734557182E+03  0.17031527029E+03  0.43054241050E+03  0.49947214318E+03  0.00000000000E+00 0.  1.
<mgrwt>
<rscale>  0 0.53513261E+04</rscale>
<asrwt>0</asrwt>
<pdfrwt beam="1">  1        2 0.54314600E+00 0.53513261E+04</pdfrwt>
<pdfrwt beam="2">  1       -2 0.31197482E+00 0.53513261E+04</pdfrwt>
<totfact> 0.14671413E-02</totfact>
</mgrwt>
</event>
<event>
12    1  0.1980523E-007  0.2493010E+04  0.7818608E-02  0.8405480E-01
         -2   -1    0    0    0  501 -0.00000000000E+00  0.00000000000E+00  0.47258512937E+03  0.47258512937E+03  0.00000000000E+00 0.  1.
          2   -1    0    0  501    0  0.00000000000E+00 -0.00000000000E+00 -0.32878191467E+04  0.32878191467E+04  0.00000000000E+00 0. -1.
         23    2    1    2    0    0  0.73063249982E+03  0.75313382410E+03 -0.16417338094E+04  0.19505694421E+04  0.91634277036E+02 0.  0.
        254    2    1    2    0    0 -0.73063249982E+03 -0.75313382410E+03 -0.11735002079E+04  0.18098348340E+04  0.89295295590E+03 0.  0.
        -24    2    4    4    0    0 -0.53016535374E+03 -0.70040033775E+03 -0.12865024940E+04  0.15603684565E+04  0.89583020231E+02 0.  0.
         24    2    4    4    0    0 -0.20046714608E+03 -0.52733486346E+02  0.11300228607E+03  0.24946637748E+03  0.80598136450E+02 0.  0.
         13    1    3    3    0    0  0.36139471900E+03  0.36095092457E+03 -0.88271773335E+03  0.10198442575E+04  0.00000000000E+00 0. -1.
        -13    1    3    3    0    0  0.36923778082E+03  0.39218289952E+03 -0.75901607604E+03  0.93072518455E+03  0.00000000000E+00 0.  1.
          4    1    6    6  502    0 -0.13644208174E+03 -0.37923603502E+02  0.32045492601E+02  0.14519488617E+03  0.00000000000E+00 0. -1.
          3    1    5    5  503    0 -0.20564003752E+03 -0.20739843065E+03 -0.45529062402E+03  0.54091726390E+03  0.00000000000E+00 0. -1.
         -4    1    5    5    0  503 -0.32452531622E+03 -0.49300190710E+03 -0.83121186998E+03  0.10194511926E+04  0.00000000000E+00 0.  1.
         -3    1    6    6    0  502 -0.64025064335E+02 -0.14809882845E+02  0.80956793466E+02  0.10427149132E+03  0.00000000000E+00 0.  1.
<mgrwt>
<rscale>  0 0.24930098E+04</rscale>
<asrwt>0</asrwt>
<pdfrwt beam="1">  1        2 0.50581835E+00 0.24930098E+04</pdfrwt>
<pdfrwt beam="2">  1       -2 0.72705402E-01 0.24930098E+04</pdfrwt>
<totfact> 0.17335279E+00</totfact>
</mgrwt>
</event>
<event>
12    1  0.1980523E-007  0.1935974E+04  0.7818608E-02  0.8637154E-01
         -2   -1    0    0    0  501 -0.00000000000E+00  0.00000000000E+00  0.54528047175E+03  0.54528047175E+03  0.00000000000E+00 0.  1.
          2   -1    0    0  501    0  0.00000000000E+00 -0.00000000000E+00 -0.17183802492E+04  0.17183802492E+04  0.00000000000E+00 0. -1.
         23    2    1    2    0    0 -0.55857259828E+03 -0.46965984179E+03 -0.68407313551E+03  0.10056839952E+04  0.10421386147E+03 0.  0.
        254    2    1    2    0    0  0.55857259828E+03  0.46965984179E+03 -0.48902664197E+03  0.12579767258E+04  0.90043027023E+03 0.  0.
        -24    2    4    4    0    0  0.17611290894E+03  0.31143990673E+03  0.22397936969E+03  0.42963599239E+03  0.80060949946E+02 0.  0.
         24    2    4    4    0    0  0.38245968934E+03  0.15821993505E+03 -0.71300601166E+03  0.82834073341E+03  0.80385546811E+02 0.  0.
         11    1    3    3    0    0 -0.48203557501E+03 -0.39182586343E+03 -0.62653365844E+03  0.88228693064E+03  0.00000000000E+00 0. -1.
        -11    1    3    3    0    0 -0.76537023268E+02 -0.77833978351E+02 -0.57539477071E+02  0.12339706454E+03  0.00000000000E+00 0.  1.
          2    1    6    6  502    0  0.25858136817E+03  0.68082168712E+02 -0.42492267479E+03  0.50205456397E+03  0.00000000000E+00 0. -1.
          1    1    5    5  503    0  0.68196549177E+02  0.19700310015E+03  0.11297565602E+03  0.23711703786E+03  0.00000000000E+00 0. -1.
         -2    1    5    5    0  503  0.10791635976E+03  0.11443680658E+03  0.11100371367E+03  0.19251895453E+03  0.00000000000E+00 0.  1.
         -1    1    6    6    0  502  0.12387832118E+03  0.90137766343E+02 -0.28808333688E+03  0.32628616943E+03  0.00000000000E+00 0.  1.
<mgrwt>
<rscale>  0 0.19359744E+04</rscale>
<asrwt>0</asrwt>
<pdfrwt beam="1">  1        2 0.26436619E+00 0.19359744E+04</pdfrwt>
<pdfrwt beam="2">  1       -2 0.83889303E-01 0.19359744E+04</pdfrwt>
<totfact> 0.11105144E+01</totfact>
</mgrwt>
</event>
<event>
12    1  0.1980523E-007  0.1288375E+04  0.7818608E-02  0.9038835E-01
         -1   -1    0    0    0  501 -0.00000000000E+00  0.00000000000E+00  0.11152022937E+03  0.11152022937E+03  0.00000000000E+00 0.  1.
          1   -1    0    0  501    0  0.00000000000E+00 -0.00000000000E+00 -0.37210960863E+04  0.37210960863E+04  0.00000000000E+00 0. -1.
         23    2    1    2    0    0 -0.16368332084E+03 -0.24540583597E+03 -0.57599718984E+03  0.65394668884E+03  0.94112992136E+02 0.  0.
        254    2    1    2    0    0  0.16368332084E+03  0.24540583597E+03 -0.30335786671E+04  0.31786696268E+04  0.90239947546E+03 0.  0.
        -24    2    4    4    0    0  0.47281079752E+03  0.17914727968E+02 -0.10203462816E+04  0.11275304768E+04  0.79670911163E+02 0.  0.
         24    2    4    4    0    0 -0.30912747668E+03  0.22749110801E+03 -0.20132323855E+04  0.20511391501E+04  0.82189863298E+02 0.  0.
         11    1    3    3    0    0 -0.14058135577E+03 -0.19216237141E+03 -0.37048359595E+03  0.44039481087E+03  0.00000000000E+00 0.  1.
        -11    1    3    3    0    0 -0.23101965066E+02 -0.53243464563E+02 -0.20551359389E+03  0.21355187797E+03  0.00000000000E+00 0. -1.
          2    1    6    6  502    0 -0.47803727795E+01 -0.23182223125E+01 -0.10704404599E+03  0.10717580837E+03  0.00000000000E+00 0. -1.
          1    1    5    5  503    0  0.23864580159E+02  0.11400442707E+02 -0.10094450911E+03  0.10435172351E+03  0.00000000000E+00 0. -1.
         -2    1    5    5    0  503  0.44894621736E+03  0.65142852608E+01 -0.91940177245E+03  0.10231787533E+04  0.00000000000E+00 0.  1.
         -1    1    6    6    0  502 -0.30434710390E+03  0.22980933032E+03 -0.19061883396E+04  0.19439633417E+04  0.00000000000E+00 0.  1.
<mgrwt>
<rscale>  0 0.12883749E+04</rscale>
<asrwt>0</asrwt>
<pdfrwt beam="1">  1        1 0.57247643E+00 0.12883749E+04</pdfrwt>
<pdfrwt beam="2">  1       -1 0.17156955E-01 0.12883749E+04</pdfrwt>
<totfact> 0.44018247E+00</totfact>
</mgrwt>
</event>
<event>
12    1  0.1980523E-007  0.2256237E+04  0.7818608E-02  0.8495379E-01
          1   -1    0    0  501    0  0.00000000000E+00  0.00000000000E+00  0.28954919315E+04  0.28954919315E+04  0.00000000000E+00 0. -1.
         -1   -1    0    0    0  501 -0.00000000000E+00 -0.00000000000E+00 -0.43952847941E+03  0.43952847941E+03  0.00000000000E+00 0.  1.
         23    2    1    2    0    0  0.68144241547E+03 -0.34187564361E+03  0.18627029075E+04  0.20147416115E+04  0.90988560652E+02 0.  0.
        254    2    1    2    0    0 -0.68144241547E+03  0.34187564361E+03  0.59326054453E+03  0.13202787994E+04  0.89996406210E+03 0.  0.
        -24    2    4    4    0    0 -0.84481945568E+03  0.37711961391E+03  0.30418852892E+03  0.97721384579E+03  0.80480577718E+02 0.  0.
         24    2    4    4    0    0  0.16337704021E+03 -0.35243970293E+02  0.28907201561E+03  0.34306495358E+03  0.78719358820E+02 0.  0.
         13    1    3    3    0    0  0.33554291318E+03 -0.12612578082E+03  0.80554384237E+03  0.88170156014E+03  0.00000000000E+00 0.  1.
        -13    1    3    3    0    0  0.34589950229E+03 -0.21574986280E+03  0.10571590652E+04  0.11330400514E+04  0.00000000000E+00 0. -1.
          4    1    6    6  502    0  0.28589085196E+02 -0.37227989985E+02  0.49812862570E+02  0.68443993952E+02  0.00000000000E+00 0. -1.
          3    1    5    5  503    0 -0.23574589606E+03  0.11582720211E+03  0.49967307910E+02  0.26737389573E+03  0.00000000000E+00 0. -1.
         -4    1    5    5    0  503 -0.60907355962E+03  0.26129241179E+03  0.25422122101E+03  0.70983995006E+03  0.00000000000E+00 0.  1.
         -3    1    6    6    0  502  0.13478795502E+03  0.19840196921E+01  0.23925915304E+03  0.27462095963E+03  0.00000000000E+00 0.  1.
<mgrwt>
<rscale>  0 0.22562368E+04</rscale>
<asrwt>0</asrwt>
<pdfrwt beam="1">  1        1 0.44546029E+00 0.22562368E+04</pdfrwt>
<pdfrwt beam="2">  1       -1 0.67619768E-01 0.22562368E+04</pdfrwt>
<totfact> 0.14309919E+00</totfact>
</mgrwt>
</event>
<event>
12    1  0.1980523E-007  0.2418690E+04  0.7818608E-02  0.8432539E-01
          2   -1    0    0  501    0  0.00000000000E+00  0.00000000000E+00  0.13020861987E+04  0.13020861987E+04  0.00000000000E+00 0. -1.
         -2   -1    0    0    0  501 -0.00000000000E+00 -0.00000000000E+00 -0.11232096747E+04  0.11232096747E+04  0.00000000000E+00 0.  1.
         23    2    1    2    0    0  0.76298980489E+03 -0.47786963116E+03  0.59071967554E+03  0.10807238716E+04  0.92203713849E+02 0.  0.
        254    2    1    2    0    0 -0.76298980489E+03  0.47786963116E+03 -0.41184315157E+03  0.13445720018E+04  0.90980561647E+03 0.  0.
        -24    2    4    4    0    0 -0.90564738988E+03  0.57646444880E+03 -0.41383556974E+03  0.11534547575E+04  0.81789628001E+02 0.  0.
         24    2    4    4    0    0  0.14265758498E+03 -0.98594817646E+02  0.19924181616E+01  0.19111724431E+03  0.80310066142E+02 0.  0.
         11    1    3    3    0    0  0.71398292872E+03 -0.42545188078E+03  0.56264694745E+03  0.10036695237E+04  0.00000000000E+00 0. -1.
        -11    1    3    3    0    0  0.49006876173E+02 -0.52417750381E+02  0.28072728088E+02  0.77054347896E+02  0.00000000000E+00 0.  1.
          2    1    6    6  502    0  0.14824485521E+03 -0.73638230970E+02  0.12246430678E+01  0.16553134418E+03  0.00000000000E+00 0. -1.
          1    1    5    5  503    0 -0.68144682468E+03  0.39084374550E+03 -0.30480000081E+03  0.84263375719E+03  0.00000000000E+00 0. -1.
         -2    1    5    5    0  503 -0.22420056520E+03  0.18562070331E+03 -0.10903556892E+03  0.31082100029E+03  0.00000000000E+00 0.  1.
         -1    1    6    6    0  502 -0.55872702218E+01 -0.24956586676E+02  0.76777509373E+00  0.25585900134E+02  0.00000000000E+00 0.  1.
<mgrwt>
<rscale>  0 0.24186904E+04</rscale>
<asrwt>0</asrwt>
<pdfrwt beam="1">  1        2 0.20032095E+00 0.24186904E+04</pdfrwt>
<pdfrwt beam="2">  1       -2 0.17280149E+00 0.24186904E+04</pdfrwt>
<totfact> 0.30139379E+00</totfact>
</mgrwt>
</event>
<event>
12    1  0.1980523E-007  0.2657434E+04  0.7818608E-02  0.8348950E-01
         -1   -1    0    0    0  501 -0.00000000000E+00  0.00000000000E+00  0.10452894998E+04  0.10452894998E+04  0.00000000000E+00 0.  1.
          1   -1    0    0  501    0  0.00000000000E+00 -0.00000000000E+00 -0.16889951436E+04  0.16889951436E+04  0.00000000000E+00 0. -1.
         23    2    1    2    0    0  0.11377760183E+04 -0.21866768763E+03 -0.94283902115E+02  0.11664410806E+04  0.96672203296E+02 0.  0.
        254    2    1    2    0    0 -0.11377760183E+04  0.21866768763E+03 -0.54942174168E+03  0.15678435628E+04  0.90217479552E+03 0.  0.
        -24    2    4    4    0    0 -0.93002159515E+03  0.51889197110E+03 -0.27277005573E+03  0.11023088580E+04  0.80574624117E+02 0.  0.
         24    2    4    4    0    0 -0.20775442314E+03 -0.30022428348E+03 -0.27665168595E+03  0.46553470474E+03  0.83005332712E+02 0.  0.
         11    1    3    3    0    0  0.63768733886E+03 -0.16824776133E+03 -0.36705553384E+02  0.66052990015E+03  0.00000000000E+00 0. -1.
        -11    1    3    3    0    0  0.50008867942E+03 -0.50419926300E+02 -0.57578348731E+02  0.50591118044E+03  0.00000000000E+00 0.  1.
          2    1    6    6  502    0 -0.19903536883E+03 -0.26634527481E+03 -0.21913523268E+03  0.39821493400E+03  0.00000000000E+00 0. -1.
          3    1    5    5  503    0 -0.30623603629E+03  0.21485362960E+03 -0.94686789977E+02  0.38588622710E+03  0.00000000000E+00 0. -1.
         -4    1    5    5    0  503 -0.62378555887E+03  0.30403834150E+03 -0.17808326576E+03  0.71642263092E+03  0.00000000000E+00 0.  1.
         -1    1    6    6    0  502 -0.87190543076E+01 -0.33879008664E+02 -0.57516453265E+02  0.67319770739E+02  0.00000000000E+00 0.  1.
<mgrwt>
<rscale>  0 0.26574340E+04</rscale>
<asrwt>0</asrwt>
<pdfrwt beam="1">  1        1 0.25984540E+00 0.26574340E+04</pdfrwt>
<pdfrwt beam="2">  1       -1 0.16081377E+00 0.26574340E+04</pdfrwt>
<totfact> 0.12244403E+00</totfact>
</mgrwt>
</event>
<event>
12    1  0.1980523E-007  0.2690970E+04  0.7818608E-02  0.8337941E-01
         -2   -1    0    0    0  501 -0.00000000000E+00  0.00000000000E+00  0.17160682269E+04  0.17160682269E+04  0.00000000000E+00 0. -1.
          2   -1    0    0  501    0  0.00000000000E+00 -0.00000000000E+00 -0.10549292263E+04  0.10549292263E+04  0.00000000000E+00 0.  1.
         23    2    1    2    0    0 -0.63013725247E+03  0.77544019526E+03  0.96493389158E+03  0.13920255685E+04  0.90869768377E+02 0.  0.
        254    2    1    2    0    0  0.63013725247E+03 -0.77544019526E+03 -0.30379489097E+03  0.13789718848E+04  0.90049523589E+03 0.  0.
        -24    2    4    4    0    0  0.75845069284E+03 -0.67721913360E+03 -0.47973352817E+03  0.11270922070E+04  0.79494506400E+02 0.  0.
         24    2    4    4    0    0 -0.12831344036E+03 -0.98221061653E+02  0.17593863720E+03  0.25187967782E+03  0.79857699120E+02 0.  0.
         11    1    3    3    0    0 -0.31657260019E+03  0.34123619977E+03  0.49535992700E+03  0.67973657582E+03  0.00000000000E+00 0.  1.
        -11    1    3    3    0    0 -0.31356465228E+03  0.43420399548E+03  0.46957396458E+03  0.71228899266E+03  0.00000000000E+00 0. -1.
          2    1    6    6  502    0 -0.43952147717E+01  0.10280407065E+02  0.29278325881E+02  0.31340469823E+02  0.00000000000E+00 0. -1.
          3    1    5    5  503    0  0.45309412606E+03 -0.45549263577E+03 -0.30821165124E+03  0.71257438227E+03  0.00000000000E+00 0. -1.
         -4    1    5    5    0  503  0.30535656678E+03 -0.22172649784E+03 -0.17152187693E+03  0.41451782468E+03  0.00000000000E+00 0.  1.
         -1    1    6    6    0  502 -0.12391822559E+03 -0.10850146872E+03  0.14666031132E+03  0.22053920800E+03  0.00000000000E+00 0.  1.
<mgrwt>
<rscale>  0 0.26909705E+04</rscale>
<asrwt>0</asrwt>
<pdfrwt beam="1">  1        2 0.16229680E+00 0.26909705E+04</pdfrwt>
<pdfrwt beam="2">  1       -2 0.26401050E+00 0.26909705E+04</pdfrwt>
<totfact> 0.10758863E+00</totfact>
</mgrwt>
</event>
<event>
12    1  0.1980523E-007  0.2606042E+04  0.7818608E-02  0.8366152E-01
          1   -1    0    0  501    0  0.00000000000E+00  0.00000000000E+00  0.31181863061E+04  0.31181863061E+04  0.00000000000E+00 0. -1.
         -1   -1    0    0    0  501 -0.00000000000E+00 -0.00000000000E+00 -0.54450380024E+03  0.54450380024E+03  0.00000000000E+00 0.  1.
         23    2    1    2    0    0 -0.74231348314E+03  0.36533210183E+03  0.22409187766E+04  0.23905141717E+04  0.91346536507E+02 0.  0.
        254    2    1    2    0    0  0.74231348314E+03 -0.36533210183E+03  0.33276372917E+03  0.12721759346E+04  0.90730538255E+03 0.  0.
        -24    2    4    4    0    0  0.47838009791E+03 -0.34591308317E+03 -0.23519673367E+03  0.64053553523E+03  0.80404534596E+02 0.  0.
         24    2    4    4    0    0  0.26393338523E+03 -0.19419018664E+02  0.56796046284E+03  0.63164039935E+03  0.79703052794E+02 0.  0.
         11    1    3    3    0    0 -0.44065753850E+03  0.23767566666E+03  0.14688861174E+04  0.15518682981E+04  0.00000000000E+00 0. -1.
        -11    1    3    3    0    0 -0.30165594464E+03  0.12765643517E+03  0.77203265929E+03  0.83864587365E+03  0.00000000000E+00 0.  1.
          4    1    6    6  502    0  0.26148559594E+03 -0.15709056535E+02  0.50844891854E+03  0.57196310555E+03  0.00000000000E+00 0. -1.
          1    1    5    5  503    0  0.35771934994E+03 -0.28879996309E+03 -0.20648042135E+03  0.50398682166E+03  0.00000000000E+00 0. -1.
         -2    1    5    5    0  503  0.12066074798E+03 -0.57113120076E+02 -0.28716312318E+02  0.13654871358E+03  0.00000000000E+00 0.  1.
         -3    1    6    6    0  502  0.24477892854E+01 -0.37099621292E+01  0.59511544293E+02  0.59677293802E+02  0.00000000000E+00 0.  1.
<mgrwt>
<rscale>  0 0.26060424E+04</rscale>
<asrwt>0</asrwt>
<pdfrwt beam="1">  1        1 0.47972096E+00 0.26060424E+04</pdfrwt>
<pdfrwt beam="2">  1       -1 0.83769817E-01 0.26060424E+04</pdfrwt>
<totfact> 0.60844635E-01</totfact>
</mgrwt>
</event>
<event>
12    1  0.1980523E-007  0.1518052E+04  0.7818608E-02  0.8872537E-01
          2   -1    0    0  501    0  0.00000000000E+00  0.00000000000E+00  0.63574210910E+03  0.63574210910E+03  0.00000000000E+00 0. -1.
         -2   -1    0    0    0  501 -0.00000000000E+00 -0.00000000000E+00 -0.90621714054E+03  0.90621714054E+03  0.00000000000E+00 0.  1.
         23    2    1    2    0    0  0.88096568419E+02 -0.45899725661E+02 -0.56935010576E+03  0.58497732194E+03  0.90394325416E+02 0.  0.
        254    2    1    2    0    0 -0.88096568419E+02  0.45899725661E+02  0.29887507433E+03  0.95698192770E+03  0.90367046522E+03 0.  0.
        -24    2    4    4    0    0 -0.46869030354E+03 -0.11234654691E+03  0.17987247605E+03  0.52062365916E+03  0.80015870897E+02 0.  0.
         24    2    4    4    0    0  0.38059373513E+03  0.15824627257E+03  0.11900259828E+03  0.43635826854E+03  0.79708507250E+02 0.  0.
         13    1    3    3    0    0  0.46978525783E+02 -0.58426882009E+02 -0.48006899664E+03  0.48588776889E+03  0.00000000000E+00 0.  1.
        -13    1    3    3    0    0  0.41118042636E+02  0.12527156348E+02 -0.89281109125E+02  0.99089553046E+02  0.00000000000E+00 0. -1.
          4    1    6    6  502    0  0.37094314912E+03  0.15502669576E+03  0.12887128985E+03  0.42218468189E+03  0.00000000000E+00 0. -1.
          3    1    5    5  503    0 -0.45441623341E+03 -0.98439587255E+02  0.15808366325E+03  0.49109562216E+03  0.00000000000E+00 0. -1.
         -4    1    5    5    0  503 -0.14274070136E+02 -0.13906959659E+02  0.21788812809E+02  0.29528036996E+02  0.00000000000E+00 0.  1.
         -3    1    6    6    0  502  0.96505860060E+01  0.32195768163E+01 -0.98686915746E+01  0.14173586650E+02  0.00000000000E+00 0.  1.
<mgrwt>
<rscale>  0 0.15180519E+04</rscale>
<asrwt>0</asrwt>
<pdfrwt beam="1">  1        2 0.97806478E-01 0.15180519E+04</pdfrwt>
<pdfrwt beam="2">  1       -2 0.13941802E+00 0.15180519E+04</pdfrwt>
<totfact> 0.16180416E+01</totfact>
</mgrwt>
</event>
<event>
12    1  0.2058093E-007  0.2276362E+04  0.7818608E-02  0.8487300E-01
         -1   -1    0    0    0  501 -0.00000000000E+00  0.00000000000E+00  0.68735975346E+03  0.68735975346E+03  0.00000000000E+00 0.  1.
          1   -1    0    0  501    0  0.00000000000E+00 -0.00000000000E+00 -0.18846834330E+04  0.18846834330E+04  0.00000000000E+00 0. -1.
         23    2    1    2    0    0 -0.55750208520E+03  0.55771150190E+03  0.10816679693E+03  0.80121635546E+03  0.91634589201E+02 0.  0.
        254    2    1    2    0    0  0.55750208520E+03 -0.55771150190E+03 -0.13054904765E+04  0.17708268310E+04  0.89981752979E+03 0.  0.
        -24    2    4    4    0    0  0.43888265167E+03 -0.27595700317E+03 -0.11076959764E+03  0.53505042314E+03  0.72379568924E+02 0.  0.
         24    2    4    4    0    0  0.11861943353E+03 -0.28175449872E+03 -0.11947208788E+04  0.12357764079E+04  0.79556171335E+02 0.  0.
         11    1    3    3    0    0 -0.28877333445E+03  0.33594283750E+03  0.91813531345E+02  0.45241281292E+03  0.00000000000E+00 0.  1.
        -11    1    3    3    0    0 -0.26872875075E+03  0.22176866440E+03  0.16353265582E+02  0.34880354253E+03  0.00000000000E+00 0. -1.
          4    1    6    6  502    0 -0.24647068721E+01 -0.52825353007E+01 -0.32569840427E+01  0.66774174815E+01  0.00000000000E+00 0. -1.
          1    1    5    5  503    0  0.19331784689E+02 -0.97978102767E+01 -0.20950027770E+02  0.30143301894E+02  0.00000000000E+00 0. -1.
         -2    1    5    5    0  503  0.41955086698E+03 -0.26615919290E+03 -0.89819569872E+02  0.50490712124E+03  0.00000000000E+00 0.  1.
         -3    1    6    6    0  502  0.12108414041E+03 -0.27647196342E+03 -0.11914638948E+04  0.12290989904E+04  0.00000000000E+00 0.  1.
<mgrwt>
<rscale>  0 0.22763616E+04</rscale>
<asrwt>0</asrwt>
<pdfrwt beam="1">  1        1 0.28995130E+00 0.22763616E+04</pdfrwt>
<pdfrwt beam="2">  1       -1 0.10574765E+00 0.22763616E+04</pdfrwt>
<totfact> 0.27060465E+00</totfact>
</mgrwt>
</event>
<event>
12    1  0.1980523E-007  0.1497470E+04  0.7818608E-02  0.8886137E-01
         -2   -1    0    0    0  501 -0.00000000000E+00  0.00000000000E+00  0.47761283330E+03  0.47761283330E+03  0.00000000000E+00 0. -1.
          2   -1    0    0  501    0  0.00000000000E+00 -0.00000000000E+00 -0.11737626300E+04  0.11737626300E+04  0.00000000000E+00 0.  1.
         23    2    1    2    0    0 -0.11632005727E+03 -0.44954622980E+03 -0.32396467362E+03  0.57295895326E+03  0.87787720788E+02 0.  0.
        254    2    1    2    0    0  0.11632005727E+03  0.44954622980E+03 -0.37218512309E+03  0.10784165100E+04  0.89935434332E+03 0.  0.
        -24    2    4    4    0    0  0.38786323618E+03  0.54770992826E+03 -0.38713910852E+03  0.77860995677E+03  0.77024151671E+02 0.  0.
         24    2    4    4    0    0 -0.27154317892E+03 -0.98163698464E+02  0.14953985426E+02  0.29980655328E+03  0.79300302619E+02 0.  0.
         13    1    3    3    0    0 -0.10736387505E+03 -0.24102959805E+03 -0.17927070617E+03  0.31899883212E+03  0.00000000000E+00 0.  1.
        -13    1    3    3    0    0 -0.89561822190E+01 -0.20851663174E+03 -0.14469396744E+03  0.25396012114E+03  0.00000000000E+00 0. -1.
          4    1    6    6  502    0 -0.14295305389E+03 -0.91161327885E+02  0.21245754031E+02  0.17087230724E+03  0.00000000000E+00 0. -1.
          1    1    5    5  503    0  0.33822259546E+03  0.50591979786E+03 -0.36703123809E+03  0.71067664636E+03  0.00000000000E+00 0. -1.
         -2    1    5    5    0  503  0.49640640726E+02  0.41790130401E+02 -0.20107870430E+02  0.67933310414E+02  0.00000000000E+00 0.  1.
         -3    1    6    6    0  502 -0.12859012503E+03 -0.70023705787E+01 -0.62917686051E+01  0.12893424603E+03  0.00000000000E+00 0.  1.
<mgrwt>
<rscale>  0 0.14974700E+04</rscale>
<asrwt>0</asrwt>
<pdfrwt beam="1">  1        2 0.18057887E+00 0.14974700E+04</pdfrwt>
<pdfrwt beam="2">  1       -2 0.73478898E-01 0.14974700E+04</pdfrwt>
<totfact> 0.31719179E+01</totfact>
</mgrwt>
</event>
<event>
12    1  0.1991141E-007  0.2606771E+04  0.7818608E-02  0.8365905E-01
          2   -1    0    0  501    0  0.00000000000E+00  0.00000000000E+00  0.80936674367E+03  0.80936674367E+03  0.00000000000E+00 0. -1.
         -2   -1    0    0    0  501 -0.00000000000E+00 -0.00000000000E+00 -0.20989418906E+04  0.20989418906E+04  0.00000000000E+00 0.  1.
         23    2    1    2    0    0 -0.42845201208E+03  0.99902744605E+03 -0.16368338224E+03  0.11033616419E+04  0.94803472968E+02 0.  0.
        254    2    1    2    0    0  0.42845201208E+03 -0.99902744605E+03 -0.11258917647E+04  0.18049469924E+04  0.89920765950E+03 0.  0.
        -24    2    4    4    0    0  0.13029487302E+03 -0.10305459303E+04 -0.10630321999E+04  0.14883315718E+04  0.78049608158E+02 0.  0.
         24    2    4    4    0    0  0.29815713906E+03  0.31518484221E+02 -0.62859564785E+02  0.31661542056E+03  0.80018155629E+02 0.  0.
         13    1    3    3    0    0 -0.14692587633E+03  0.45790920679E+03 -0.84516660745E+02  0.48827361258E+03  0.00000000000E+00 0. -1.
        -13    1    3    3    0    0 -0.28152613575E+03  0.54111823927E+03 -0.79166721492E+02  0.61508802928E+03  0.00000000000E+00 0.  1.
          2    1    6    6  502    0  0.93885038721E+00 -0.96186438788E+01 -0.55344566959E+01  0.11136873935E+02  0.00000000000E+00 0. -1.
          3    1    5    5  503    0 -0.81201204891E+01 -0.31698294940E+02 -0.42526424263E+02  0.53658317337E+02  0.00000000000E+00 0. -1.
         -4    1    5    5    0  503  0.13841499351E+03 -0.99884763533E+03 -0.10205057756E+04  0.14346732545E+04  0.00000000000E+00 0.  1.
         -1    1    6    6    0  502  0.29721828867E+03  0.41137128100E+02 -0.57325108089E+02  0.30547854662E+03  0.00000000000E+00 0.  1.
<mgrwt>
<rscale>  0 0.26067710E+04</rscale>
<asrwt>0</asrwt>
<pdfrwt beam="1">  1        2 0.12451796E+00 0.26067710E+04</pdfrwt>
<pdfrwt beam="2">  1       -2 0.32291414E+00 0.26067710E+04</pdfrwt>
<totfact> 0.68884980E-01</totfact>
</mgrwt>
</event>
<event>
12    1  0.1980523E-007  0.2059114E+04  0.7818608E-02  0.8579471E-01
         -2   -1    0    0    0  501 -0.00000000000E+00  0.00000000000E+00  0.13599412833E+04  0.13599412833E+04  0.00000000000E+00 0.  1.
          2   -1    0    0  501    0  0.00000000000E+00 -0.00000000000E+00 -0.77943641408E+03  0.77943641408E+03  0.00000000000E+00 0. -1.
         23    2    1    2    0    0  0.15720002809E+03 -0.66323971468E+03  0.72885596250E+03  0.10022649420E+04  0.93301831999E+02 0.  0.
        254    2    1    2    0    0 -0.15720002809E+03  0.66323971468E+03 -0.14835109332E+03  0.11371127554E+04  0.89800813116E+03 0.  0.
        -24    2    4    4    0    0  0.32178061646E+03  0.23083813542E+03 -0.25557803607E+03  0.47807053647E+03  0.80014345132E+02 0.  0.
         24    2    4    4    0    0 -0.47898064455E+03  0.43240157926E+03  0.10722694275E+03  0.65904221892E+03  0.80283531732E+02 0.  0.
         11    1    3    3    0    0  0.30065117723E+01 -0.17465610100E+03  0.20877114680E+03  0.27221165380E+03  0.00000000000E+00 0. -1.
        -11    1    3    3    0    0  0.15419351632E+03 -0.48858361368E+03  0.52008481569E+03  0.73005328815E+03  0.00000000000E+00 0.  1.
          4    1    6    6  502    0 -0.26518797013E+03  0.25390815639E+03  0.22071881922E+02  0.36780589902E+03  0.00000000000E+00 0. -1.
          1    1    5    5  503    0  0.17210008034E+03  0.10355733908E+03 -0.85852886013E+02  0.21843369284E+03  0.00000000000E+00 0. -1.
         -2    1    5    5    0  503  0.14968053612E+03  0.12728079634E+03 -0.16972515005E+03  0.25963684363E+03  0.00000000000E+00 0.  1.
         -3    1    6    6    0  502 -0.21379267442E+03  0.17849342287E+03  0.85155060829E+02  0.29123631990E+03  0.00000000000E+00 0.  1.
<mgrwt>
<rscale>  0 0.20591141E+04</rscale>
<asrwt>0</asrwt>
<pdfrwt beam="1">  1        2 0.11991329E+00 0.20591141E+04</pdfrwt>
<pdfrwt beam="2">  1       -2 0.20922173E+00 0.20591141E+04</pdfrwt>
<totfact> 0.38171405E+00</totfact>
</mgrwt>
</event>
<event>
12    1  0.1980523E-007  0.1744879E+04  0.7818608E-02  0.8736174E-01
         -1   -1    0    0    0  501 -0.00000000000E+00  0.00000000000E+00  0.23500716185E+04  0.23500716185E+04  0.00000000000E+00 0.  1.
          1   -1    0    0  501    0  0.00000000000E+00 -0.00000000000E+00 -0.32388407999E+03  0.32388407999E+03  0.00000000000E+00 0. -1.
         23    2    1    2    0    0 -0.32836144616E+03 -0.37553069247E+03  0.14077623655E+03  0.52577534087E+03  0.88188547896E+02 0.  0.
        254    2    1    2    0    0  0.32836144616E+03  0.37553069247E+03  0.18854113020E+04  0.21481803576E+04  0.90058788078E+03 0.  0.
        -24    2    4    4    0    0  0.30789579643E+03  0.65131881804E+03  0.11630943363E+04  0.13704603244E+04  0.79731057884E+02 0.  0.
         24    2    4    4    0    0  0.20465649729E+02 -0.27578812557E+03  0.72231696571E+03  0.77772003320E+03  0.81416939731E+02 0.  0.
         13    1    3    3    0    0 -0.26879732202E+03 -0.25070628509E+03  0.89847888044E+02  0.37838906524E+03  0.00000000000E+00 0. -1.
        -13    1    3    3    0    0 -0.59564124140E+02 -0.12482440738E+03  0.50928348507E+02  0.14738627563E+03  0.00000000000E+00 0.  1.
          4    1    6    6  502    0  0.38413589776E+02 -0.25889404279E+03  0.68160301856E+03  0.73012629331E+03  0.00000000000E+00 0. -1.
          1    1    5    5  503    0  0.20011652866E+03  0.46751266987E+03  0.75874273301E+03  0.91340311825E+03  0.00000000000E+00 0. -1.
         -2    1    5    5    0  503  0.10777926777E+03  0.18380614817E+03  0.40435160325E+03  0.45705720617E+03  0.00000000000E+00 0.  1.
         -3    1    6    6    0  502 -0.17947940047E+02 -0.16894082775E+02  0.40713947145E+02  0.47593739892E+02  0.00000000000E+00 0.  1.
<mgrwt>
<rscale>  0 0.17448791E+04</rscale>
<asrwt>0</asrwt>
<pdfrwt beam="1">  1        1 0.49828322E-01 0.17448791E+04</pdfrwt>
<pdfrwt beam="2">  1       -1 0.36154947E+00 0.17448791E+04</pdfrwt>
<totfact> 0.98177394E-01</totfact>
</mgrwt>
</event>
<event>
12    1  0.1980523E-007  0.1305771E+04  0.7818608E-02  0.9025001E-01
         -2   -1    0    0    0  501 -0.00000000000E+00  0.00000000000E+00  0.18675557080E+03  0.18675557080E+03  0.00000000000E+00 0.  1.
          2   -1    0    0  501    0  0.00000000000E+00 -0.00000000000E+00 -0.22824472846E+04  0.22824472846E+04  0.00000000000E+00 0. -1.
         23    2    1    2    0    0  0.14715491693E+03  0.28013869895E+03 -0.75634072250E+03  0.82517750457E+03  0.93457826316E+02 0.  0.
        254    2    1    2    0    0 -0.14715491693E+03 -0.28013869895E+03 -0.13393509913E+04  0.16440253508E+04  0.89934755021E+03 0.  0.
        -24    2    4    4    0    0  0.11427067188E+03  0.16069792325E+03 -0.53522982597E+01  0.21275420901E+03  0.79712592271E+02 0.  0.
         24    2    4    4    0    0 -0.26142558881E+03 -0.44083662220E+03 -0.13339986931E+04  0.14312711418E+04  0.79399637392E+02 0.  0.
         13    1    3    3    0    0  0.14984159867E+03  0.20855891952E+03 -0.62210317807E+03  0.67302428765E+03  0.00000000000E+00 0. -1.
        -13    1    3    3    0    0 -0.26866817419E+01  0.71579779432E+02 -0.13423754443E+03  0.15215321692E+03  0.00000000000E+00 0.  1.
          2    1    6    6  502    0 -0.23930841891E+03 -0.34339976281E+03 -0.10625388241E+04  0.11420072982E+04  0.00000000000E+00 0. -1.
          3    1    5    5  503    0  0.12612603369E+03  0.13789357199E+03 -0.69307907736E+01  0.18700387545E+03  0.00000000000E+00 0. -1.
         -4    1    5    5    0  503 -0.11855361813E+02  0.22804351260E+02  0.15784925139E+01  0.25750333565E+02  0.00000000000E+00 0.  1.
         -1    1    6    6    0  502 -0.22117169904E+02 -0.97436859390E+02 -0.27145986892E+03  0.28926384359E+03  0.00000000000E+00 0.  1.
<mgrwt>
<rscale>  0 0.13057714E+04</rscale>
<asrwt>0</asrwt>
<pdfrwt beam="1">  1        2 0.35114575E+00 0.13057714E+04</pdfrwt>
<pdfrwt beam="2">  1       -2 0.28731625E-01 0.13057714E+04</pdfrwt>
<totfact> 0.50646482E+01</totfact>
</mgrwt>
</event>
<event>
12    1  0.1980523E-007  0.3857493E+04  0.7818608E-02  0.8033928E-01
          2   -1    0    0  501    0  0.00000000000E+00  0.00000000000E+00  0.28842053939E+04  0.28842053939E+04  0.00000000000E+00 0. -1.
         -2   -1    0    0    0  501 -0.00000000000E+00 -0.00000000000E+00 -0.12898050848E+04  0.12898050848E+04  0.00000000000E+00 0.  1.
         23    2    1    2    0    0  0.18095945993E+04 -0.18106136609E+03  0.62933229292E+03  0.19265950660E+04  0.91069102056E+02 0.  0.
        254    2    1    2    0    0 -0.18095945993E+04  0.18106136609E+03  0.96506801617E+03  0.22474154127E+04  0.90116809151E+03 0.  0.
        -24    2    4    4    0    0 -0.74441433850E+03  0.37061216989E+02 -0.71554847758E+02  0.75249692698E+03  0.74868469354E+02 0.  0.
         24    2    4    4    0    0 -0.10651802608E+04  0.14400014910E+03  0.10366228639E+04  0.14949184857E+04  0.69636814382E+02 0.  0.
         13    1    3    3    0    0  0.13007009740E+04 -0.95964666903E+02  0.47513443445E+03  0.13880868027E+04  0.00000000000E+00 0. -1.
        -13    1    3    3    0    0  0.50889362534E+03 -0.85096699185E+02  0.15419785847E+03  0.53850826334E+03  0.00000000000E+00 0.  1.
          2    1    6    6  502    0 -0.15843573576E+03  0.16524222558E+02  0.12134292090E+03  0.20024743881E+03  0.00000000000E+00 0. -1.
          1    1    5    5  503    0 -0.22897261445E+02 -0.22550739400E+01  0.10452035573E+02  0.25270832748E+02  0.00000000000E+00 0. -1.
         -2    1    5    5    0  503 -0.72151707706E+03  0.39316290929E+02 -0.82006883331E+02  0.72722609423E+03  0.00000000000E+00 0.  1.
         -1    1    6    6    0  502 -0.90674452508E+03  0.12747592654E+03  0.91527994303E+03  0.12946710469E+04  0.00000000000E+00 0.  1.
<mgrwt>
<rscale>  0 0.38574929E+04</rscale>
<asrwt>0</asrwt>
<pdfrwt beam="1">  1        2 0.44372391E+00 0.38574929E+04</pdfrwt>
<pdfrwt beam="2">  1       -2 0.19843155E+00 0.38574929E+04</pdfrwt>
<totfact> 0.22321660E-01</totfact>
</mgrwt>
</event>
<event>
12    1  0.1980523E-007  0.1677047E+04  0.7818608E-02  0.8774565E-01
          1   -1    0    0  501    0  0.00000000000E+00  0.00000000000E+00  0.75576940601E+03  0.75576940601E+03  0.00000000000E+00 0.  1.
         -1   -1    0    0    0  501 -0.00000000000E+00 -0.00000000000E+00 -0.93033836083E+03  0.93033836083E+03  0.00000000000E+00 0. -1.
         23    2    1    2    0    0 -0.11388626028E+03 -0.43689912693E+03  0.32279512176E+03  0.56235725604E+03  0.90543168703E+02 0.  0.
        254    2    1    2    0    0  0.11388626028E+03  0.43689912693E+03 -0.49736407658E+03  0.11237505108E+04  0.90088470875E+03 0.  0.
        -24    2    4    4    0    0  0.27193040170E+02 -0.26691589914E+03 -0.22701423041E+03  0.36093412362E+03  0.82185291531E+02 0.  0.
         24    2    4    4    0    0  0.86693220111E+02  0.70381502607E+03 -0.27034984617E+03  0.76281638717E+03  0.76996726475E+02 0.  0.
         11    1    3    3    0    0 -0.96410642533E+02 -0.27154600682E+03  0.15970594714E+03  0.32945141579E+03  0.00000000000E+00 0. -1.
        -11    1    3    3    0    0 -0.17475617748E+02 -0.16535312011E+03  0.16308917462E+03  0.23290584026E+03  0.00000000000E+00 0.  1.
          2    1    6    6  502    0  0.33114401547E+02  0.91144883465E+02 -0.21244813128E+02  0.99273840746E+02  0.00000000000E+00 0. -1.
          3    1    5    5  503    0  0.28959016358E+02 -0.25445747442E+02 -0.39572873886E+02  0.55246022833E+02  0.00000000000E+00 0. -1.
         -4    1    5    5    0  503 -0.17659761874E+01 -0.24147015169E+03 -0.18744135652E+03  0.30568810079E+03  0.00000000000E+00 0.  1.
         -1    1    6    6    0  502  0.53578818565E+02  0.61267014260E+03 -0.24910503304E+03  0.66354254643E+03  0.00000000000E+00 0.  1.
<mgrwt>
<rscale>  0 0.16770465E+04</rscale>
<asrwt>0</asrwt>
<pdfrwt beam="1">  1        1 0.11627222E+00 0.16770465E+04</pdfrwt>
<pdfrwt beam="2">  1       -1 0.14312898E+00 0.16770465E+04</pdfrwt>
<totfact> 0.91260459E+00</totfact>
</mgrwt>
</event>
<event>
12    1  0.1980523E-007  0.3945894E+04  0.7818608E-02  0.8015551E-01
          2   -1    0    0  501    0  0.00000000000E+00  0.00000000000E+00  0.18151524981E+04  0.18151524981E+04  0.00000000000E+00 0. -1.
         -2   -1    0    0    0  501 -0.00000000000E+00 -0.00000000000E+00 -0.21444584440E+04  0.21444584440E+04  0.00000000000E+00 0.  1.
         23    2    1    2    0    0 -0.12152436408E+04  0.12024339221E+04  0.60186171008E+03  0.18151234673E+04  0.98849581583E+02 0.  0.
        254    2    1    2    0    0  0.12152436408E+04 -0.12024339221E+04 -0.93116765592E+03  0.21444874748E+04  0.89949368130E+03 0.  0.
        -24    2    4    4    0    0  0.94231964860E+03 -0.11509978585E+04 -0.40391159849E+03  0.15434857915E+04  0.80258450235E+02 0.  0.
         24    2    4    4    0    0  0.27292399221E+03 -0.51436063582E+02 -0.52725605744E+03  0.60100168329E+03  0.77915974296E+02 0.  0.
         13    1    3    3    0    0 -0.70393102998E+03  0.68585145124E+03  0.39701289444E+03  0.10599671441E+04  0.00000000000E+00 0. -1.
        -13    1    3    3    0    0 -0.51131261083E+03  0.51658247086E+03  0.20484881564E+03  0.75515632320E+03  0.00000000000E+00 0.  1.
          4    1    6    6  502    0  0.21775136821E+03 -0.74442763201E+01 -0.40023953885E+03  0.45570030071E+03  0.00000000000E+00 0. -1.
          3    1    5    5  503    0  0.83423806729E+03 -0.10560092639E+04 -0.36179092550E+03  0.13935571004E+04  0.00000000000E+00 0. -1.
         -4    1    5    5    0  503  0.10808158131E+03 -0.94988594589E+02 -0.42120672987E+02  0.14992869109E+03  0.00000000000E+00 0.  1.
         -3    1    6    6    0  502  0.55172624002E+02 -0.43991787262E+02 -0.12701651858E+03  0.14530138258E+03  0.00000000000E+00 0.  1.
<mgrwt>
<rscale>  0 0.39458936E+04</rscale>
<asrwt>0</asrwt>
<pdfrwt beam="1">  1        2 0.27925423E+00 0.39458936E+04</pdfrwt>
<pdfrwt beam="2">  1       -2 0.32991668E+00 0.39458936E+04</pdfrwt>
<totfact> 0.13934747E-01</totfact>
</mgrwt>
</event>
<event>
12    1  0.1980523E-007  0.1093110E+04  0.7818608E-02  0.9211933E-01
          1   -1    0    0  501    0  0.00000000000E+00  0.00000000000E+00  0.80588664740E+03  0.80588664740E+03  0.00000000000E+00 0. -1.
         -1   -1    0    0    0  501 -0.00000000000E+00 -0.00000000000E+00 -0.37067564469E+03  0.37067564469E+03  0.00000000000E+00 0.  1.
         23    2    1    2    0    0 -0.14518347986E+03 -0.47248835113E+02 -0.38071918472E+00  0.17519086770E+03  0.85912746050E+02 0.  0.
        254    2    1    2    0    0  0.14518347986E+03  0.47248835113E+02  0.43559172189E+03  0.10013714244E+04  0.88864722256E+03 0.  0.
        -24    2    4    4    0    0  0.50481600691E+03  0.11781474196E+03  0.23091503514E+03  0.57317232186E+03  0.80531005451E+02 0.  0.
         24    2    4    4    0    0 -0.35963252705E+03 -0.70565906852E+02  0.20467668676E+03  0.42819910253E+03  0.84538887985E+02 0.  0.
         13    1    3    3    0    0 -0.10179437050E+03  0.11172953273E+02  0.83112219399E+00  0.10240907925E+03  0.00000000000E+00 0. -1.
        -13    1    3    3    0    0 -0.43389109363E+02 -0.58421788386E+02 -0.12118413787E+01  0.72781788443E+02  0.00000000000E+00 0.  1.
          4    1    6    6  502    0 -0.14243988046E+03  0.11846652566E+02  0.63859829369E+02  0.15654884391E+03  0.00000000000E+00 0. -1.
          3    1    5    5  503    0  0.20264296570E+03  0.71053706448E+01  0.91489931182E+02  0.22245238894E+03  0.00000000000E+00 0. -1.
         -4    1    5    5    0  503  0.30217304122E+03  0.11070937132E+03  0.13942510395E+03  0.35071993292E+03  0.00000000000E+00 0.  1.
         -3    1    6    6    0  502 -0.21719264659E+03 -0.82412559418E+02  0.14081685739E+03  0.27165025862E+03  0.00000000000E+00 0.  1.
<mgrwt>
<rscale>  0 0.10931103E+04</rscale>
<asrwt>0</asrwt>
<pdfrwt beam="1">  1        1 0.12398256E+00 0.10931103E+04</pdfrwt>
<pdfrwt beam="2">  1       -1 0.57027022E-01 0.10931103E+04</pdfrwt>
<totfact> 0.67814009E+01</totfact>
</mgrwt>
</event>
<event>
12    1  0.1980523E-007  0.1509619E+04  0.7818608E-02  0.8878081E-01
          2   -1    0    0  501    0  0.00000000000E+00  0.00000000000E+00  0.93967327952E+03  0.93967327952E+03  0.00000000000E+00 0. -1.
         -2   -1    0    0    0  501 -0.00000000000E+00 -0.00000000000E+00 -0.60631442396E+03  0.60631442396E+03  0.00000000000E+00 0.  1.
         23    2    1    2    0    0  0.38670845216E+03 -0.29216424613E+03  0.10884146863E+03  0.50479210888E+03  0.89806649010E+02 0.  0.
        254    2    1    2    0    0 -0.38670845216E+03  0.29216424613E+03  0.22451738693E+03  0.10411955946E+04  0.89374315968E+03 0.  0.
        -24    2    4    4    0    0 -0.29874590927E+03  0.35726028291E+03 -0.25915466137E+03  0.53889804189E+03  0.79786797067E+02 0.  0.
         24    2    4    4    0    0 -0.87962542885E+02 -0.65096036774E+02  0.48367204830E+03  0.50229755270E+03  0.79932960609E+02 0.  0.
         11    1    3    3    0    0  0.19672454435E+03 -0.94745254363E+02  0.60465448684E+02  0.22656848867E+03  0.00000000000E+00 0. -1.
        -11    1    3    3    0    0  0.18998390781E+03 -0.19741899177E+03  0.48376019949E+02  0.27822362021E+03  0.00000000000E+00 0.  1.
          4    1    6    6  502    0 -0.10158566694E+03 -0.63561823747E+02  0.40190815180E+03  0.41939231711E+03  0.00000000000E+00 0. -1.
          3    1    5    5  503    0 -0.22265942391E+03  0.24187466880E+03 -0.21881300513E+03  0.39491734031E+03  0.00000000000E+00 0. -1.
         -4    1    5    5    0  503 -0.76086485360E+02  0.11538561411E+03 -0.40341656246E+02  0.14398070158E+03  0.00000000000E+00 0.  1.
         -3    1    6    6    0  502  0.13623124053E+02 -0.15342130272E+01  0.81763896502E+02  0.82905235599E+02  0.00000000000E+00 0.  1.
<mgrwt>
<rscale>  0 0.15096191E+04</rscale>
<asrwt>0</asrwt>
<pdfrwt beam="1">  1        2 0.14456512E+00 0.15096191E+04</pdfrwt>
<pdfrwt beam="2">  1       -2 0.93279142E-01 0.15096191E+04</pdfrwt>
<totfact> 0.25906301E+01</totfact>
</mgrwt>
</event>
<event>
12    1  0.1980523E-007  0.1906093E+04  0.7818608E-02  0.8651829E-01
         -1   -1    0    0    0  501 -0.00000000000E+00  0.00000000000E+00  0.35054019807E+03  0.35054019807E+03  0.00000000000E+00 0.  1.
          1   -1    0    0  501    0  0.00000000000E+00 -0.00000000000E+00 -0.25911366863E+04  0.25911366863E+04  0.00000000000E+00 0. -1.
         23    2    1    2    0    0 -0.47532026137E+03 -0.38071290671E+03 -0.15182214612E+04  0.16382376991E+04  0.89189042886E+02 0.  0.
        254    2    1    2    0    0  0.47532026137E+03  0.38071290671E+03 -0.72237502705E+03  0.13034391853E+04  0.89791779233E+03 0.  0.
        -24    2    4    4    0    0  0.15004343260E+03 -0.26493282723E+01 -0.77337322031E+03  0.79199347281E+03  0.81409289854E+02 0.  0.
         24    2    4    4    0    0  0.32527682877E+03  0.38336223498E+03  0.50998193263E+02  0.51144571246E+03  0.78767268160E+02 0.  0.
         13    1    3    3    0    0 -0.35915787797E+03 -0.24100063348E+03 -0.10197849425E+04  0.11077170287E+04  0.00000000000E+00 0.  1.
        -13    1    3    3    0    0 -0.11616238340E+03 -0.13971227323E+03 -0.49843651865E+03  0.53052067041E+03  0.00000000000E+00 0. -1.
          2    1    6    6  502    0  0.16177559458E+03  0.23616696207E+03  0.54577013114E+02  0.29141864617E+03  0.00000000000E+00 0. -1.
          3    1    5    5  503    0  0.14946605074E+03  0.88514464417E+01 -0.75874176354E+03  0.77337410880E+03  0.00000000000E+00 0. -1.
         -4    1    5    5    0  503  0.57738186608E+00 -0.11500774714E+02 -0.14631456770E+02  0.18619364008E+02  0.00000000000E+00 0.  1.
         -1    1    6    6    0  502  0.16350123419E+03  0.14719527291E+03 -0.35788198508E+01  0.22002706629E+03  0.00000000000E+00 0.  1.
<mgrwt>
<rscale>  0 0.19060929E+04</rscale>
<asrwt>0</asrwt>
<pdfrwt beam="1">  1        1 0.39863640E+00 0.19060929E+04</pdfrwt>
<pdfrwt beam="2">  1       -1 0.53929263E-01 0.19060929E+04</pdfrwt>
<totfact> 0.38026876E+00</totfact>
</mgrwt>
</event>
<event>
12    1  0.1980523E-007  0.2103877E+04  0.7818608E-02  0.8559538E-01
          1   -1    0    0  501    0  0.00000000000E+00  0.00000000000E+00  0.14627010273E+04  0.14627010273E+04  0.00000000000E+00 0. -1.
         -1   -1    0    0    0  501 -0.00000000000E+00 -0.00000000000E+00 -0.75652786723E+03  0.75652786723E+03  0.00000000000E+00 0.  1.
         23    2    1    2    0    0 -0.69303779481E+03  0.32725256499E+02  0.81596113388E+03  0.10749235117E+04  0.91080495102E+02 0.  0.
        254    2    1    2    0    0  0.69303779481E+03 -0.32725256499E+02 -0.10978797385E+03  0.11443053828E+04  0.90333221044E+03 0.  0.
        -24    2    4    4    0    0  0.40447954651E+03 -0.44745689696E+03  0.45966256920E+02  0.60959748478E+03  0.75331391185E+02 0.  0.
         24    2    4    4    0    0  0.28855824830E+03  0.41473164046E+03 -0.15575423077E+03  0.53470789800E+03  0.79905941741E+02 0.  0.
         13    1    3    3    0    0 -0.44572181140E+03  0.61003843265E+02  0.55191261264E+03  0.71203717182E+03  0.00000000000E+00 0. -1.
        -13    1    3    3    0    0 -0.24731598341E+03 -0.28278586766E+02  0.26404852123E+03  0.36288633990E+03  0.00000000000E+00 0.  1.
          4    1    6    6  502    0  0.17354302376E+03  0.22162704107E+03 -0.48381613566E+02  0.28561601314E+03  0.00000000000E+00 0. -1.
          3    1    5    5  503    0  0.33606675872E+03 -0.35310842552E+03  0.97810901777E+01  0.48756752990E+03  0.00000000000E+00 0. -1.
         -4    1    5    5    0  503  0.68412787788E+02 -0.94348471437E+02  0.36185166743E+02  0.12202995488E+03  0.00000000000E+00 0.  1.
         -1    1    6    6    0  502  0.11501522454E+03  0.19310459939E+03 -0.10737261720E+03  0.24909188486E+03  0.00000000000E+00 0.  1.
<mgrwt>
<rscale>  0 0.21038765E+04</rscale>
<asrwt>0</asrwt>
<pdfrwt beam="1">  1        1 0.22503093E+00 0.21038765E+04</pdfrwt>
<pdfrwt beam="2">  1       -1 0.11638890E+00 0.21038765E+04</pdfrwt>
<totfact> 0.42574176E+00</totfact>
</mgrwt>
</event>
<event>
12    1  0.1980523E-007  0.1918061E+04  0.7818608E-02  0.8645918E-01
         -1   -1    0    0    0  501 -0.00000000000E+00  0.00000000000E+00  0.70018424799E+03  0.70018424799E+03  0.00000000000E+00 0.  1.
          1   -1    0    0  501    0  0.00000000000E+00 -0.00000000000E+00 -0.13135676249E+04  0.13135676249E+04  0.00000000000E+00 0. -1.
         23    2    1    2    0    0  0.14142841574E+03  0.46297179735E+03 -0.83319205136E+03  0.96794880477E+03  0.91493236210E+02 0.  0.
        254    2    1    2    0    0 -0.14142841574E+03 -0.46297179735E+03  0.21980867446E+03  0.10458030681E+04  0.90057943680E+03 0.  0.
        -24    2    4    4    0    0 -0.19462865943E+03  0.15352111775E+03 -0.16958555328E+03  0.31031848456E+03  0.78033667825E+02 0.  0.
         24    2    4    4    0    0  0.53200243698E+02 -0.61649291510E+03  0.38939422774E+03  0.73548458355E+03  0.80099486537E+02 0.  0.
         11    1    3    3    0    0  0.28550905208E+02  0.80466073908E+02 -0.87180741482E+02  0.12202632881E+03  0.00000000000E+00 0.  1.
        -11    1    3    3    0    0  0.11287751053E+03  0.38250572344E+03 -0.74601130988E+03  0.84592247595E+03  0.00000000000E+00 0. -1.
          4    1    6    6  502    0  0.41149509488E+01 -0.31234376512E+03  0.15717889645E+03  0.34968666821E+03  0.00000000000E+00 0. -1.
          3    1    5    5  503    0 -0.14355194003E+03  0.12983886403E+03 -0.91614738919E+02  0.21414609612E+03  0.00000000000E+00 0. -1.
         -4    1    5    5    0  503 -0.51076719408E+02  0.23682253718E+02 -0.77970814359E+02  0.96172388441E+02  0.00000000000E+00 0.  1.
         -3    1    6    6    0  502  0.49085292749E+02 -0.30414914997E+03  0.23221533129E+03  0.38579791534E+03  0.00000000000E+00 0.  1.
<mgrwt>
<rscale>  0 0.19180609E+04</rscale>
<asrwt>0</asrwt>
<pdfrwt beam="1">  1        1 0.20208732E+00 0.19180609E+04</pdfrwt>
<pdfrwt beam="2">  1       -1 0.10772066E+00 0.19180609E+04</pdfrwt>
<totfact> 0.66264628E+00</totfact>
</mgrwt>
</event>
<event>
12    1  0.1980523E-007  0.3056435E+04  0.7818608E-02  0.8227797E-01
          2   -1    0    0  501    0  0.00000000000E+00  0.00000000000E+00  0.22942346962E+04  0.22942346962E+04  0.00000000000E+00 0.  1.
         -2   -1    0    0    0  501 -0.00000000000E+00 -0.00000000000E+00 -0.10179641694E+04  0.10179641694E+04  0.00000000000E+00 0. -1.
         23    2    1    2    0    0  0.71115786316E+03 -0.99614475505E+03 -0.13785505934E+03  0.12353546309E+04  0.95116599334E+02 0.  0.
        254    2    1    2    0    0 -0.71115786316E+03  0.99614475505E+03  0.14141255862E+04  0.20768442346E+04  0.90303982305E+03 0.  0.
        -24    2    4    4    0    0 -0.73024263301E+03  0.93491086075E+03  0.75194246490E+03  0.14068229356E+04  0.80129151329E+02 0.  0.
         24    2    4    4    0    0  0.19084769850E+02  0.61233894293E+02  0.66218312130E+03  0.67002129906E+03  0.79550215652E+02 0.  0.
         13    1    3    3    0    0  0.54297278375E+03 -0.74142562887E+03 -0.14319656657E+03  0.93007347221E+03  0.00000000000E+00 0.  1.
        -13    1    3    3    0    0  0.16818507941E+03 -0.25471912618E+03  0.53415072287E+01  0.30528115873E+03  0.00000000000E+00 0. -1.
          2    1    6    6  502    0 -0.12542063232E+02 -0.13484822845E+02  0.73447576950E+02  0.75721135471E+02  0.00000000000E+00 0. -1.
          3    1    5    5  503    0 -0.17250084587E+02  0.18971022468E+02  0.39212189909E+01  0.25939180213E+02  0.00000000000E+00 0. -1.
         -4    1    5    5    0  503 -0.71299254842E+03  0.91593983828E+03  0.74802124590E+03  0.13808837553E+04  0.00000000000E+00 0.  1.
         -1    1    6    6    0  502  0.31626833081E+02  0.74718717137E+02  0.58873554435E+03  0.59430016358E+03  0.00000000000E+00 0.  1.
<mgrwt>
<rscale>  0 0.30564350E+04</rscale>
<asrwt>0</asrwt>
<pdfrwt beam="1">  1        2 0.35295918E+00 0.30564350E+04</pdfrwt>
<pdfrwt beam="2">  1       -2 0.15660987E+00 0.30564350E+04</pdfrwt>
<totfact> 0.10390278E+00</totfact>
</mgrwt>
</event>
<event>
12    1  0.1980523E-007  0.1416327E+04  0.7818608E-02  0.8942084E-01
         -2   -1    0    0    0  501 -0.00000000000E+00  0.00000000000E+00  0.18408255442E+03  0.18408255442E+03  0.00000000000E+00 0.  1.
          2   -1    0    0  501    0  0.00000000000E+00 -0.00000000000E+00 -0.27242978687E+04  0.27242978687E+04  0.00000000000E+00 0. -1.
         23    2    1    2    0    0 -0.21984573355E+03 -0.35190191716E+03 -0.76138123558E+03  0.87171456412E+03  0.89542110428E+02 0.  0.
        254    2    1    2    0    0  0.21984573355E+03  0.35190191716E+03 -0.17788340787E+04  0.20366658590E+04  0.90088292016E+03 0.  0.
        -24    2    4    4    0    0  0.15998396088E+02 -0.27178707302E+03 -0.28167155392E+03  0.40007531509E+03  0.81223344642E+02 0.  0.
         24    2    4    4    0    0  0.20384733746E+03  0.62368899018E+03 -0.14971625248E+04  0.16365905440E+04  0.79945540069E+02 0.  0.
         11    1    3    3    0    0 -0.44207369380E+02 -0.19978487350E+02 -0.75054111999E+02  0.89367506356E+02  0.00000000000E+00 0.  1.
        -11    1    3    3    0    0 -0.17563836417E+03 -0.33192342981E+03 -0.68632712358E+03  0.78234705776E+03  0.00000000000E+00 0. -1.
          4    1    6    6  502    0  0.19261364909E+03  0.55564063296E+03 -0.13883163778E+04  0.15077330320E+04  0.00000000000E+00 0. -1.
          3    1    5    5  503    0  0.25565445965E+02 -0.13235315646E+03 -0.87028722256E+02  0.16045232485E+03  0.00000000000E+00 0. -1.
         -4    1    5    5    0  503 -0.95670498764E+01 -0.13943391656E+03 -0.19464283166E+03  0.23962299023E+03  0.00000000000E+00 0.  1.
         -1    1    6    6    0  502  0.11233688369E+02  0.68048357214E+02 -0.10884614699E+03  0.12885751196E+03  0.00000000000E+00 0.  1.
<mgrwt>
<rscale>  0 0.14163272E+04</rscale>
<asrwt>0</asrwt>
<pdfrwt beam="1">  1        2 0.41912274E+00 0.14163272E+04</pdfrwt>
<pdfrwt beam="2">  1       -2 0.28320394E-01 0.14163272E+04</pdfrwt>
<totfact> 0.28658724E+01</totfact>
</mgrwt>
</event>
<event>
12    1  0.1980523E-007  0.1925545E+04  0.7818608E-02  0.8642244E-01
          2   -1    0    0  501    0  0.00000000000E+00  0.00000000000E+00  0.23594702127E+04  0.23594702127E+04  0.00000000000E+00 0. -1.
         -2   -1    0    0    0  501 -0.00000000000E+00 -0.00000000000E+00 -0.39285563881E+03  0.39285563881E+03  0.00000000000E+00 0.  1.
         23    2    1    2    0    0  0.65208224613E+03 -0.33231433595E+03  0.54122861776E+03  0.91506228846E+03  0.93629597302E+02 0.  0.
        254    2    1    2    0    0 -0.65208224613E+03  0.33231433595E+03  0.14253859562E+04  0.18372635631E+04  0.89898175878E+03 0.  0.
        -24    2    4    4    0    0 -0.54321681846E+03  0.23733382547E+03  0.24680826082E+03  0.64717402094E+03  0.80672419072E+02 0.  0.
         24    2    4    4    0    0 -0.10886542766E+03  0.94980510483E+02  0.11785776954E+04  0.11900895422E+04  0.79967216069E+02 0.  0.
         13    1    3    3    0    0  0.29056250237E+03 -0.11038612889E+03  0.18974168753E+03  0.36416146586E+03  0.00000000000E+00 0.  1.
        -13    1    3    3    0    0  0.36151974376E+03 -0.22192820707E+03  0.35148693023E+03  0.55090082260E+03  0.00000000000E+00 0. -1.
          4    1    6    6  502    0 -0.60492861531E+02  0.98811390654E+02  0.77685622630E+03  0.78544807184E+03  0.00000000000E+00 0. -1.
          3    1    5    5  503    0 -0.50036841328E+03  0.23973704153E+03  0.23583987810E+03  0.60287879892E+03  0.00000000000E+00 0. -1.
         -4    1    5    5    0  503 -0.42848405186E+02 -0.24032160570E+01  0.10968382721E+02  0.44295222021E+02  0.00000000000E+00 0.  1.
         -3    1    6    6    0  502 -0.48372566134E+02 -0.38308801711E+01  0.40172146906E+03  0.40464147032E+03  0.00000000000E+00 0.  1.
<mgrwt>
<rscale>  0 0.19255453E+04</rscale>
<asrwt>0</asrwt>
<pdfrwt beam="1">  1        2 0.36299541E+00 0.19255453E+04</pdfrwt>
<pdfrwt beam="2">  1       -2 0.60439331E-01 0.19255453E+04</pdfrwt>
<totfact> 0.99995460E+00</totfact>
</mgrwt>
</event>
<event>
12    1  0.1980523E-007  0.3319101E+04  0.7818608E-02  0.8158052E-01
         -1   -1    0    0    0  501 -0.00000000000E+00  0.00000000000E+00  0.20693627690E+04  0.20693627690E+04  0.00000000000E+00 0.  1.
          1   -1    0    0  501    0  0.00000000000E+00 -0.00000000000E+00 -0.13308965696E+04  0.13308965696E+04  0.00000000000E+00 0. -1.
         23    2    1    2    0    0 -0.21084542073E+03 -0.71693510474E+03 -0.10323412068E+04  0.12776494841E+04  0.90598570942E+02 0.  0.
        254    2    1    2    0    0  0.21084542073E+03  0.71693510474E+03  0.17708074062E+04  0.21226098546E+04  0.90070083215E+03 0.  0.
        -24    2    4    4    0    0  0.43318641339E+03  0.76454287274E+03  0.16012844527E+04  0.18282758438E+04  0.79400186296E+02 0.  0.
         24    2    4    4    0    0 -0.22234099266E+03 -0.47607767994E+02  0.16952295346E+03  0.29433401074E+03  0.78692194878E+02 0.  0.
         11    1    3    3    0    0 -0.13499800178E+03 -0.55316635040E+03 -0.82968757327E+03  0.10062797528E+04  0.00000000000E+00 0. -1.
        -11    1    3    3    0    0 -0.75847418948E+02 -0.16376875434E+03 -0.20265363353E+03  0.27136973126E+03  0.00000000000E+00 0.  1.
          2    1    6    6  502    0 -0.16740681648E+03 -0.55655499572E+02  0.15967508896E+03  0.23794686564E+03  0.00000000000E+00 0. -1.
          3    1    5    5  503    0  0.36799770379E+03  0.63290445481E+03  0.12705267432E+04  0.14663657675E+04  0.00000000000E+00 0. -1.
         -4    1    5    5    0  503  0.65188709594E+02  0.13163841792E+03  0.33075770958E+03  0.36191007637E+03  0.00000000000E+00 0.  1.
         -1    1    6    6    0  502 -0.54934176184E+02  0.80477315774E+01  0.98478645051E+01  0.56387145094E+02  0.00000000000E+00 0.  1.
<mgrwt>
<rscale>  0 0.33191010E+04</rscale>
<asrwt>0</asrwt>
<pdfrwt beam="1">  1        1 0.20475332E+00 0.33191010E+04</pdfrwt>
<pdfrwt beam="2">  1       -1 0.31836350E+00 0.33191010E+04</pdfrwt>
<totfact> 0.17859879E-01</totfact>
</mgrwt>
</event>
<event>
12    1  0.1980523E-007  0.3383521E+04  0.7818608E-02  0.8141963E-01
         -1   -1    0    0    0  501 -0.00000000000E+00  0.00000000000E+00  0.72544417071E+03  0.72544417071E+03  0.00000000000E+00 0.  1.
          1   -1    0    0  501    0  0.00000000000E+00 -0.00000000000E+00 -0.39452429800E+04  0.39452429800E+04  0.00000000000E+00 0. -1.
         23    2    1    2    0    0  0.95287334634E+03  0.84060695714E+03 -0.27714679072E+04  0.30501700012E+04  0.88966312172E+02 0.  0.
        254    2    1    2    0    0 -0.95287334634E+03 -0.84060695714E+03 -0.44833090201E+03  0.16205171495E+04  0.90027082788E+03 0.  0.
        -24    2    4    4    0    0 -0.97866648602E+03 -0.78383927778E+03 -0.10286249836E+03  0.12603846032E+04  0.76135077646E+02 0.  0.
         24    2    4    4    0    0  0.25793139677E+02 -0.56767679362E+02 -0.34546840365E+03  0.36013254634E+03  0.80369008536E+02 0.  0.
         13    1    3    3    0    0  0.59506755266E+03  0.51116682149E+03 -0.18098470989E+04  0.19725474476E+04  0.00000000000E+00 0. -1.
        -13    1    3    3    0    0  0.35780579369E+03  0.32944013566E+03 -0.96162080836E+03  0.10776225536E+04  0.00000000000E+00 0.  1.
          4    1    6    6  502    0  0.28463094469E+02 -0.71313706346E+02 -0.20535246866E+03  0.21923829238E+03  0.00000000000E+00 0. -1.
          1    1    5    5  503    0 -0.55562378060E+03 -0.39643671771E+03 -0.56705928743E+02  0.68490540885E+03  0.00000000000E+00 0. -1.
         -2    1    5    5    0  503 -0.42304270542E+03 -0.38740256007E+03 -0.46156569616E+02  0.57547919431E+03  0.00000000000E+00 0.  1.
         -3    1    6    6    0  502 -0.26699547928E+01  0.14546026983E+02 -0.14011593499E+03  0.14089425396E+03  0.00000000000E+00 0.  1.
<mgrwt>
<rscale>  0 0.33835210E+04</rscale>
<asrwt>0</asrwt>
<pdfrwt beam="1">  1        1 0.60696048E+00 0.33835210E+04</pdfrwt>
<pdfrwt beam="2">  1       -1 0.11160679E+00 0.33835210E+04</pdfrwt>
<totfact> 0.64942536E-02</totfact>
</mgrwt>
</event>
<event>
12    1  0.1980523E-007  0.2528690E+04  0.7818608E-02  0.8392835E-01
         -1   -1    0    0    0  501 -0.00000000000E+00  0.00000000000E+00  0.12667651902E+04  0.12667651902E+04  0.00000000000E+00 0. -1.
          1   -1    0    0  501    0  0.00000000000E+00 -0.00000000000E+00 -0.12619292079E+04  0.12619292079E+04  0.00000000000E+00 0.  1.
         23    2    1    2    0    0  0.68525120746E+03 -0.24140353404E+03  0.82961240864E+03  0.11065528307E+04  0.91419555157E+02 0.  0.
        254    2    1    2    0    0 -0.68525120746E+03  0.24140353404E+03 -0.82477642635E+03  0.14221415673E+04  0.90243315569E+03 0.  0.
        -24    2    4    4    0    0 -0.43606431035E+03 -0.42516247693E+01 -0.94526500395E+03  0.10442362843E+04  0.82056874929E+02 0.  0.
         24    2    4    4    0    0 -0.24918689711E+03  0.24565515881E+03  0.12048857760E+03  0.37790528301E+03  0.76513651397E+02 0.  0.
         11    1    3    3    0    0  0.61230818241E+03 -0.23966672804E+03  0.72212227256E+03  0.97663812506E+03  0.00000000000E+00 0.  1.
        -11    1    3    3    0    0  0.72943025041E+02 -0.17368060034E+01  0.10749013608E+03  0.12991470568E+03  0.00000000000E+00 0. -1.
          2    1    6    6  502    0 -0.23945231309E+03  0.21722804846E+03  0.91144141584E+02  0.33590577522E+03  0.00000000000E+00 0. -1.
          1    1    5    5  503    0 -0.28714865123E+03  0.14564450085E+02 -0.69915158879E+03  0.75596257528E+03  0.00000000000E+00 0. -1.
         -2    1    5    5    0  503 -0.14891565912E+03 -0.18816074855E+02 -0.24611341516E+03  0.28827370904E+03  0.00000000000E+00 0.  1.
         -1    1    6    6    0  502 -0.97345840209E+01  0.28427110351E+02  0.29344436021E+02  0.41999507787E+02  0.00000000000E+00 0.  1.
<mgrwt>
<rscale>  0 0.25286898E+04</rscale>
<asrwt>0</asrwt>
<pdfrwt beam="1">  1        1 0.19414295E+00 0.25286898E+04</pdfrwt>
<pdfrwt beam="2">  1       -1 0.19488695E+00 0.25286898E+04</pdfrwt>
<totfact> 0.13943342E+00</totfact>
</mgrwt>
</event>
<event>
12    1  0.1980523E-007  0.3687780E+04  0.7818608E-02  0.8070675E-01
          2   -1    0    0  501    0  0.00000000000E+00  0.00000000000E+00  0.10066512448E+04  0.10066512448E+04  0.00000000000E+00 0.  1.
         -2   -1    0    0    0  501 -0.00000000000E+00 -0.00000000000E+00 -0.33774666854E+04  0.33774666854E+04  0.00000000000E+00 0. -1.
         23    2    1    2    0    0 -0.35487431130E+03  0.16704617619E+04 -0.76634669614E+03  0.18740122549E+04  0.90864724320E+02 0.  0.
        254    2    1    2    0    0  0.35487431130E+03 -0.16704617619E+04 -0.16044687445E+04  0.25101056752E+04  0.89996237371E+03 0.  0.
        -24    2    4    4    0    0  0.63634889648E+03 -0.10426449307E+04 -0.11640431947E+04  0.16892856435E+04  0.81492678081E+02 0.  0.
         24    2    4    4    0    0 -0.28147458518E+03 -0.62781683121E+03 -0.44042554974E+03  0.82082003174E+03  0.79930870082E+02 0.  0.
         11    1    3    3    0    0 -0.28745274289E+03  0.13965461352E+04 -0.67476191243E+03  0.15774263297E+04  0.00000000000E+00 0.  1.
        -11    1    3    3    0    0 -0.67421568408E+02  0.27391562674E+03 -0.91584783710E+02  0.29658592527E+03  0.00000000000E+00 0. -1.
          2    1    6    6  502    0 -0.13134109267E+03 -0.25719687651E+03 -0.22851417021E+03  0.36826545032E+03  0.00000000000E+00 0. -1.
          3    1    5    5  503    0  0.52401228422E+02 -0.93440594784E+02 -0.72669808180E+02  0.12945244113E+03  0.00000000000E+00 0. -1.
         -4    1    5    5    0  503  0.58394766806E+03 -0.94920433590E+03 -0.10913733865E+04  0.15598332024E+04  0.00000000000E+00 0.  1.
         -3    1    6    6    0  502 -0.15013349251E+03 -0.37061995470E+03 -0.21191137953E+03  0.45255458142E+03  0.00000000000E+00 0.  1.
<mgrwt>
<rscale>  0 0.36877804E+04</rscale>
<asrwt>0</asrwt>
<pdfrwt beam="1">  1        2 0.15486942E+00 0.36877804E+04</pdfrwt>
<pdfrwt beam="2">  1       -2 0.51961026E+00 0.36877804E+04</pdfrwt>
<totfact> 0.25329319E-02</totfact>
</mgrwt>
</event>
<event>
12    1  0.1980523E-007  0.1556354E+04  0.7818608E-02  0.8847819E-01
          2   -1    0    0  501    0  0.00000000000E+00  0.00000000000E+00  0.28747783461E+04  0.28747783461E+04  0.00000000000E+00 0. -1.
         -2   -1    0    0    0  501 -0.00000000000E+00 -0.00000000000E+00 -0.21064566695E+03  0.21064566695E+03  0.00000000000E+00 0.  1.
         23    2    1    2    0    0  0.83507398986E+02  0.49036877029E+03  0.11162703461E+04  0.12248470119E+04  0.82193068232E+02 0.  0.
        254    2    1    2    0    0 -0.83507398986E+02 -0.49036877029E+03  0.15478623330E+04  0.18605770011E+04  0.90467339879E+03 0.  0.
        -24    2    4    4    0    0  0.10574162781E+03 -0.68501485344E+03  0.13358541075E+04  0.15074166207E+04  0.85860529365E+02 0.  0.
         24    2    4    4    0    0 -0.18924902680E+03  0.19464608314E+03  0.21200822548E+03  0.35316038038E+03  0.77926085337E+02 0.  0.
         11    1    3    3    0    0 -0.94105397472E+01  0.14114954143E+03  0.35550810887E+03  0.38261961107E+03  0.00000000000E+00 0.  1.
        -11    1    3    3    0    0  0.92917938733E+02  0.34921922887E+03  0.76076223722E+03  0.84222740084E+03  0.00000000000E+00 0. -1.
          4    1    6    6  502    0 -0.19552454592E+03  0.17728456412E+03  0.19643518388E+03  0.32900827679E+03  0.00000000000E+00 0. -1.
          1    1    5    5  503    0  0.11174760196E+03 -0.62707440181E+03  0.11783240665E+04  0.13394616223E+04  0.00000000000E+00 0. -1.
         -2    1    5    5    0  503 -0.60059741527E+01 -0.57940451628E+02  0.15753004102E+03  0.16795499839E+03  0.00000000000E+00 0.  1.
         -3    1    6    6    0  502  0.62755191272E+01  0.17361519024E+02  0.15573041600E+02  0.24152103590E+02  0.00000000000E+00 0.  1.
<mgrwt>
<rscale>  0 0.15563542E+04</rscale>
<asrwt>0</asrwt>
<pdfrwt beam="1">  1        2 0.44227356E+00 0.15563542E+04</pdfrwt>
<pdfrwt beam="2">  1       -2 0.32407028E-01 0.15563542E+04</pdfrwt>
<totfact> 0.17861981E+01</totfact>
</mgrwt>
</event>
<event>
12    1  0.1980523E-007  0.1150759E+04  0.7818608E-02  0.9157084E-01
          2   -1    0    0  501    0  0.00000000000E+00  0.00000000000E+00  0.19180006567E+04  0.19180006567E+04  0.00000000000E+00 0. -1.
         -2   -1    0    0    0  501 -0.00000000000E+00 -0.00000000000E+00 -0.17260762871E+03  0.17260762871E+03  0.00000000000E+00 0.  1.
         23    2    1    2    0    0 -0.39574696543E+02  0.10527106431E+03  0.59964826249E+03  0.61629789917E+03  0.87160244517E+02 0.  0.
        254    2    1    2    0    0  0.39574696543E+02 -0.10527106431E+03  0.11457447655E+04  0.14743103863E+04  0.92098419842E+03 0.  0.
        -24    2    4    4    0    0 -0.61746414997E+02 -0.15080018364E+02  0.12692843880E+04  0.12733374223E+04  0.79153690898E+02 0.  0.
         24    2    4    4    0    0  0.10132111154E+03 -0.90191045951E+02 -0.12353962244E+03  0.20097296396E+03  0.82022567111E+02 0.  0.
         13    1    3    3    0    0  0.11068987959E+02  0.83065040865E+02  0.29498977468E+03  0.30666152461E+03  0.00000000000E+00 0.  1.
        -13    1    3    3    0    0 -0.50643684502E+02  0.22206023450E+02  0.30465848780E+03  0.30963637456E+03  0.00000000000E+00 0. -1.
          2    1    6    6  502    0  0.39487473497E+02  0.92637382057E+01 -0.23003953240E+02  0.46628953167E+02  0.00000000000E+00 0. -1.
          1    1    5    5  503    0 -0.44908591449E+01 -0.30056129525E+02  0.18850766630E+03  0.19094155910E+03  0.00000000000E+00 0. -1.
         -2    1    5    5    0  503 -0.57255555852E+02  0.14976111161E+02  0.10807767217E+04  0.10823958632E+04  0.00000000000E+00 0.  1.
         -1    1    6    6    0  502  0.61833638043E+02 -0.99454784157E+02 -0.10053566920E+03  0.15434401079E+03  0.00000000000E+00 0.  1.
<mgrwt>
<rscale>  0 0.11507590E+04</rscale>
<asrwt>0</asrwt>
<pdfrwt beam="1">  1        2 0.29507701E+00 0.11507590E+04</pdfrwt>
<pdfrwt beam="2">  1       -2 0.26555021E-01 0.11507590E+04</pdfrwt>
<totfact> 0.94495012E+01</totfact>
</mgrwt>
</event>
<event>
12    1  0.1980523E-007  0.2030581E+04  0.7818608E-02  0.8592455E-01
          2   -1    0    0  501    0  0.00000000000E+00  0.00000000000E+00  0.32405922419E+04  0.32405922419E+04  0.00000000000E+00 0. -1.
         -2   -1    0    0    0  501 -0.00000000000E+00 -0.00000000000E+00 -0.31809452487E+03  0.31809452487E+03  0.00000000000E+00 0.  1.
         23    2    1    2    0    0 -0.40873939520E+02 -0.68927346275E+03  0.19136661481E+04  0.20363850547E+04  0.89316176431E+02 0.  0.
        254    2    1    2    0    0  0.40873939520E+02  0.68927346275E+03  0.10088315690E+04  0.15223017121E+04  0.90713437960E+03 0.  0.
        -24    2    4    4    0    0 -0.12371845628E+03  0.85999200517E+03  0.66384407275E+03  0.10963279727E+04  0.79709255211E+02 0.  0.
         24    2    4    4    0    0  0.16459239580E+03 -0.17071854241E+03  0.34498749620E+03  0.42597373939E+03  0.78751359586E+02 0.  0.
         13    1    3    3    0    0 -0.21294392678E+02 -0.55219150534E+03  0.16212301611E+04  0.17128211071E+04  0.00000000000E+00 0. -1.
        -13    1    3    3    0    0 -0.19579546842E+02 -0.13708195742E+03  0.29243598696E+03  0.32356394757E+03  0.00000000000E+00 0.  1.
          4    1    6    6  502    0 -0.27174117508E+01  0.11418512285E+01  0.29589017959E+02  0.29735469303E+02  0.00000000000E+00 0. -1.
          3    1    5    5  503    0 -0.29490617728E+01  0.54147520891E+02  0.67460029791E+02  0.86553489840E+02  0.00000000000E+00 0. -1.
         -4    1    5    5    0  503 -0.12076939451E+03  0.80584448427E+03  0.59638404296E+03  0.10097744828E+04  0.00000000000E+00 0.  1.
         -3    1    6    6    0  502  0.16730980755E+03 -0.17186039364E+03  0.31539847825E+03  0.39623827009E+03  0.00000000000E+00 0.  1.
<mgrwt>
<rscale>  0 0.20305809E+04</rscale>
<asrwt>0</asrwt>
<pdfrwt beam="1">  1        2 0.49855263E+00 0.20305809E+04</pdfrwt>
<pdfrwt beam="2">  1       -2 0.48937621E-01 0.20305809E+04</pdfrwt>
<totfact> 0.44845932E+00</totfact>
</mgrwt>
</event>
<event>
12    1  0.1980523E-007  0.3096824E+04  0.7818608E-02  0.8216610E-01
          1   -1    0    0  501    0  0.00000000000E+00  0.00000000000E+00  0.12610793862E+04  0.12610793862E+04  0.00000000000E+00 0. -1.
         -1   -1    0    0    0  501 -0.00000000000E+00 -0.00000000000E+00 -0.19012123616E+04  0.19012123616E+04  0.00000000000E+00 0.  1.
         23    2    1    2    0    0  0.57258996697E+03 -0.11662404541E+04 -0.86697322977E+03  0.15644116606E+04  0.88120347465E+02 0.  0.
        254    2    1    2    0    0 -0.57258996697E+03  0.11662404541E+04  0.22684025446E+03  0.15978800872E+04  0.90210210344E+03 0.  0.
        -24    2    4    4    0    0 -0.79790653374E+03  0.10226377098E+04  0.21938597295E+03  0.13181374518E+04  0.83146945416E+02 0.  0.
         24    2    4    4    0    0  0.22531656676E+03  0.14360274425E+03  0.74542815188E+01  0.27974263542E+03  0.82529221147E+02 0.  0.
         11    1    3    3    0    0  0.27549752749E+03 -0.58665553623E+03 -0.38125656764E+03  0.75194426403E+03  0.00000000000E+00 0. -1.
        -11    1    3    3    0    0  0.29709243948E+03 -0.57958491785E+03 -0.48571666213E+03  0.81246739656E+03  0.00000000000E+00 0.  1.
          2    1    6    6  502    0  0.20442396009E+03  0.10522885258E+03  0.27712293196E+02  0.23158203313E+03  0.00000000000E+00 0. -1.
          3    1    5    5  503    0 -0.66293759651E+03  0.87850534953E+03  0.16143446860E+03  0.11123484138E+04  0.00000000000E+00 0. -1.
         -4    1    5    5    0  503 -0.13496893723E+03  0.14413236029E+03  0.57951504343E+02  0.20578903799E+03  0.00000000000E+00 0.  1.
         -1    1    6    6    0  502  0.20892606674E+02  0.38373891674E+02 -0.20258011677E+02  0.48160602290E+02  0.00000000000E+00 0.  1.
<mgrwt>
<rscale>  0 0.30968240E+04</rscale>
<asrwt>0</asrwt>
<pdfrwt beam="1">  1        1 0.19401221E+00 0.30968240E+04</pdfrwt>
<pdfrwt beam="2">  1       -1 0.29249421E+00 0.30968240E+04</pdfrwt>
<totfact> 0.30076158E-01</totfact>
</mgrwt>
</event>
<event>
12    1  0.2498972E-007  0.1703728E+04  0.7818608E-02  0.8759241E-01
          2   -1    0    0  501    0  0.00000000000E+00  0.00000000000E+00  0.20676161442E+04  0.20676161442E+04  0.00000000000E+00 0. -1.
         -2   -1    0    0    0  501 -0.00000000000E+00 -0.00000000000E+00 -0.35097069658E+03  0.35097069658E+03  0.00000000000E+00 0.  1.
         23    2    1    2    0    0  0.25890256784E+03  0.22828330656E+02  0.14029586004E+04  0.14300281003E+04  0.95581697669E+02 0.  0.
        254    2    1    2    0    0 -0.25890256784E+03 -0.22828330656E+02  0.31368684725E+03  0.98855874049E+03  0.90072041886E+03 0.  0.
        -24    2    4    4    0    0  0.26550683699E+02 -0.17177445453E+03 -0.26169310545E+03  0.32434044449E+03  0.80635230870E+02 0.  0.
         24    2    4    4    0    0 -0.28545325154E+03  0.14894612387E+03  0.57537995270E+03  0.66421829600E+03  0.80345181209E+02 0.  0.
         13    1    3    3    0    0  0.19478394948E+03  0.16946830092E+02  0.12306010187E+04  0.12460364559E+04  0.00000000000E+00 0. -1.
        -13    1    3    3    0    0  0.64118618358E+02  0.58815005639E+01  0.17235758162E+03  0.18399164440E+03  0.00000000000E+00 0.  1.
          4    1    6    6  502    0 -0.29020156880E+03  0.15021783495E+03  0.56908104596E+03  0.65622830276E+03  0.00000000000E+00 0. -1.
          3    1    5    5  503    0  0.39041006576E+02 -0.16505569693E+03 -0.25946562307E+03  0.30998385899E+03  0.00000000000E+00 0. -1.
         -4    1    5    5    0  503 -0.12490322878E+02 -0.67187576015E+01 -0.22274823817E+01  0.14356585494E+02  0.00000000000E+00 0.  1.
         -3    1    6    6    0  502  0.47483172616E+01 -0.12717110801E+01  0.62989067435E+01  0.79899932448E+01  0.00000000000E+00 0.  1.
<mgrwt>
<rscale>  0 0.17037285E+04</rscale>
<asrwt>0</asrwt>
<pdfrwt beam="1">  1        2 0.31809478E+00 0.17037285E+04</pdfrwt>
<pdfrwt beam="2">  1       -2 0.53995493E-01 0.17037285E+04</pdfrwt>
<totfact> 0.18828406E+01</totfact>
</mgrwt>
</event>
<event>
12    1  0.1980523E-007  0.2555227E+04  0.7818608E-02  0.8383571E-01
          1   -1    0    0  501    0  0.00000000000E+00  0.00000000000E+00  0.25640929612E+04  0.25640929612E+04  0.00000000000E+00 0.  1.
         -1   -1    0    0    0  501 -0.00000000000E+00 -0.00000000000E+00 -0.63659769267E+03  0.63659769267E+03  0.00000000000E+00 0. -1.
         23    2    1    2    0    0  0.10740905501E+04  0.29274419419E+03  0.72958191971E+03  0.13339765140E+04  0.88509260976E+02 0.  0.
        254    2    1    2    0    0 -0.10740905501E+04 -0.29274419419E+03  0.11979133488E+04  0.18667141398E+04  0.90014199751E+03 0.  0.
        -24    2    4    4    0    0 -0.89511212032E+03 -0.58408853250E+03  0.98964488620E+03  0.14584770209E+04  0.73301419563E+02 0.  0.
         24    2    4    4    0    0 -0.17897842977E+03  0.29134433832E+03  0.20826846258E+03  0.40823711889E+03  0.79793426704E+02 0.  0.
         11    1    3    3    0    0  0.89006927041E+03  0.27448543491E+03  0.59484281689E+03  0.11051712704E+04  0.00000000000E+00 0.  1.
        -11    1    3    3    0    0  0.18402127968E+03  0.18258759274E+02  0.13473910281E+03  0.22880524358E+03  0.00000000000E+00 0. -1.
          4    1    6    6  502    0 -0.13217595828E+03  0.26761953464E+03  0.18148791778E+03  0.34932587017E+03  0.00000000000E+00 0. -1.
          3    1    5    5  503    0 -0.73438970896E+03 -0.50699643276E+03  0.80506392278E+03  0.12018741811E+04  0.00000000000E+00 0. -1.
         -4    1    5    5    0  503 -0.16072241136E+03 -0.77092099738E+02  0.18458096341E+03  0.25660283983E+03  0.00000000000E+00 0.  1.
         -1    1    6    6    0  502 -0.46802471485E+02  0.23724803680E+02  0.26780544802E+02  0.58911248727E+02  0.00000000000E+00 0.  1.
<mgrwt>
<rscale>  0 0.25552265E+04</rscale>
<asrwt>0</asrwt>
<pdfrwt beam="1">  1        1 0.39447583E+00 0.25552265E+04</pdfrwt>
<pdfrwt beam="2">  1       -1 0.97938108E-01 0.25552265E+04</pdfrwt>
<totfact> 0.10799588E+00</totfact>
</mgrwt>
</event>
<event>
12    1  0.1980523E-007  0.2558561E+04  0.7818608E-02  0.8382415E-01
          2   -1    0    0  501    0  0.00000000000E+00  0.00000000000E+00  0.13151265290E+04  0.13151265290E+04  0.00000000000E+00 0. -1.
         -2   -1    0    0    0  501 -0.00000000000E+00 -0.00000000000E+00 -0.12444119203E+04  0.12444119203E+04  0.00000000000E+00 0.  1.
         23    2    1    2    0    0 -0.78234351697E+02  0.97321424741E+03  0.57806495667E+03  0.11382449485E+04  0.90420592416E+02 0.  0.
        254    2    1    2    0    0  0.78234351697E+02 -0.97321424741E+03 -0.50735034796E+03  0.14212935007E+04  0.89966896935E+03 0.  0.
        -24    2    4    4    0    0  0.40961558369E+02 -0.83744948479E+03  0.46920136463E+02  0.84386338878E+03  0.83092905126E+02 0.  0.
         24    2    4    4    0    0  0.37272793328E+02 -0.13576476262E+03 -0.55427048442E+03  0.57743011192E+03  0.79927669553E+02 0.  0.
         11    1    3    3    0    0 -0.83185394462E+01  0.11331377593E+03  0.35303635735E+02  0.11897712642E+03  0.00000000000E+00 0.  1.
        -11    1    3    3    0    0 -0.69915812251E+02  0.85990047148E+03  0.54276132093E+03  0.10192678221E+04  0.00000000000E+00 0. -1.
          2    1    6    6  502    0 -0.11243460913E+00  0.77005980507E+01 -0.69105455695E+01  0.10347342265E+02  0.00000000000E+00 0. -1.
          1    1    5    5  503    0  0.51056459876E+02 -0.26036534467E+03  0.10044125313E+02  0.26551414135E+03  0.00000000000E+00 0. -1.
         -2    1    5    5    0  503 -0.10094901507E+02 -0.57708414012E+03  0.36876011150E+02  0.57834924743E+03  0.00000000000E+00 0.  1.
         -3    1    6    6    0  502  0.37385227937E+02 -0.14346536067E+03 -0.54735993885E+03  0.56708276966E+03  0.00000000000E+00 0.  1.
<mgrwt>
<rscale>  0 0.25585614E+04</rscale>
<asrwt>0</asrwt>
<pdfrwt beam="1">  1        2 0.20232716E+00 0.25585614E+04</pdfrwt>
<pdfrwt beam="2">  1       -2 0.19144799E+00 0.25585614E+04</pdfrwt>
<totfact> 0.21794918E+00</totfact>
</mgrwt>
</event>
<event>
12    1  0.1980523E-007  0.2830358E+04  0.7818608E-02  0.8293905E-01
          2   -1    0    0  501    0  0.00000000000E+00  0.00000000000E+00  0.15278164248E+04  0.15278164248E+04  0.00000000000E+00 0. -1.
         -2   -1    0    0    0  501 -0.00000000000E+00 -0.00000000000E+00 -0.13108461585E+04  0.13108461585E+04  0.00000000000E+00 0.  1.
         23    2    1    2    0    0  0.22296260410E+03 -0.93872323162E+03  0.92622738463E+03  0.13404607586E+04  0.89578172558E+02 0.  0.
        254    2    1    2    0    0 -0.22296260410E+03  0.93872323162E+03 -0.70925711824E+03  0.14982018247E+04  0.90036071619E+03 0.  0.
        -24    2    4    4    0    0 -0.13594405108E+03  0.55088137613E+03 -0.88666216459E+03  0.10557453830E+04  0.80482569494E+02 0.  0.
         24    2    4    4    0    0 -0.87018553022E+02  0.38784185548E+03  0.17740504635E+03  0.44245644167E+03  0.79382736624E+02 0.  0.
         13    1    3    3    0    0  0.14877285398E+03 -0.68686611617E+03  0.72441670619E+03  0.10093056959E+04  0.00000000000E+00 0. -1.
        -13    1    3    3    0    0  0.74189750123E+02 -0.25185711545E+03  0.20181067843E+03  0.33115506271E+03  0.00000000000E+00 0.  1.
          4    1    6    6  502    0 -0.82202450233E+02  0.20175196757E+03  0.11343957085E+03  0.24562091824E+03  0.00000000000E+00 0. -1.
          1    1    5    5  503    0 -0.11888003726E+03  0.53886803934E+03 -0.86114342523E+03  0.10227801454E+04  0.00000000000E+00 0. -1.
         -2    1    5    5    0  503 -0.17064013815E+02  0.12013336795E+02 -0.25518739362E+02  0.32965237555E+02  0.00000000000E+00 0.  1.
         -3    1    6    6    0  502 -0.48161027890E+01  0.18608988791E+03  0.63965475500E+02  0.19683552343E+03  0.00000000000E+00 0.  1.
<mgrwt>
<rscale>  0 0.28303585E+04</rscale>
<asrwt>0</asrwt>
<pdfrwt beam="1">  1        2 0.23504868E+00 0.28303585E+04</pdfrwt>
<pdfrwt beam="2">  1       -2 0.20166864E+00 0.28303585E+04</pdfrwt>
<totfact> 0.13783615E+00</totfact>
</mgrwt>
</event>
<event>
12    1  0.1980523E-007  0.1393399E+04  0.7818608E-02  0.8958610E-01
         -1   -1    0    0    0  501 -0.00000000000E+00  0.00000000000E+00  0.26801407171E+03  0.26801407171E+03  0.00000000000E+00 0.  1.
          1   -1    0    0  501    0  0.00000000000E+00 -0.00000000000E+00 -0.18110627732E+04  0.18110627732E+04  0.00000000000E+00 0. -1.
         23    2    1    2    0    0 -0.38265103003E+03  0.25344114772E+02 -0.28256347188E+03  0.48489449186E+03  0.90644457389E+02 0.  0.
        254    2    1    2    0    0  0.38265103003E+03 -0.25344114772E+02 -0.12604852296E+04  0.15941823530E+04  0.89751335686E+03 0.  0.
        -24    2    4    4    0    0  0.19546741152E+03 -0.12695896009E+03 -0.13329749819E+04  0.13555331100E+04  0.79508637429E+02 0.  0.
         24    2    4    4    0    0  0.18718361852E+03  0.10161484532E+03  0.72489752343E+02  0.23864924300E+03  0.79595308646E+02 0.  0.
         13    1    3    3    0    0 -0.51322931715E+02 -0.15107624259E+02 -0.11067039485E+02  0.54632984483E+02  0.00000000000E+00 0.  1.
        -13    1    3    3    0    0 -0.33132809832E+03  0.40451739031E+02 -0.27149643240E+03  0.43026150738E+03  0.00000000000E+00 0. -1.
          2    1    6    6  502    0  0.15916875617E+02  0.43427278859E+02  0.19221363037E+02  0.50087286566E+02  0.00000000000E+00 0. -1.
          1    1    5    5  503    0  0.11609359862E+03 -0.89687946335E+02 -0.10203748441E+04  0.10308668555E+04  0.00000000000E+00 0. -1.
         -2    1    5    5    0  503  0.79373812896E+02 -0.37271013753E+02 -0.31260013782E+03  0.32466625449E+03  0.00000000000E+00 0.  1.
         -1    1    6    6    0  502  0.17126674290E+03  0.58187566457E+02  0.53268389306E+02  0.18856195643E+03  0.00000000000E+00 0.  1.
<mgrwt>
<rscale>  0 0.13933992E+04</rscale>
<asrwt>0</asrwt>
<pdfrwt beam="1">  1        1 0.27862504E+00 0.13933992E+04</pdfrwt>
<pdfrwt beam="2">  1       -1 0.41232934E-01 0.13933992E+04</pdfrwt>
<totfact> 0.22509513E+01</totfact>
</mgrwt>
</event>
<event>
12    1  0.1980523E-007  0.2012893E+04  0.7818608E-02  0.8600616E-01
         -1   -1    0    0    0  501 -0.00000000000E+00  0.00000000000E+00  0.74697009919E+03  0.74697009919E+03  0.00000000000E+00 0.  1.
          1   -1    0    0  501    0  0.00000000000E+00 -0.00000000000E+00 -0.13560575533E+04  0.13560575533E+04  0.00000000000E+00 0. -1.
         23    2    1    2    0    0  0.11631385674E+03 -0.29508888630E+03  0.52561981449E+03  0.62191942460E+03  0.99504860287E+02 0.  0.
        254    2    1    2    0    0 -0.11631385674E+03  0.29508888630E+03 -0.11347072686E+04  0.14811082279E+04  0.89750467032E+03 0.  0.
        -24    2    4    4    0    0 -0.17497012158E+03  0.21060634469E+03 -0.12654724800E+04  0.12971009116E+04  0.77978211120E+02 0.  0.
         24    2    4    4    0    0  0.58656264842E+02  0.84482541614E+02  0.13076521135E+03  0.18400731632E+03  0.78621210343E+02 0.  0.
         13    1    3    3    0    0  0.10588644883E+03 -0.20403152876E+03  0.44033448134E+03  0.49672453154E+03  0.00000000000E+00 0.  1.
        -13    1    3    3    0    0  0.10427407909E+02 -0.91057357540E+02  0.85285333147E+02  0.12519489306E+03  0.00000000000E+00 0. -1.
          4    1    6    6  502    0  0.35551661945E+02  0.33309933012E+02  0.84834188199E+01  0.49451397343E+02  0.00000000000E+00 0. -1.
          3    1    5    5  503    0  0.85785727436E+00  0.96046429838E+00  0.85775722928E+00  0.15473067686E+01  0.00000000000E+00 0. -1.
         -4    1    5    5    0  503 -0.17582797886E+03  0.20964588039E+03 -0.12663302372E+04  0.12955536048E+04  0.00000000000E+00 0.  1.
         -3    1    6    6    0  502  0.23104602897E+02  0.51172608602E+02  0.12228179253E+03  0.13455591898E+03  0.00000000000E+00 0.  1.
<mgrwt>
<rscale>  0 0.20128929E+04</rscale>
<asrwt>0</asrwt>
<pdfrwt beam="1">  1        1 0.20862424E+00 0.20128929E+04</pdfrwt>
<pdfrwt beam="2">  1       -1 0.11491848E+00 0.20128929E+04</pdfrwt>
<totfact> 0.52573860E+00</totfact>
</mgrwt>
</event>
<event>
12    1  0.1980523E-007  0.2294932E+04  0.7818608E-02  0.8479922E-01
          1   -1    0    0  501    0  0.00000000000E+00  0.00000000000E+00  0.12633338639E+04  0.12633338639E+04  0.00000000000E+00 0. -1.
         -1   -1    0    0    0  501 -0.00000000000E+00 -0.00000000000E+00 -0.10422251866E+04  0.10422251866E+04  0.00000000000E+00 0.  1.
         23    2    1    2    0    0 -0.42310966943E+03  0.90944536899E+02 -0.77738060667E+03  0.89417151937E+03  0.89047163114E+02 0.  0.
        254    2    1    2    0    0  0.42310966943E+03 -0.90944536899E+02  0.99848928396E+03  0.14113875311E+04  0.89874424152E+03 0.  0.
        -24    2    4    4    0    0  0.31074258629E+03  0.38389485588E+03  0.44315072537E+03  0.66810017037E+03  0.77711369504E+02 0.  0.
         24    2    4    4    0    0  0.11236708313E+03 -0.47483939278E+03  0.55533855859E+03  0.74328736075E+03  0.77307022262E+02 0.  0.
         13    1    3    3    0    0 -0.42014360356E+03  0.95181657589E+02 -0.77764256812E+03  0.88899277799E+03  0.00000000000E+00 0.  1.
        -13    1    3    3    0    0 -0.29660658643E+01 -0.42371206906E+01  0.26196145057E+00  0.51787413780E+01  0.00000000000E+00 0. -1.
          4    1    6    6  502    0  0.72660987683E+02 -0.23831770669E+03  0.33589637831E+03  0.41821205795E+03  0.00000000000E+00 0. -1.
          1    1    5    5  503    0  0.56688903935E+02  0.80111244695E+02  0.50283288489E+02  0.11027172102E+03  0.00000000000E+00 0. -1.
         -2    1    5    5    0  503  0.25405368236E+03  0.30378361118E+03  0.39286743688E+03  0.55782844935E+03  0.00000000000E+00 0.  1.
         -3    1    6    6    0  502  0.39706095451E+02 -0.23652168608E+03  0.21944218028E+03  0.32507530280E+03  0.00000000000E+00 0.  1.
<mgrwt>
<rscale>  0 0.22949321E+04</rscale>
<asrwt>0</asrwt>
<pdfrwt beam="1">  1        1 0.19435906E+00 0.22949321E+04</pdfrwt>
<pdfrwt beam="2">  1       -1 0.16034234E+00 0.22949321E+04</pdfrwt>
<totfact> 0.25250022E+00</totfact>
</mgrwt>
</event>
<event>
12    1  0.1980523E-007  0.1913815E+04  0.7818608E-02  0.8648010E-01
         -1   -1    0    0    0  501 -0.00000000000E+00  0.00000000000E+00  0.10671672186E+04  0.10671672186E+04  0.00000000000E+00 0.  1.
          1   -1    0    0  501    0  0.00000000000E+00 -0.00000000000E+00 -0.85803948679E+03  0.85803948679E+03  0.00000000000E+00 0. -1.
         23    2    1    2    0    0 -0.55894149201E+03  0.28384437493E+03  0.48104857105E+03  0.79646937781E+03  0.99862512545E+02 0.  0.
        254    2    1    2    0    0  0.55894149201E+03 -0.28384437493E+03 -0.27192083928E+03  0.11287373275E+04  0.89840068514E+03 0.  0.
        -24    2    4    4    0    0  0.46877638484E+03 -0.59477753341E+03 -0.18760547574E+03  0.78421088225E+03  0.79241908616E+02 0.  0.
         24    2    4    4    0    0  0.90165107170E+02  0.31093315847E+03 -0.84315363542E+02  0.34452644529E+03  0.82342063262E+02 0.  0.
         11    1    3    3    0    0 -0.33453869777E+03  0.16950682055E+03  0.22515978890E+03  0.43743071801E+03  0.00000000000E+00 0. -1.
        -11    1    3    3    0    0 -0.22440279424E+03  0.11433755438E+03  0.25588878215E+03  0.35903865981E+03  0.00000000000E+00 0.  1.
          2    1    6    6  502    0  0.91701279577E+02  0.17366856552E+03 -0.41476662846E+02  0.20072421101E+03  0.00000000000E+00 0. -1.
          1    1    5    5  503    0  0.17317492032E+03 -0.27712519955E+03 -0.97724324383E+02  0.34108352765E+03  0.00000000000E+00 0. -1.
         -2    1    5    5    0  503  0.29560146452E+03 -0.31765233386E+03 -0.89881151356E+02  0.44312735460E+03  0.00000000000E+00 0.  1.
         -1    1    6    6    0  502 -0.15361724069E+01  0.13726459295E+03 -0.42838700697E+02  0.14380223427E+03  0.00000000000E+00 0.  1.
<mgrwt>
<rscale>  0 0.19138146E+04</rscale>
<asrwt>0</asrwt>
<pdfrwt beam="1">  1        1 0.13200607E+00 0.19138146E+04</pdfrwt>
<pdfrwt beam="2">  1       -1 0.16417957E+00 0.19138146E+04</pdfrwt>
<totfact> 0.50083805E+00</totfact>
</mgrwt>
</event>
<event>
12    1  0.1980523E-007  0.1344822E+04  0.7818608E-02  0.8994757E-01
         -2   -1    0    0    0  501 -0.00000000000E+00  0.00000000000E+00  0.22784111184E+04  0.22784111184E+04  0.00000000000E+00 0.  1.
          2   -1    0    0  501    0  0.00000000000E+00 -0.00000000000E+00 -0.19844368532E+03  0.19844368532E+03  0.00000000000E+00 0. -1.
         23    2    1    2    0    0 -0.35438234792E+03 -0.59695561989E+02  0.47393468558E+03  0.60187443676E+03  0.92132202793E+02 0.  0.
        254    2    1    2    0    0  0.35438234792E+03  0.59695561989E+02  0.16060327475E+04  0.18749803670E+04  0.89836506045E+03 0.  0.
        -24    2    4    4    0    0  0.59939106050E+03 -0.12006164006E+03  0.12788712092E+04  0.14200040437E+04  0.84943942894E+02 0.  0.
         24    2    4    4    0    0 -0.24500871258E+03  0.17975720205E+03  0.32716153829E+03  0.45497632331E+03  0.87331905421E+02 0.  0.
         13    1    3    3    0    0 -0.19442342262E+03  0.71306130254E+01  0.21172289151E+03  0.28753764222E+03  0.00000000000E+00 0.  1.
        -13    1    3    3    0    0 -0.15995892529E+03 -0.66826175014E+02  0.26221179408E+03  0.31433679454E+03  0.00000000000E+00 0. -1.
          4    1    6    6  502    0 -0.16125416519E+03  0.16196909879E+03  0.21426305332E+03  0.31328190304E+03  0.00000000000E+00 0. -1.
          3    1    5    5  503    0  0.43448545123E+03 -0.12503457604E+03  0.92731845660E+03  0.10316640793E+04  0.00000000000E+00 0. -1.
         -4    1    5    5    0  503  0.16490560927E+03  0.49729359755E+01  0.35155275262E+03  0.38833996438E+03  0.00000000000E+00 0.  1.
         -3    1    6    6    0  502 -0.83754547395E+02  0.17788103260E+02  0.11289848497E+03  0.14169442027E+03  0.00000000000E+00 0.  1.
<mgrwt>
<rscale>  0 0.13448216E+04</rscale>
<asrwt>0</asrwt>
<pdfrwt beam="1">  1        2 0.30529799E-01 0.13448216E+04</pdfrwt>
<pdfrwt beam="2">  1       -2 0.35052477E+00 0.13448216E+04</pdfrwt>
<totfact> 0.26611783E+00</totfact>
</mgrwt>
</event>
<event>
12    1  0.1980523E-007  0.1968879E+04  0.7818608E-02  0.8621311E-01
         -2   -1    0    0    0  501 -0.00000000000E+00  0.00000000000E+00  0.99786406918E+03  0.99786406918E+03  0.00000000000E+00 0.  1.
          2   -1    0    0  501    0  0.00000000000E+00 -0.00000000000E+00 -0.97119533943E+03  0.97119533943E+03  0.00000000000E+00 0. -1.
         23    2    1    2    0    0 -0.66012165088E+03  0.29428293926E+03 -0.26632151359E+03  0.77555480590E+03  0.90526604153E+02 0.  0.
        254    2    1    2    0    0  0.66012165088E+03 -0.29428293926E+03  0.29299024334E+03  0.11935046027E+04  0.90346384083E+03 0.  0.
        -24    2    4    4    0    0  0.67637987072E+02 -0.38099437807E+03  0.41892249332E+03  0.57612777063E+03  0.81826274904E+02 0.  0.
         24    2    4    4    0    0  0.59248366381E+03  0.86711438811E+02 -0.12593224998E+03  0.61737683207E+03  0.82094187983E+02 0.  0.
         13    1    3    3    0    0 -0.50817455902E+03  0.19172286318E+03 -0.22332735639E+03  0.58725986311E+03  0.00000000000E+00 0. -1.
        -13    1    3    3    0    0 -0.15194709186E+03  0.10256007608E+03 -0.42994157200E+02  0.18829494280E+03  0.00000000000E+00 0.  1.
          4    1    6    6  502    0  0.23246790951E+01 -0.57728298987E+01  0.18672342597E+01  0.64974042290E+01  0.00000000000E+00 0. -1.
          3    1    5    5  503    0 -0.89585891712E+01 -0.70379839082E+02  0.44962954380E+02  0.83995507830E+02  0.00000000000E+00 0. -1.
         -4    1    5    5    0  503  0.76596576243E+02 -0.31061453899E+03  0.37395953894E+03  0.49213226280E+03  0.00000000000E+00 0.  1.
         -3    1    6    6    0  502  0.59015898471E+03  0.92484268710E+02 -0.12779948424E+03  0.61087942785E+03  0.00000000000E+00 0.  1.
<mgrwt>
<rscale>  0 0.19688788E+04</rscale>
<asrwt>0</asrwt>
<pdfrwt beam="1">  1        2 0.14941467E+00 0.19688788E+04</pdfrwt>
<pdfrwt beam="2">  1       -2 0.15351755E+00 0.19688788E+04</pdfrwt>
<totfact> 0.68974315E+00</totfact>
</mgrwt>
</event>
<event>
12    1  0.1980523E-007  0.1802050E+04  0.7818608E-02  0.8705210E-01
          1   -1    0    0  501    0  0.00000000000E+00  0.00000000000E+00  0.33122560272E+04  0.33122560272E+04  0.00000000000E+00 0. -1.
         -1   -1    0    0    0  501 -0.00000000000E+00 -0.00000000000E+00 -0.24510365395E+03  0.24510365395E+03  0.00000000000E+00 0.  1.
         23    2    1    2    0    0  0.60156600750E+02 -0.56584453304E+03  0.44890203261E+03  0.73030094224E+03  0.89596758708E+02 0.  0.
        254    2    1    2    0    0 -0.60156600750E+02  0.56584453304E+03  0.26182503406E+04  0.28270587389E+04  0.90179122570E+03 0.  0.
        -24    2    4    4    0    0  0.29063991462E+02  0.60425421574E+03  0.26294007464E+04  0.26991817662E+04  0.76590134479E+02 0.  0.
         24    2    4    4    0    0 -0.89220592212E+02 -0.38409682700E+02 -0.11150405808E+02  0.12787697271E+03  0.82417054056E+02 0.  0.
         11    1    3    3    0    0  0.63836201154E+02 -0.49430697750E+03  0.42431459275E+03  0.65456651472E+03  0.00000000000E+00 0. -1.
        -11    1    3    3    0    0 -0.36796004035E+01 -0.71537555543E+02  0.24587439862E+02  0.75734427516E+02  0.00000000000E+00 0.  1.
          2    1    6    6  502    0 -0.17813742476E+02 -0.51407801242E+02 -0.98119350006E+01  0.55284405740E+02  0.00000000000E+00 0. -1.
          1    1    5    5  503    0 -0.18510177527E+02  0.18659599905E+03  0.71557814810E+03  0.73973831831E+03  0.00000000000E+00 0. -1.
         -2    1    5    5    0  503  0.47574168989E+02  0.41765821669E+03  0.19138225983E+04  0.19594434479E+04  0.00000000000E+00 0.  1.
         -1    1    6    6    0  502 -0.71406849736E+02  0.12998118542E+02 -0.13384708072E+01  0.72592566967E+02  0.00000000000E+00 0.  1.
<mgrwt>
<rscale>  0 0.18020500E+04</rscale>
<asrwt>0</asrwt>
<pdfrwt beam="1">  1        1 0.50957782E+00 0.18020500E+04</pdfrwt>
<pdfrwt beam="2">  1       -1 0.37708257E-01 0.18020500E+04</pdfrwt>
<totfact> 0.22480864E+00</totfact>
</mgrwt>
</event>
<event>
12    1  0.1980523E-007  0.1517984E+04  0.7818608E-02  0.8872581E-01
          1   -1    0    0  501    0  0.00000000000E+00  0.00000000000E+00  0.93129609048E+03  0.93129609048E+03  0.00000000000E+00 0. -1.
         -1   -1    0    0    0  501 -0.00000000000E+00 -0.00000000000E+00 -0.61856662256E+03  0.61856662256E+03  0.00000000000E+00 0.  1.
         23    2    1    2    0    0  0.45904700630E+03 -0.16615872384E+03  0.16465341409E+03  0.52313165053E+03  0.90681318422E+02 0.  0.
        254    2    1    2    0    0 -0.45904700630E+03  0.16615872384E+03  0.14807605382E+03  0.10267310625E+04  0.89102035976E+03 0.  0.
        -24    2    4    4    0    0 -0.53103944647E+03 -0.18449645447E+03 -0.10981886297E+03  0.57841624087E+03  0.80394835767E+02 0.  0.
         24    2    4    4    0    0  0.71992440169E+02  0.35065517830E+03  0.25789491679E+03  0.44831482164E+03  0.79589105322E+02 0.  0.
         11    1    3    3    0    0  0.33255472051E+03 -0.77925308503E+02  0.12670338695E+03  0.36430583869E+03  0.00000000000E+00 0. -1.
        -11    1    3    3    0    0  0.12649228580E+03 -0.88233415336E+02  0.37950027146E+02  0.15882581184E+03  0.00000000000E+00 0.  1.
          2    1    6    6  502    0  0.28621136105E+02  0.23071818831E+03  0.20600340025E+03  0.31062429520E+03  0.00000000000E+00 0. -1.
          3    1    5    5  503    0 -0.52039916923E+03 -0.18606334781E+03 -0.96052067254E+02  0.56094640060E+03  0.00000000000E+00 0. -1.
         -4    1    5    5    0  503 -0.10640277244E+02  0.15668933398E+01 -0.13766795714E+02  0.17469840263E+02  0.00000000000E+00 0.  1.
         -1    1    6    6    0  502  0.43371304064E+02  0.11993698999E+03  0.51891516532E+02  0.13769052644E+03  0.00000000000E+00 0.  1.
<mgrwt>
<rscale>  0 0.15179838E+04</rscale>
<asrwt>0</asrwt>
<pdfrwt beam="1">  1        1 0.14327632E+00 0.15179838E+04</pdfrwt>
<pdfrwt beam="2">  1       -1 0.95164095E-01 0.15179838E+04</pdfrwt>
<totfact> 0.17683950E+01</totfact>
</mgrwt>
</event>
<event>
12    1  0.1980523E-007  0.1935302E+04  0.7818608E-02  0.8637481E-01
         -1   -1    0    0    0  501 -0.00000000000E+00  0.00000000000E+00  0.67692593481E+03  0.67692593481E+03  0.00000000000E+00 0.  1.
          1   -1    0    0  501    0  0.00000000000E+00 -0.00000000000E+00 -0.13832363143E+04  0.13832363143E+04  0.00000000000E+00 0. -1.
         23    2    1    2    0    0  0.64121666501E+03 -0.27306944222E+03  0.31703772385E+02  0.70351228706E+03  0.90546546562E+02 0.  0.
        254    2    1    2    0    0 -0.64121666501E+03  0.27306944222E+03 -0.73801415187E+03  0.13566499620E+04  0.90006027543E+03 0.  0.
        -24    2    4    4    0    0 -0.75573402977E+03  0.45326027931E+03 -0.69351008134E+03  0.11249439670E+04  0.89240637311E+02 0.  0.
         24    2    4    4    0    0  0.11451736476E+03 -0.18019083708E+03 -0.44504070527E+02  0.23170599508E+03  0.78256573294E+02 0.  0.
         13    1    3    3    0    0  0.57607692977E+03 -0.21391966746E+03  0.20954858007E+02  0.61487019704E+03  0.00000000000E+00 0.  1.
        -13    1    3    3    0    0  0.65139735243E+02 -0.59149774762E+02  0.10748914379E+02  0.88642090015E+02  0.00000000000E+00 0. -1.
          2    1    6    6  502    0  0.12942570255E+02 -0.44453629054E+02 -0.41451333560E+02  0.62143771327E+02  0.00000000000E+00 0. -1.
          1    1    5    5  503    0 -0.62473793512E+03  0.37494514001E+03 -0.52805018010E+03  0.89984350768E+03  0.00000000000E+00 0. -1.
         -2    1    5    5    0  503 -0.13099609464E+03  0.78315139294E+02 -0.16545990124E+03  0.22510045929E+03  0.00000000000E+00 0.  1.
         -1    1    6    6    0  502  0.10157479450E+03 -0.13573720803E+03 -0.30527369672E+01  0.16956222375E+03  0.00000000000E+00 0.  1.
<mgrwt>
<rscale>  0 0.19353021E+04</rscale>
<asrwt>0</asrwt>
<pdfrwt beam="1">  1        1 0.21280559E+00 0.19353021E+04</pdfrwt>
<pdfrwt beam="2">  1       -1 0.10414245E+00 0.19353021E+04</pdfrwt>
<totfact> 0.63905071E+00</totfact>
</mgrwt>
</event>
<event>
12    1  0.1980523E-007  0.3856317E+04  0.7818608E-02  0.8034176E-01
         -1   -1    0    0    0  501 -0.00000000000E+00  0.00000000000E+00  0.15897073414E+04  0.15897073414E+04  0.00000000000E+00 0.  1.
          1   -1    0    0  501    0  0.00000000000E+00 -0.00000000000E+00 -0.23386662983E+04  0.23386662983E+04  0.00000000000E+00 0. -1.
         23    2    1    2    0    0 -0.10126198361E+04  0.14486975242E+04  0.95408616848E+02  0.17724348731E+04  0.91099540657E+02 0.  0.
        254    2    1    2    0    0  0.10126198361E+04 -0.14486975242E+04 -0.84436757380E+03  0.21559387665E+04  0.90055089600E+03 0.  0.
        -24    2    4    4    0    0  0.18740741349E+03 -0.10375588870E+04 -0.48688468698E+03  0.11639497133E+04  0.77924669559E+02 0.  0.
         24    2    4    4    0    0  0.82521242256E+03 -0.41113863726E+03 -0.35748288682E+03  0.99198905323E+03  0.78979402180E+02 0.  0.
         11    1    3    3    0    0 -0.71976851264E+03  0.98465079819E+03  0.99127877443E+02  0.12236953225E+04  0.00000000000E+00 0.  1.
        -11    1    3    3    0    0 -0.29285132341E+03  0.46404672602E+03 -0.37192605950E+01  0.54873955066E+03  0.00000000000E+00 0. -1.
          2    1    6    6  502    0  0.25923571903E+03 -0.14101616149E+03 -0.15266009269E+03  0.33225565416E+03  0.00000000000E+00 0. -1.
          1    1    5    5  503    0  0.25368932101E+02 -0.25767361267E+03 -0.90922144538E+02  0.27441958703E+03  0.00000000000E+00 0. -1.
         -4    1    5    5    0  503  0.16203848139E+03 -0.77988527429E+03 -0.39596254244E+03  0.88953012626E+03  0.00000000000E+00 0.  1.
         -1    1    6    6    0  502  0.56597670354E+03 -0.27012247577E+03 -0.20482279414E+03  0.65973339908E+03  0.00000000000E+00 0.  1.
<mgrwt>
<rscale>  0 0.38563169E+04</rscale>
<asrwt>0</asrwt>
<pdfrwt beam="1">  1        1 0.35979482E+00 0.38563169E+04</pdfrwt>
<pdfrwt beam="2">  1       -1 0.24457036E+00 0.38563169E+04</pdfrwt>
<totfact> 0.10491952E-01</totfact>
</mgrwt>
</event>
<event>
12    1  0.1980523E-007  0.2093097E+04  0.7818608E-02  0.8564290E-01
         -1   -1    0    0    0  501 -0.00000000000E+00  0.00000000000E+00  0.11398545250E+04  0.11398545250E+04  0.00000000000E+00 0.  1.
          1   -1    0    0  501    0  0.00000000000E+00 -0.00000000000E+00 -0.96088062322E+03  0.96088062322E+03  0.00000000000E+00 0. -1.
         23    2    1    2    0    0 -0.83817325164E+03 -0.16266597466E+01  0.21356001748E+03  0.86969831013E+03  0.90720580812E+02 0.  0.
        254    2    1    2    0    0  0.83817325164E+03  0.16266597466E+01 -0.34586115730E+02  0.12310368381E+04  0.90095418944E+03 0.  0.
        -24    2    4    4    0    0  0.60521860851E+03  0.12688171666E+03 -0.42364778812E+03  0.75382670951E+03  0.79929503293E+02 0.  0.
         24    2    4    4    0    0  0.23295464314E+03 -0.12525505691E+03  0.38906167239E+03  0.47721012855E+03  0.80023914095E+02 0.  0.
         11    1    3    3    0    0 -0.14523123443E+03 -0.30348857306E+02  0.55256485933E+02  0.15832385743E+03  0.00000000000E+00 0.  1.
        -11    1    3    3    0    0 -0.69294201722E+03  0.28722197559E+02  0.15830353154E+03  0.71137445270E+03  0.00000000000E+00 0. -1.
          2    1    6    6  502    0  0.12954183562E+03 -0.90274544944E+02  0.16735467012E+03  0.23008295515E+03  0.00000000000E+00 0. -1.
          3    1    5    5  503    0  0.12029298256E+02 -0.24793901581E+01 -0.24017661550E+02  0.26975905145E+02  0.00000000000E+00 0. -1.
         -4    1    5    5    0  503  0.59318931025E+03  0.12936110681E+03 -0.39963012657E+03  0.72685080437E+03  0.00000000000E+00 0.  1.
         -1    1    6    6    0  502  0.10341280752E+03 -0.34980511965E+02  0.22170700227E+03  0.24712717340E+03  0.00000000000E+00 0.  1.
<mgrwt>
<rscale>  0 0.20930973E+04</rscale>
<asrwt>0</asrwt>
<pdfrwt beam="1">  1        1 0.14782779E+00 0.20930973E+04</pdfrwt>
<pdfrwt beam="2">  1       -1 0.17536223E+00 0.20930973E+04</pdfrwt>
<totfact> 0.33611621E+00</totfact>
</mgrwt>
</event>
<event>
12    1  0.1980523E-007  0.2524030E+04  0.7818608E-02  0.8394475E-01
         -2   -1    0    0    0  501 -0.00000000000E+00  0.00000000000E+00  0.13940411984E+04  0.13940411984E+04  0.00000000000E+00 0.  1.
          2   -1    0    0  501    0  0.00000000000E+00 -0.00000000000E+00 -0.11424923147E+04  0.11424923147E+04  0.00000000000E+00 0. -1.
         23    2    1    2    0    0 -0.53747775386E+03  0.48819383667E+03 -0.71878746634E+03  0.10276513158E+04  0.11043661983E+03 0.  0.
        254    2    1    2    0    0  0.53747775386E+03 -0.48819383667E+03  0.97033635005E+03  0.15088821973E+04  0.89886444757E+03 0.  0.
        -24    2    4    4    0    0  0.74109535391E+03 -0.49081498859E+03  0.58840433622E+03  0.10687928737E+04  0.77310202453E+02 0.  0.
         24    2    4    4    0    0 -0.20361760004E+03  0.26211519132E+01  0.38193201383E+03  0.44008932362E+03  0.79621304237E+02 0.  0.
         13    1    3    3    0    0 -0.11175523675E+03  0.16025247555E+03 -0.22322351611E+03  0.29664596239E+03  0.00000000000E+00 0.  1.
        -13    1    3    3    0    0 -0.42572251712E+03  0.32794136112E+03 -0.49556395023E+03  0.73100535339E+03  0.00000000000E+00 0. -1.
          4    1    6    6  502    0 -0.12664388196E+03 -0.23542846440E+02  0.17142143254E+03  0.21442538560E+03  0.00000000000E+00 0. -1.
          1    1    5    5  503    0  0.38808938176E+03 -0.22723971969E+03  0.26173835758E+03  0.52034433433E+03  0.00000000000E+00 0. -1.
         -2    1    5    5    0  503  0.35300597214E+03 -0.26357526890E+03  0.32666597865E+03  0.54844853938E+03  0.00000000000E+00 0.  1.
         -3    1    6    6    0  502 -0.76973718083E+02  0.26163998353E+02  0.21051058129E+03  0.22566393802E+03  0.00000000000E+00 0.  1.
<mgrwt>
<rscale>  0 0.25240296E+04</rscale>
<asrwt>0</asrwt>
<pdfrwt beam="1">  1        2 0.17576805E+00 0.25240296E+04</pdfrwt>
<pdfrwt beam="2">  1       -2 0.21446788E+00 0.25240296E+04</pdfrwt>
<totfact> 0.19573653E+00</totfact>
</mgrwt>
</event>
<event>
12    1  0.1980523E-007  0.1349976E+04  0.7818608E-02  0.8990846E-01
          1   -1    0    0  501    0  0.00000000000E+00  0.00000000000E+00  0.36780067746E+04  0.36780067746E+04  0.00000000000E+00 0. -1.
         -1   -1    0    0    0  501 -0.00000000000E+00 -0.00000000000E+00 -0.12387386495E+03  0.12387386495E+03  0.00000000000E+00 0.  1.
         23    2    1    2    0    0  0.28348472866E+03 -0.22402671866E+02  0.34377620587E+03  0.45555716962E+03  0.92112887171E+02 0.  0.
        254    2    1    2    0    0 -0.28348472866E+03  0.22402671866E+02  0.32103567038E+04  0.33463234699E+04  0.90034722680E+03 0.  0.
        -24    2    4    4    0    0 -0.45053939618E+03  0.26561773987E+02  0.75470291589E+03  0.88367274313E+03  0.87233882962E+02 0.  0.
         24    2    4    4    0    0  0.16705466752E+03 -0.41591021203E+01  0.24556537879E+04  0.24626507268E+04  0.80551326449E+02 0.  0.
         13    1    3    3    0    0  0.27377339221E+03 -0.15097002424E+02  0.28477848036E+03  0.39532084772E+03  0.00000000000E+00 0.  1.
        -13    1    3    3    0    0  0.97113364516E+01 -0.73056694429E+01  0.58997725504E+02  0.60236321903E+02  0.00000000000E+00 0. -1.
          4    1    6    6  502    0  0.83557480796E+02 -0.12596746016E+02  0.17474357025E+04  0.17494776549E+04  0.00000000000E+00 0. -1.
          1    1    5    5  503    0 -0.11909729359E+03  0.44610482851E+02  0.18988771017E+03  0.22854234399E+03  0.00000000000E+00 0. -1.
         -2    1    5    5    0  503 -0.33144210259E+03 -0.18048708864E+02  0.56481520572E+03  0.65513039914E+03  0.00000000000E+00 0.  1.
         -3    1    6    6    0  502  0.83497186726E+02  0.84376438954E+01  0.70821808535E+03  0.71317307187E+03  0.00000000000E+00 0.  1.
<mgrwt>
<rscale>  0 0.13499762E+04</rscale>
<asrwt>0</asrwt>
<pdfrwt beam="1">  1        1 0.56584711E+00 0.13499762E+04</pdfrwt>
<pdfrwt beam="2">  1       -1 0.19057520E-01 0.13499762E+04</pdfrwt>
<totfact> 0.39791374E+00</totfact>
</mgrwt>
</event>
<event>
12    1  0.1980523E-007  0.2429310E+04  0.7818608E-02  0.8428611E-01
          1   -1    0    0  501    0  0.00000000000E+00  0.00000000000E+00  0.20967475343E+04  0.20967475343E+04  0.00000000000E+00 0. -1.
         -1   -1    0    0    0  501 -0.00000000000E+00 -0.00000000000E+00 -0.70365467918E+03  0.70365467918E+03  0.00000000000E+00 0.  1.
         23    2    1    2    0    0 -0.21931522058E+03  0.82475698096E+03 -0.95925048411E+02  0.86342719416E+03  0.89340142658E+02 0.  0.
        254    2    1    2    0    0  0.21931522058E+03 -0.82475698096E+03  0.14890179035E+04  0.19369750193E+04  0.89798366621E+03 0.  0.
        -24    2    4    4    0    0  0.45634352423E+03 -0.20168932201E+03  0.95014910466E+03  0.10760784703E+04  0.78952887662E+02 0.  0.
         24    2    4    4    0    0 -0.23702830365E+03 -0.62306765895E+03  0.53886879882E+03  0.86089654896E+03  0.79797000576E+02 0.  0.
         13    1    3    3    0    0 -0.40037278437E+02  0.27666625460E+03 -0.46846274765E+01  0.27958745651E+03  0.00000000000E+00 0. -1.
        -13    1    3    3    0    0 -0.17927794214E+03  0.54809072636E+03 -0.91240420934E+02  0.58383973766E+03  0.00000000000E+00 0.  1.
          4    1    6    6  502    0 -0.12474138653E+03 -0.28930639949E+03  0.20668743198E+03  0.37680008073E+03  0.00000000000E+00 0. -1.
          3    1    5    5  503    0  0.12663776840E+03 -0.70242997040E+02  0.35076534786E+03  0.37948324374E+03  0.00000000000E+00 0. -1.
         -4    1    5    5    0  503  0.32970575583E+03 -0.13144632497E+03  0.59938375680E+03  0.69659522658E+03  0.00000000000E+00 0.  1.
         -3    1    6    6    0  502 -0.11228691713E+03 -0.33376125946E+03  0.33218136685E+03  0.48409646823E+03  0.00000000000E+00 0.  1.
<mgrwt>
<rscale>  0 0.24293095E+04</rscale>
<asrwt>0</asrwt>
<pdfrwt beam="1">  1        1 0.32257654E+00 0.24293095E+04</pdfrwt>
<pdfrwt beam="2">  1       -1 0.10825457E+00 0.24293095E+04</pdfrwt>
<totfact> 0.18142224E+00</totfact>
</mgrwt>
</event>
<event>
12    1  0.1980523E-007  0.1680442E+04  0.7818608E-02  0.8772598E-01
         -2   -1    0    0    0  501 -0.00000000000E+00  0.00000000000E+00  0.53401443549E+03  0.53401443549E+03  0.00000000000E+00 0. -1.
          2   -1    0    0  501    0  0.00000000000E+00 -0.00000000000E+00 -0.13220073672E+04  0.13220073672E+04  0.00000000000E+00 0.  1.
         23    2    1    2    0    0  0.29333816423E+03  0.30350470502E+03  0.18110625635E+03  0.46797824120E+03  0.89675936476E+02 0.  0.
        254    2    1    2    0    0 -0.29333816423E+03 -0.30350470502E+03 -0.96909918804E+03  0.13880435615E+04  0.89963843166E+03 0.  0.
        -24    2    4    4    0    0  0.17026832452E+03 -0.29923705699E+03 -0.49122745796E+02  0.35493663297E+03  0.70942587092E+02 0.  0.
         24    2    4    4    0    0 -0.46360648875E+03 -0.42676480357E+01 -0.91997644224E+03  0.10331069285E+04  0.77486012931E+02 0.  0.
         11    1    3    3    0    0  0.22965628200E+03  0.24786092983E+03  0.18118208978E+03  0.38341100409E+03  0.00000000000E+00 0. -1.
        -11    1    3    3    0    0  0.63681882236E+02  0.55643775192E+02 -0.75833429710E-01  0.84567237117E+02  0.00000000000E+00 0.  1.
          2    1    6    6  502    0 -0.28176243417E+03 -0.10335001571E+02 -0.63801123790E+03  0.69753510396E+03  0.00000000000E+00 0. -1.
          3    1    5    5  503    0  0.69512216671E+02 -0.18682909649E+03 -0.42590165225E+02  0.20384057922E+03  0.00000000000E+00 0. -1.
         -4    1    5    5    0  503  0.10075610785E+03 -0.11240796050E+03 -0.65325805709E+01  0.15109605376E+03  0.00000000000E+00 0.  1.
         -1    1    6    6    0  502 -0.18184405459E+03  0.60673535352E+01 -0.28196520434E+03  0.33557182454E+03  0.00000000000E+00 0.  1.
<mgrwt>
<rscale>  0 0.16804416E+04</rscale>
<asrwt>0</asrwt>
<pdfrwt beam="1">  1        2 0.20338575E+00 0.16804416E+04</pdfrwt>
<pdfrwt beam="2">  1       -2 0.82156068E-01 0.16804416E+04</pdfrwt>
<totfact> 0.19913267E+01</totfact>
</mgrwt>
</event>
<event>
12    1  0.1980523E-007  0.1376673E+04  0.7818608E-02  0.8970879E-01
         -1   -1    0    0    0  501 -0.00000000000E+00  0.00000000000E+00  0.30136344775E+03  0.30136344775E+03  0.00000000000E+00 0.  1.
          1   -1    0    0  501    0  0.00000000000E+00 -0.00000000000E+00 -0.15722108838E+04  0.15722108838E+04  0.00000000000E+00 0. -1.
         23    2    1    2    0    0  0.24793648409E+02  0.27363798524E+03  0.90234779437E+01  0.28644428613E+03  0.80476294234E+02 0.  0.
        254    2    1    2    0    0 -0.24793648409E+02 -0.27363798524E+03 -0.12798709140E+04  0.15871300454E+04  0.89745181075E+03 0.  0.
        -24    2    4    4    0    0  0.13811243022E+03  0.27768574540E+03 -0.68330313081E+03  0.75449315496E+03  0.78564214036E+02 0.  0.
         24    2    4    4    0    0 -0.16290607863E+03 -0.55132373064E+03 -0.59656778320E+03  0.83263689047E+03  0.83035082928E+02 0.  0.
         13    1    3    3    0    0 -0.64702472909E+01  0.33991000077E+02 -0.24577736821E+02  0.42441928956E+02  0.00000000000E+00 0.  1.
        -13    1    3    3    0    0  0.31263895700E+02  0.23964698516E+03  0.33601214765E+02  0.24400235717E+03  0.00000000000E+00 0. -1.
          2    1    6    6  502    0 -0.75273600706E+01 -0.94020207584E+02 -0.65748708529E+02  0.11497544632E+03  0.00000000000E+00 0. -1.
          3    1    5    5  503    0  0.14196117118E+03  0.27049470036E+03 -0.68040734421E+03  0.74583812661E+03  0.00000000000E+00 0. -1.
         -2    1    5    5    0  503 -0.38487409559E+01  0.71910450381E+01 -0.28957865924E+01  0.86550283462E+01  0.00000000000E+00 0.  1.
         -1    1    6    6    0  502 -0.15537871856E+03 -0.45730352306E+03 -0.53081907467E+03  0.71766144415E+03  0.00000000000E+00 0.  1.
<mgrwt>
<rscale>  0 0.13766726E+04</rscale>
<asrwt>0</asrwt>
<pdfrwt beam="1">  1        1 0.24187860E+00 0.13766726E+04</pdfrwt>
<pdfrwt beam="2">  1       -1 0.46363606E-01 0.13766726E+04</pdfrwt>
<totfact> 0.26376939E+01</totfact>
</mgrwt>
</event>
<event>
12    1  0.1980523E-007  0.1923055E+04  0.7818608E-02  0.8643465E-01
         -2   -1    0    0    0  501 -0.00000000000E+00  0.00000000000E+00  0.16965087941E+04  0.16965087941E+04  0.00000000000E+00 0. -1.
          2   -1    0    0  501    0  0.00000000000E+00 -0.00000000000E+00 -0.54496326114E+03  0.54496326114E+03  0.00000000000E+00 0.  1.
         23    2    1    2    0    0 -0.46922157597E+02  0.17037744882E+03 -0.39511339618E+03  0.44320711509E+03  0.95329885592E+02 0.  0.
        254    2    1    2    0    0  0.46922157597E+02 -0.17037744882E+03  0.15466589291E+04  0.17982649402E+04  0.90020708060E+03 0.  0.
        -24    2    4    4    0    0  0.21940067239E+03  0.26835411761E+03  0.30866415695E+03  0.47108025256E+03  0.80575772305E+02 0.  0.
         24    2    4    4    0    0 -0.17247851480E+03 -0.43873156642E+03  0.12379947722E+04  0.13271846876E+04  0.80956244839E+02 0.  0.
         13    1    3    3    0    0  0.15650137555E+02  0.32132560592E+01 -0.10288593386E+02  0.19002814893E+02  0.00000000000E+00 0. -1.
        -13    1    3    3    0    0 -0.62572295152E+02  0.16716419276E+03 -0.38482480279E+03  0.42420430019E+03  0.00000000000E+00 0.  1.
          4    1    6    6  502    0  0.85912237972E+01 -0.18403896708E+02  0.43308067079E+02  0.47834100958E+02  0.00000000000E+00 0. -1.
          3    1    5    5  503    0  0.23712375919E+02  0.42103016413E+02  0.12017280055E+02  0.49793129874E+02  0.00000000000E+00 0. -1.
         -4    1    5    5    0  503  0.19568829647E+03  0.22625110119E+03  0.29664687689E+03  0.42128712268E+03  0.00000000000E+00 0.  1.
         -3    1    6    6    0  502 -0.18106973859E+03 -0.42032766971E+03  0.11946867051E+04  0.12793505866E+04  0.00000000000E+00 0.  1.
<mgrwt>
<rscale>  0 0.19230548E+04</rscale>
<asrwt>0</asrwt>
<pdfrwt beam="1">  1        2 0.83840502E-01 0.19230548E+04</pdfrwt>
<pdfrwt beam="2">  1       -2 0.26100135E+00 0.19230548E+04</pdfrwt>
<totfact> 0.28624441E+00</totfact>
</mgrwt>
</event>
<event>
12    1  0.1980523E-007  0.1468934E+04  0.7818608E-02  0.8905378E-01
         -2   -1    0    0    0  501 -0.00000000000E+00  0.00000000000E+00  0.38216097398E+03  0.38216097398E+03  0.00000000000E+00 0.  1.
          2   -1    0    0  501    0  0.00000000000E+00 -0.00000000000E+00 -0.14115564680E+04  0.14115564680E+04  0.00000000000E+00 0. -1.
         23    2    1    2    0    0  0.43454046390E+03 -0.11575532833E+03 -0.28218971886E+03  0.53881734601E+03  0.92023823681E+02 0.  0.
        254    2    1    2    0    0 -0.43454046390E+03  0.11575532833E+03 -0.74720577512E+03  0.12549000959E+04  0.90234864083E+03 0.  0.
        -24    2    4    4    0    0  0.24509340147E+03 -0.11350252934E+03 -0.16073176699E+03  0.32439902099E+03  0.80289627520E+02 0.  0.
         24    2    4    4    0    0 -0.67963386537E+03  0.22925785766E+03 -0.58647400814E+03  0.93050107495E+03  0.86134383410E+02 0.  0.
         11    1    3    3    0    0  0.42739219604E+03 -0.12255655050E+03 -0.28552500019E+03  0.52840204678E+03  0.00000000000E+00 0. -1.
        -11    1    3    3    0    0  0.71482678630E+01  0.68012221745E+01  0.33352813297E+01  0.10415299230E+02  0.00000000000E+00 0.  1.
          2    1    6    6  502    0 -0.61582111184E+03  0.19675558500E+03 -0.49446177397E+03  0.81390469217E+03  0.00000000000E+00 0. -1.
          1    1    5    5  503    0  0.20041205734E+03 -0.72799301803E+02 -0.90215963777E+02  0.23152462329E+03  0.00000000000E+00 0. -1.
         -2    1    5    5    0  503  0.44681344136E+02 -0.40703227534E+02 -0.70515803210E+02  0.92874397699E+02  0.00000000000E+00 0.  1.
         -3    1    6    6    0  502 -0.63812753527E+02  0.32502272665E+02 -0.92012234164E+02  0.11659638278E+03  0.00000000000E+00 0.  1.
<mgrwt>
<rscale>  0 0.14689340E+04</rscale>
<asrwt>0</asrwt>
<pdfrwt beam="1">  1        2 0.21716253E+00 0.14689340E+04</pdfrwt>
<pdfrwt beam="2">  1       -2 0.58793996E-01 0.14689340E+04</pdfrwt>
<totfact> 0.37308379E+01</totfact>
</mgrwt>
</event>
<event>
12    1  0.1980523E-007  0.1885831E+04  0.7818608E-02  0.8661941E-01
         -1   -1    0    0    0  501 -0.00000000000E+00  0.00000000000E+00  0.90160772513E+03  0.90160772513E+03  0.00000000000E+00 0.  1.
          1   -1    0    0  501    0  0.00000000000E+00 -0.00000000000E+00 -0.98611601033E+03  0.98611601033E+03  0.00000000000E+00 0. -1.
         23    2    1    2    0    0  0.13304959255E+03  0.66683240232E+03  0.21510947283E+03  0.72152965589E+03  0.10938606929E+03 0.  0.
        254    2    1    2    0    0 -0.13304959255E+03 -0.66683240232E+03 -0.29961775803E+03  0.11661940796E+04  0.89881598975E+03 0.  0.
        -24    2    4    4    0    0  0.28581610136E+03 -0.95326589978E+02  0.12503835083E+03  0.33618293010E+03  0.81279583917E+02 0.  0.
         24    2    4    4    0    0 -0.41886569390E+03 -0.57150581235E+03 -0.42465610886E+03  0.83001114948E+03  0.80736202445E+02 0.  0.
         11    1    3    3    0    0 -0.26463422157E+01  0.23749472760E+03  0.56475967231E+02  0.24413169323E+03  0.00000000000E+00 0. -1.
        -11    1    3    3    0    0  0.13569593476E+03  0.42933767473E+03  0.15863350560E+03  0.47739796266E+03  0.00000000000E+00 0.  1.
          4    1    6    6  502    0 -0.39554295453E+03 -0.56325970483E+03 -0.40678380239E+03  0.79949283039E+03  0.00000000000E+00 0. -1.
          3    1    5    5  503    0  0.18696587638E+03 -0.32020601677E+02  0.10590520410E+03  0.21724978738E+03  0.00000000000E+00 0. -1.
         -4    1    5    5    0  503  0.98850224979E+02 -0.63305988301E+02  0.19133146723E+02  0.11893314272E+03  0.00000000000E+00 0.  1.
         -3    1    6    6    0  502 -0.23322739373E+02 -0.82461075181E+01 -0.17872306468E+02  0.30518319081E+02  0.00000000000E+00 0.  1.
<mgrwt>
<rscale>  0 0.18858312E+04</rscale>
<asrwt>0</asrwt>
<pdfrwt beam="1">  1        1 0.15171016E+00 0.18858312E+04</pdfrwt>
<pdfrwt beam="2">  1       -1 0.13870888E+00 0.18858312E+04</pdfrwt>
<totfact> 0.62422461E+00</totfact>
</mgrwt>
</event>
<event>
12    1  0.1980523E-007  0.1965797E+04  0.7818608E-02  0.8622781E-01
          1   -1    0    0  501    0  0.00000000000E+00  0.00000000000E+00  0.13978682173E+04  0.13978682173E+04  0.00000000000E+00 0. -1.
         -1   -1    0    0    0  501 -0.00000000000E+00 -0.00000000000E+00 -0.69111621648E+03  0.69111621648E+03  0.00000000000E+00 0.  1.
         23    2    1    2    0    0  0.40818439322E+03 -0.65398223201E+03  0.21370040108E+03  0.80530648965E+03  0.92430634501E+02 0.  0.
        254    2    1    2    0    0 -0.40818439322E+03  0.65398223201E+03  0.49305159970E+03  0.12836779441E+04  0.90023437256E+03 0.  0.
        -24    2    4    4    0    0 -0.46015060668E+03  0.49397578123E+02 -0.40799443741E+02  0.47145429248E+03  0.80161422945E+02 0.  0.
         24    2    4    4    0    0  0.51966213460E+02  0.60458465389E+03  0.53385104344E+03  0.81222365162E+03  0.80543358556E+02 0.  0.
         13    1    3    3    0    0  0.27802678064E+03 -0.35971846955E+03  0.12872765421E+03  0.47251145705E+03  0.00000000000E+00 0. -1.
        -13    1    3    3    0    0  0.13015761259E+03 -0.29426376246E+03  0.84972746871E+02  0.33279503260E+03  0.00000000000E+00 0.  1.
          2    1    6    6  502    0  0.71825483841E+02  0.52688151576E+03  0.47042650447E+03  0.70997473750E+03  0.00000000000E+00 0. -1.
          3    1    5    5  503    0 -0.26758837494E+03  0.36410611923E+02  0.15238616075E+02  0.27048380078E+03  0.00000000000E+00 0. -1.
         -4    1    5    5    0  503 -0.19256223174E+03  0.12986966200E+02 -0.56038059816E+02  0.20097049170E+03  0.00000000000E+00 0.  1.
         -1    1    6    6    0  502 -0.19859270381E+02  0.77703138130E+02  0.63424538968E+02  0.10224891412E+03  0.00000000000E+00 0.  1.
<mgrwt>
<rscale>  0 0.19657969E+04</rscale>
<asrwt>0</asrwt>
<pdfrwt beam="1">  1        1 0.21505665E+00 0.19657969E+04</pdfrwt>
<pdfrwt beam="2">  1       -1 0.10632557E+00 0.19657969E+04</pdfrwt>
<totfact> 0.59301061E+00</totfact>
</mgrwt>
</event>
<event>
12    1  0.1980523E-007  0.1976519E+04  0.7818608E-02  0.8617678E-01
         -2   -1    0    0    0  501 -0.00000000000E+00  0.00000000000E+00  0.13458879639E+04  0.13458879639E+04  0.00000000000E+00 0.  1.
          2   -1    0    0  501    0  0.00000000000E+00 -0.00000000000E+00 -0.72565957576E+03  0.72565957576E+03  0.00000000000E+00 0. -1.
         23    2    1    2    0    0  0.49968849975E+03 -0.58288871266E+03  0.39006341944E+03  0.86611294492E+03  0.92489534809E+02 0.  0.
        254    2    1    2    0    0 -0.49968849975E+03  0.58288871266E+03  0.23016496874E+03  0.12054345948E+04  0.90036037302E+03 0.  0.
        -24    2    4    4    0    0  0.19038964541E+03 -0.82169733133E+02  0.60169663664E+02  0.22947683385E+03  0.77711947135E+02 0.  0.
         24    2    4    4    0    0 -0.69007814516E+03  0.66505844580E+03  0.16999530507E+03  0.97595776092E+03  0.71306133042E+02 0.  0.
         13    1    3    3    0    0  0.40864155598E+03 -0.45972122884E+03  0.35040996041E+03  0.70789735829E+03  0.00000000000E+00 0.  1.
        -13    1    3    3    0    0  0.91046943769E+02 -0.12316748382E+03  0.39653459029E+02  0.15821558663E+03  0.00000000000E+00 0. -1.
          2    1    6    6  502    0 -0.24720135628E+03  0.19204549030E+03  0.52228662508E+02  0.31736070028E+03  0.00000000000E+00 0. -1.
          1    1    5    5  503    0  0.60384435215E+02  0.11042941840E+02  0.13711744029E+02  0.62898636750E+02  0.00000000000E+00 0. -1.
         -2    1    5    5    0  503  0.13000521019E+03 -0.93212674972E+02  0.46457919635E+02  0.16657819710E+03  0.00000000000E+00 0.  1.
         -1    1    6    6    0  502 -0.44287678887E+03  0.47301295549E+03  0.11776664256E+03  0.65859706065E+03  0.00000000000E+00 0.  1.
<mgrwt>
<rscale>  0 0.19765186E+04</rscale>
<asrwt>0</asrwt>
<pdfrwt beam="1">  1        2 0.11163993E+00 0.19765186E+04</pdfrwt>
<pdfrwt beam="2">  1       -2 0.20705969E+00 0.19765186E+04</pdfrwt>
<totfact> 0.43547714E+00</totfact>
</mgrwt>
</event>
<event>
12    1  0.2674006E-007  0.2188087E+04  0.7818608E-02  0.8523403E-01
          1   -1    0    0  501    0  0.00000000000E+00  0.00000000000E+00  0.13453108994E+04  0.13453108994E+04  0.00000000000E+00 0. -1.
         -1   -1    0    0    0  501 -0.00000000000E+00 -0.00000000000E+00 -0.88970614562E+03  0.88970614562E+03  0.00000000000E+00 0.  1.
         23    2    1    2    0    0 -0.63072803568E+02 -0.90364132609E+03  0.15177157120E+03  0.92302657302E+03  0.91638528471E+02 0.  0.
        254    2    1    2    0    0  0.63072803568E+02  0.90364132609E+03  0.30383318259E+03  0.13119904720E+04  0.89914324278E+03 0.  0.
        -24    2    4    4    0    0  0.46169195080E+03  0.51433260937E+03  0.27823900841E+03  0.74938334318E+03  0.80380089216E+02 0.  0.
         24    2    4    4    0    0 -0.39861914724E+03  0.38930871672E+03  0.25594174180E+02  0.56260712883E+03  0.73574575741E+02 0.  0.
         13    1    3    3    0    0 -0.79455994625E+02 -0.66746478735E+03  0.88539418012E+02  0.67798357353E+03  0.00000000000E+00 0.  1.
        -13    1    3    3    0    0  0.16383191057E+02 -0.23617653874E+03  0.63232153184E+02  0.24504299949E+03  0.00000000000E+00 0. -1.
          4    1    6    6  502    0 -0.33787555403E+03  0.30133805827E+03  0.21038662944E+00  0.45273011788E+03  0.00000000000E+00 0. -1.
          1    1    5    5  503    0  0.32942354246E+03  0.39306249392E+03  0.23845717719E+03  0.56557918969E+03  0.00000000000E+00 0. -1.
         -2    1    5    5    0  503  0.13226840834E+03  0.12127011545E+03  0.39781831213E+02  0.18380415349E+03  0.00000000000E+00 0.  1.
         -3    1    6    6    0  502 -0.60743593206E+02  0.87970658455E+02  0.25383787550E+02  0.10987701095E+03  0.00000000000E+00 0.  1.
<mgrwt>
<rscale>  0 0.21880872E+04</rscale>
<asrwt>0</asrwt>
<pdfrwt beam="1">  1        1 0.20697091E+00 0.21880872E+04</pdfrwt>
<pdfrwt beam="2">  1       -1 0.13687787E+00 0.21880872E+04</pdfrwt>
<totfact> 0.34072309E+00</totfact>
</mgrwt>
</event>
<event>
12    1  0.1980523E-007  0.2374316E+04  0.7818608E-02  0.8449182E-01
          2   -1    0    0  501    0  0.00000000000E+00  0.00000000000E+00  0.12035929422E+04  0.12035929422E+04  0.00000000000E+00 0.  1.
         -2   -1    0    0    0  501 -0.00000000000E+00 -0.00000000000E+00 -0.11709478537E+04  0.11709478537E+04  0.00000000000E+00 0. -1.
         23    2    1    2    0    0 -0.83513479263E+03 -0.53722148288E+03 -0.19723085419E+03  0.10165451400E+04  0.91689521223E+02 0.  0.
        254    2    1    2    0    0  0.83513479263E+03  0.53722148288E+03  0.22987594273E+03  0.13579956559E+04  0.89735846177E+03 0.  0.
        -24    2    4    4    0    0  0.53781553493E+03  0.56378241540E+03  0.51506915579E+03  0.93744386392E+03  0.80053739687E+02 0.  0.
         24    2    4    4    0    0  0.29731925770E+03 -0.26560932517E+02 -0.28519321305E+03  0.42055179199E+03  0.80152459997E+02 0.  0.
         13    1    3    3    0    0 -0.76527164407E+03 -0.46529301322E+03 -0.19301578766E+03  0.91618413633E+03  0.00000000000E+00 0. -1.
        -13    1    3    3    0    0 -0.69863148558E+02 -0.71928469662E+02 -0.42150665313E+01  0.10036100368E+03  0.00000000000E+00 0.  1.
          2    1    6    6  502    0  0.22535885322E+02 -0.15799453885E+02 -0.50282195052E+01  0.27978060363E+02  0.00000000000E+00 0. -1.
          1    1    5    5  503    0  0.13031690413E+03  0.14391869131E+03  0.88582983814E+02  0.21340578771E+03  0.00000000000E+00 0. -1.
         -2    1    5    5    0  503  0.40749863081E+03  0.41986372409E+03  0.42648617197E+03  0.72403807621E+03  0.00000000000E+00 0.  1.
         -1    1    6    6    0  502  0.27478337238E+03 -0.10761478632E+02 -0.28016499355E+03  0.39257373163E+03  0.00000000000E+00 0.  1.
<mgrwt>
<rscale>  0 0.23743164E+04</rscale>
<asrwt>0</asrwt>
<pdfrwt beam="1">  1        2 0.18516815E+00 0.23743164E+04</pdfrwt>
<pdfrwt beam="2">  1       -2 0.18014582E+00 0.23743164E+04</pdfrwt>
<totfact> 0.30724986E+00</totfact>
</mgrwt>
</event>
<event>
12    1  0.1980523E-007  0.2135350E+04  0.7818608E-02  0.8545829E-01
          2   -1    0    0  501    0  0.00000000000E+00  0.00000000000E+00  0.66943098744E+03  0.66943098744E+03  0.00000000000E+00 0. -1.
         -2   -1    0    0    0  501 -0.00000000000E+00 -0.00000000000E+00 -0.17028336021E+04  0.17028336021E+04  0.00000000000E+00 0.  1.
         23    2    1    2    0    0  0.36135405095E+03 -0.69172621298E+03 -0.86517758256E+03  0.11688173669E+04  0.92411492924E+02 0.  0.
        254    2    1    2    0    0 -0.36135405095E+03  0.69172621298E+03 -0.16822503207E+03  0.12034472226E+04  0.90051299393E+03 0.  0.
        -24    2    4    4    0    0 -0.58462206300E+03  0.64891921512E+03  0.49054194513E+02  0.87835945453E+03  0.78929798309E+02 0.  0.
         24    2    4    4    0    0  0.22326801205E+03  0.42806997856E+02 -0.21727922659E+03  0.32508776804E+03  0.82406009201E+02 0.  0.
         13    1    3    3    0    0  0.34681549643E+03 -0.68749347950E+03 -0.84079931645E+03  0.11401191883E+04  0.00000000000E+00 0. -1.
        -13    1    3    3    0    0  0.14538554515E+02 -0.42327334796E+01 -0.24378266108E+02  0.28698178663E+02  0.00000000000E+00 0.  1.
          4    1    6    6  502    0  0.17780625212E+03 -0.41402204678E+00 -0.17472737619E+03  0.24928876970E+03  0.00000000000E+00 0. -1.
          3    1    5    5  503    0 -0.16743424107E+03  0.23809617494E+03  0.37204197500E+01  0.29109767283E+03  0.00000000000E+00 0. -1.
         -4    1    5    5    0  503 -0.41718782193E+03  0.41082304018E+03  0.45333774763E+02  0.58726178170E+03  0.00000000000E+00 0.  1.
         -1    1    6    6    0  502  0.45461759937E+02  0.43221019903E+02 -0.42551850391E+02  0.75798998343E+02  0.00000000000E+00 0.  1.
<mgrwt>
<rscale>  0 0.21353497E+04</rscale>
<asrwt>0</asrwt>
<pdfrwt beam="1">  1        2 0.10298938E+00 0.21353497E+04</pdfrwt>
<pdfrwt beam="2">  1       -2 0.26197440E+00 0.21353497E+04</pdfrwt>
<totfact> 0.21610765E+00</totfact>
</mgrwt>
</event>
<event>
12    1  0.1980523E-007  0.2821722E+04  0.7818608E-02  0.8296556E-01
          2   -1    0    0  501    0  0.00000000000E+00  0.00000000000E+00  0.24276735016E+04  0.24276735016E+04  0.00000000000E+00 0. -1.
         -2   -1    0    0    0  501 -0.00000000000E+00 -0.00000000000E+00 -0.81993274743E+03  0.81993274743E+03  0.00000000000E+00 0.  1.
         23    2    1    2    0    0  0.14322628103E+03  0.10931311338E+04  0.14381061592E+04  0.18143245049E+04  0.90413720796E+02 0.  0.
        254    2    1    2    0    0 -0.14322628103E+03 -0.10931311338E+04  0.16963459498E+03  0.14332817441E+04  0.90003956525E+03 0.  0.
        -24    2    4    4    0    0 -0.45270427806E+03 -0.98202611440E+03  0.10896426560E+03  0.10895885544E+04  0.77547108562E+02 0.  0.
         24    2    4    4    0    0  0.30947799703E+03 -0.11110501936E+03  0.60670329375E+02  0.34369318967E+03  0.79518323596E+02 0.  0.
         11    1    3    3    0    0  0.55750825615E+01  0.37081634783E+03  0.48005398269E+03  0.60661987410E+03  0.00000000000E+00 0. -1.
        -11    1    3    3    0    0  0.13765119846E+03  0.72231478593E+03  0.95805217650E+03  0.12077046308E+04  0.00000000000E+00 0.  1.
          4    1    6    6  502    0  0.26970036390E+03 -0.11764083850E+03  0.69699559537E+02  0.30238333581E+03  0.00000000000E+00 0. -1.
          1    1    5    5  503    0 -0.43917179213E+03 -0.96103123773E+03  0.11762760527E+03  0.10631505803E+04  0.00000000000E+00 0. -1.
         -2    1    5    5    0  503 -0.13532485925E+02 -0.20994876670E+02 -0.86633396630E+01  0.26437974125E+02  0.00000000000E+00 0.  1.
         -3    1    6    6    0  502  0.39777633127E+02  0.65358191453E+01 -0.90292301622E+01  0.41309853866E+02  0.00000000000E+00 0.  1.
<mgrwt>
<rscale>  0 0.28217222E+04</rscale>
<asrwt>0</asrwt>
<pdfrwt beam="1">  1        2 0.37348823E+00 0.28217222E+04</pdfrwt>
<pdfrwt beam="2">  1       -2 0.12614350E+00 0.28217222E+04</pdfrwt>
<totfact> 0.15597958E+00</totfact>
</mgrwt>
</event>
<event>
12    1  0.1980523E-007  0.1874185E+04  0.7818608E-02  0.8667814E-01
         -2   -1    0    0    0  501 -0.00000000000E+00  0.00000000000E+00  0.63909196283E+03  0.63909196283E+03  0.00000000000E+00 0.  1.
          2   -1    0    0  501    0  0.00000000000E+00 -0.00000000000E+00 -0.13740467365E+04  0.13740467365E+04  0.00000000000E+00 0. -1.
         23    2    1    2    0    0  0.63961972402E+03  0.28138949368E+03 -0.46015666047E+03  0.84155977756E+03  0.90472473850E+02 0.  0.
        254    2    1    2    0    0 -0.63961972402E+03 -0.28138949368E+03 -0.27479811320E+03  0.11715789218E+04  0.89932737555E+03 0.  0.
        -24    2    4    4    0    0 -0.38766949894E+02  0.14648053720E+03  0.21984751848E+03  0.27967266483E+03  0.83213243482E+02 0.  0.
         24    2    4    4    0    0 -0.60085277412E+03 -0.42787003088E+03 -0.49464563168E+03  0.89190625694E+03  0.82010064848E+02 0.  0.
         13    1    3    3    0    0  0.79227920180E+02  0.63824253582E+02 -0.88201009373E+02  0.13464775058E+03  0.00000000000E+00 0. -1.
        -13    1    3    3    0    0  0.56039180384E+03  0.21756524010E+03 -0.37195565109E+03  0.70691202698E+03  0.00000000000E+00 0.  1.
          4    1    6    6  502    0 -0.92589302971E+02 -0.33968786588E+02 -0.54702963652E+02  0.11277886202E+03  0.00000000000E+00 0. -1.
          3    1    5    5  503    0 -0.62120359783E+01 -0.20925435736E+01  0.54953045977E+02  0.55342618223E+02  0.00000000000E+00 0. -1.
         -4    1    5    5    0  503 -0.32554913916E+02  0.14857308077E+03  0.16489447250E+03  0.22433004661E+03  0.00000000000E+00 0.  1.
         -1    1    6    6    0  502 -0.50826347115E+03 -0.39390124429E+03 -0.43994266803E+03  0.77912739492E+03  0.00000000000E+00 0.  1.
<mgrwt>
<rscale>  0 0.18741849E+04</rscale>
<asrwt>0</asrwt>
<pdfrwt beam="1">  1        2 0.21139181E+00 0.18741849E+04</pdfrwt>
<pdfrwt beam="2">  1       -2 0.98321840E-01 0.18741849E+04</pdfrwt>
<totfact> 0.12084936E+01</totfact>
</mgrwt>
</event>
<event>
12    1  0.1980523E-007  0.4608901E+04  0.7818608E-02  0.7891844E-01
         -1   -1    0    0    0  501 -0.00000000000E+00  0.00000000000E+00  0.11769241410E+04  0.11769241410E+04  0.00000000000E+00 0.  1.
          1   -1    0    0  501    0  0.00000000000E+00 -0.00000000000E+00 -0.45121789391E+04  0.45121789391E+04  0.00000000000E+00 0. -1.
         23    2    1    2    0    0  0.21668530237E+04  0.22637702035E+03 -0.11096440579E+04  0.24466158580E+04  0.90114593532E+02 0.  0.
        254    2    1    2    0    0 -0.21668530237E+04 -0.22637702035E+03 -0.22256107402E+04  0.32424872221E+04  0.90215388752E+03 0.  0.
        -24    2    4    4    0    0 -0.31621162793E+03  0.28383533606E+03 -0.48684621622E+03  0.65115408940E+03  0.80188018189E+02 0.  0.
         24    2    4    4    0    0 -0.18506413957E+04 -0.51021235641E+03 -0.17387645240E+04  0.25913331327E+04  0.80716233095E+02 0.  0.
         11    1    3    3    0    0  0.16235318586E+04  0.13418017202E+03 -0.84821364101E+03  0.18366617531E+04  0.00000000000E+00 0.  1.
        -11    1    3    3    0    0  0.54332116504E+03  0.92196848334E+02 -0.26143041690E+03  0.60995410492E+03  0.00000000000E+00 0. -1.
          2    1    6    6  502    0 -0.14063444262E+04 -0.35309314194E+03 -0.12993415073E+04  0.19469894104E+04  0.00000000000E+00 0. -1.
          3    1    5    5  503    0 -0.19729058055E+03  0.20244194597E+03 -0.37001692278E+03  0.46563809746E+03  0.00000000000E+00 0. -1.
         -4    1    5    5    0  503 -0.11892104738E+03  0.81393390088E+02 -0.11682929344E+03  0.18551599194E+03  0.00000000000E+00 0.  1.
         -1    1    6    6    0  502 -0.44429696956E+03 -0.15711921447E+03 -0.43942301673E+03  0.64434372221E+03  0.00000000000E+00 0.  1.
<mgrwt>
<rscale>  0 0.46089011E+04</rscale>
<asrwt>0</asrwt>
<pdfrwt beam="1">  1        1 0.69418138E+00 0.46089011E+04</pdfrwt>
<pdfrwt beam="2">  1       -1 0.18106525E+00 0.46089011E+04</pdfrwt>
<totfact> 0.47318421E-03</totfact>
</mgrwt>
</event>
<event>
12    1  0.1980523E-007  0.3326298E+04  0.7818608E-02  0.8156236E-01
          2   -1    0    0  501    0  0.00000000000E+00  0.00000000000E+00  0.31281986363E+04  0.31281986363E+04  0.00000000000E+00 0. -1.
         -2   -1    0    0    0  501 -0.00000000000E+00 -0.00000000000E+00 -0.88423567196E+03  0.88423567196E+03  0.00000000000E+00 0.  1.
         23    2    1    2    0    0  0.14049159416E+04  0.53522339015E+03  0.64028444769E+03  0.16366350983E+04  0.91418765746E+02 0.  0.
        254    2    1    2    0    0 -0.14049159416E+04 -0.53522339015E+03  0.16036785166E+04  0.23757992099E+04  0.90132359374E+03 0.  0.
        -24    2    4    4    0    0 -0.88469392862E+03  0.49517208974E+02  0.50022060200E+03  0.10206481688E+04  0.79791807373E+02 0.  0.
         24    2    4    4    0    0 -0.52022201302E+03 -0.58474059913E+03  0.11034579146E+04  0.13551510411E+04  0.79135729583E+02 0.  0.
         13    1    3    3    0    0  0.10924686159E+04  0.45415535723E+03  0.51613664702E+03  0.12907911541E+04  0.00000000000E+00 0. -1.
        -13    1    3    3    0    0  0.31244732578E+03  0.81068032928E+02  0.12414780067E+03  0.34584394423E+03  0.00000000000E+00 0.  1.
          4    1    6    6  502    0 -0.14403795740E+03 -0.14882838404E+03  0.23606543541E+03  0.31404412248E+03  0.00000000000E+00 0. -1.
          3    1    5    5  503    0 -0.77346940143E+02 -0.10879169348E+02  0.64152074016E+02  0.10107617957E+03  0.00000000000E+00 0. -1.
         -4    1    5    5    0  503 -0.80734698848E+03  0.60396378323E+02  0.43606852799E+03  0.91957198926E+03  0.00000000000E+00 0.  1.
         -3    1    6    6    0  502 -0.37618405562E+03 -0.43591221508E+03  0.86739247921E+03  0.10411069186E+04  0.00000000000E+00 0.  1.
<mgrwt>
<rscale>  0 0.33262981E+04</rscale>
<asrwt>0</asrwt>
<pdfrwt beam="1">  1        2 0.48126132E+00 0.33262981E+04</pdfrwt>
<pdfrwt beam="2">  1       -2 0.13603626E+00 0.33262981E+04</pdfrwt>
<totfact> 0.46498301E-01</totfact>
</mgrwt>
</event>
<event>
12    1  0.1989125E-007  0.2215018E+04  0.7818608E-02  0.8512203E-01
         -2   -1    0    0    0  501 -0.00000000000E+00  0.00000000000E+00  0.85321869530E+03  0.85321869530E+03  0.00000000000E+00 0.  1.
          2   -1    0    0  501    0  0.00000000000E+00 -0.00000000000E+00 -0.14375867395E+04  0.14375867395E+04  0.00000000000E+00 0. -1.
         23    2    1    2    0    0 -0.82362595726E+03 -0.37374450211E+03 -0.55220160562E+02  0.91090364884E+03  0.93013552892E+02 0.  0.
        254    2    1    2    0    0  0.82362595726E+03  0.37374450211E+03 -0.52914788364E+03  0.13799017860E+04  0.89782336003E+03 0.  0.
        -24    2    4    4    0    0  0.39367526268E+03  0.62787530926E+03 -0.18351921252E+03  0.76749766723E+03  0.78522298899E+02 0.  0.
         24    2    4    4    0    0  0.42995069458E+03 -0.25413080715E+03 -0.34562867112E+03  0.61240411873E+03  0.78355340737E+02 0.  0.
         13    1    3    3    0    0 -0.27954192623E+03 -0.85823623253E+02  0.44058506845E+01  0.29245306349E+03  0.00000000000E+00 0.  1.
        -13    1    3    3    0    0 -0.54408403103E+03 -0.28792087885E+03 -0.59626011247E+02  0.61845058535E+03  0.00000000000E+00 0. -1.
          2    1    6    6  502    0  0.42350363490E+03 -0.25554399510E+03 -0.32779052735E+03  0.59338410160E+03  0.00000000000E+00 0. -1.
          1    1    5    5  503    0  0.35258761452E+03  0.59853882982E+03 -0.16828381002E+03  0.71476303586E+03  0.00000000000E+00 0. -1.
         -2    1    5    5    0  503  0.41087648157E+02  0.29336479440E+02 -0.15235402498E+02  0.52734631375E+02  0.00000000000E+00 0.  1.
         -1    1    6    6    0  502  0.64470596814E+01  0.14131879466E+01 -0.17838143767E+02  0.19020017134E+02  0.00000000000E+00 0.  1.
<mgrwt>
<rscale>  0 0.22150177E+04</rscale>
<asrwt>0</asrwt>
<pdfrwt beam="1">  1        2 0.22116719E+00 0.22150177E+04</pdfrwt>
<pdfrwt beam="2">  1       -2 0.13126442E+00 0.22150177E+04</pdfrwt>
<totfact> 0.53289804E+00</totfact>
</mgrwt>
</event>
<event>
12    1  0.1980523E-007  0.2629326E+04  0.7818608E-02  0.8358308E-01
         -1   -1    0    0    0  501 -0.00000000000E+00  0.00000000000E+00  0.96659436530E+03  0.96659436530E+03  0.00000000000E+00 0.  1.
          1   -1    0    0  501    0  0.00000000000E+00 -0.00000000000E+00 -0.17880697796E+04  0.17880697796E+04  0.00000000000E+00 0. -1.
         23    2    1    2    0    0 -0.85947068843E+03  0.77689931375E+03 -0.41485259147E+03  0.12337502088E+04  0.88173108502E+02 0.  0.
        254    2    1    2    0    0  0.85947068843E+03 -0.77689931375E+03 -0.40662282283E+03  0.15209139361E+04  0.89753811790E+03 0.  0.
        -24    2    4    4    0    0  0.63494350135E+03 -0.79405535590E+03  0.33302118963E+02  0.10201388901E+04  0.76793006657E+02 0.  0.
         24    2    4    4    0    0  0.22452718708E+03  0.17156042158E+02 -0.43992494180E+03  0.50077504600E+03  0.80838757785E+02 0.  0.
         11    1    3    3    0    0 -0.41149845977E+03  0.33412677202E+03 -0.22551353352E+03  0.57604516835E+03  0.00000000000E+00 0. -1.
        -11    1    3    3    0    0 -0.44797222865E+03  0.44277254173E+03 -0.18933905796E+03  0.65770504044E+03  0.00000000000E+00 0.  1.
          4    1    6    6  502    0  0.91001980206E+02  0.37584396049E+02 -0.24086034757E+03  0.26020694506E+03  0.00000000000E+00 0. -1.
          3    1    5    5  503    0  0.52575488759E+03 -0.64836356844E+03 -0.16734065940E+01  0.83474326532E+03  0.00000000000E+00 0. -1.
         -4    1    5    5    0  503  0.10918861376E+03 -0.14569178747E+03  0.34975525557E+02  0.18539562481E+03  0.00000000000E+00 0.  1.
         -3    1    6    6    0  502  0.13352520687E+03 -0.20428353892E+02 -0.19906459423E+03  0.24056810094E+03  0.00000000000E+00 0.  1.
<mgrwt>
<rscale>  0 0.26293255E+04</rscale>
<asrwt>0</asrwt>
<pdfrwt beam="1">  1        1 0.27508765E+00 0.26293255E+04</pdfrwt>
<pdfrwt beam="2">  1       -1 0.14870683E+00 0.26293255E+04</pdfrwt>
<totfact> 0.13022736E+00</totfact>
</mgrwt>
</event>
<event>
12    1  0.1980523E-007  0.2673669E+04  0.7818608E-02  0.8343599E-01
          2   -1    0    0  501    0  0.00000000000E+00  0.00000000000E+00  0.30832462156E+04  0.30832462156E+04  0.00000000000E+00 0.  1.
         -2   -1    0    0    0  501 -0.00000000000E+00 -0.00000000000E+00 -0.57962491056E+03  0.57962491056E+03  0.00000000000E+00 0. -1.
         23    2    1    2    0    0  0.88978192276E+02  0.65735349946E+03 -0.23128269985E+03  0.70841507612E+03  0.91266044408E+02 0.  0.
        254    2    1    2    0    0 -0.88978192276E+02 -0.65735349946E+03  0.27349040049E+04  0.29544560501E+04  0.89948868464E+03 0.  0.
        -24    2    4    4    0    0 -0.18964705125E+03 -0.35422952505E+03  0.32718420717E+03  0.52433215475E+03  0.80188170060E+02 0.  0.
         24    2    4    4    0    0  0.10066885897E+03 -0.30312397441E+03  0.24077197978E+04  0.24301238953E+04  0.79807011991E+02 0.  0.
         11    1    3    3    0    0  0.94578989963E+02  0.48989717026E+03 -0.14300812875E+03  0.51903347450E+03  0.00000000000E+00 0.  1.
        -11    1    3    3    0    0 -0.56007976870E+01  0.16745632921E+03 -0.88274571100E+02  0.18938160161E+03  0.00000000000E+00 0. -1.
          4    1    6    6  502    0  0.35481575867E+01 -0.12758099962E+03  0.84669270012E+03  0.85625815577E+03  0.00000000000E+00 0. -1.
          1    1    5    5  503    0 -0.46490428322E+02 -0.14585755381E+03  0.89469588139E+02  0.17731495462E+03  0.00000000000E+00 0. -1.
         -2    1    5    5    0  503 -0.14315662292E+03 -0.20837197124E+03  0.23771461903E+03  0.34701720013E+03  0.00000000000E+00 0.  1.
         -1    1    6    6    0  502  0.97120701382E+02 -0.17554297479E+03  0.15610270976E+04  0.15738657396E+04  0.00000000000E+00 0.  1.
<mgrwt>
<rscale>  0 0.26736689E+04</rscale>
<asrwt>0</asrwt>
<pdfrwt beam="1">  1        2 0.47434556E+00 0.26736689E+04</pdfrwt>
<pdfrwt beam="2">  1       -2 0.89173065E-01 0.26736689E+04</pdfrwt>
<totfact> 0.14636555E+00</totfact>
</mgrwt>
</event>
<event>
12    1  0.1980523E-007  0.2256665E+04  0.7818608E-02  0.8495206E-01
         -2   -1    0    0    0  501 -0.00000000000E+00  0.00000000000E+00  0.17647260703E+04  0.17647260703E+04  0.00000000000E+00 0. -1.
          2   -1    0    0  501    0  0.00000000000E+00 -0.00000000000E+00 -0.72143477773E+03  0.72143477773E+03  0.00000000000E+00 0.  1.
         23    2    1    2    0    0 -0.64435485735E+03 -0.46656620161E+03  0.10046423450E+04  0.12846863370E+04  0.90749877834E+02 0.  0.
        254    2    1    2    0    0  0.64435485735E+03  0.46656620161E+03  0.38648947571E+02  0.12014745111E+04  0.89953880235E+03 0.  0.
        -24    2    4    4    0    0  0.69532770269E+03 -0.24091539617E+02  0.11737356079E+02  0.70058698843E+03  0.81383944434E+02 0.  0.
         24    2    4    4    0    0 -0.50972845344E+02  0.49065774122E+03  0.26911591492E+02  0.50088752265E+03  0.82588295790E+02 0.  0.
         11    1    3    3    0    0 -0.47095056667E+03 -0.29023414485E+03  0.70695642218E+03  0.89767348070E+03  0.00000000000E+00 0. -1.
        -11    1    3    3    0    0 -0.17340429068E+03 -0.17633205676E+03  0.29768592281E+03  0.38701285625E+03  0.00000000000E+00 0.  1.
          4    1    6    6  502    0 -0.43980741753E+02  0.99900392451E+02  0.16111115049E+00  0.10915319516E+03  0.00000000000E+00 0. -1.
          3    1    5    5  503    0  0.18521208735E+03  0.29548103431E+02  0.18206198208E+01  0.18756311571E+03  0.00000000000E+00 0. -1.
         -4    1    5    5    0  503  0.51011561534E+03 -0.53639643048E+02  0.99167362585E+01  0.51302387272E+03  0.00000000000E+00 0.  1.
         -3    1    6    6    0  502 -0.69921035910E+01  0.39075734877E+03  0.26750480341E+02  0.39173432749E+03  0.00000000000E+00 0.  1.
<mgrwt>
<rscale>  0 0.22566655E+04</rscale>
<asrwt>0</asrwt>
<pdfrwt beam="1">  1        2 0.11098997E+00 0.22566655E+04</pdfrwt>
<pdfrwt beam="2">  1       -2 0.27149632E+00 0.22566655E+04</pdfrwt>
<totfact> 0.17024453E+00</totfact>
</mgrwt>
</event>
<event>
12    1  0.1980523E-007  0.3952957E+04  0.7818608E-02  0.8014104E-01
         -2   -1    0    0    0  501 -0.00000000000E+00  0.00000000000E+00  0.26947349749E+04  0.26947349749E+04  0.00000000000E+00 0.  1.
          2   -1    0    0  501    0  0.00000000000E+00 -0.00000000000E+00 -0.14496668573E+04  0.14496668573E+04  0.00000000000E+00 0. -1.
         23    2    1    2    0    0  0.34584429658E+03  0.99730073814E+03  0.22128880887E+04  0.24537588387E+04  0.99205370669E+02 0.  0.
        254    2    1    2    0    0 -0.34584429658E+03 -0.99730073814E+03 -0.96781997109E+03  0.16906429936E+04  0.89854393076E+03 0.  0.
        -24    2    4    4    0    0  0.26800281243E+03 -0.37822315496E+03 -0.53979429728E+03  0.71612980125E+03  0.81152612071E+02 0.  0.
         24    2    4    4    0    0 -0.61384710901E+03 -0.61907758319E+03 -0.42802567380E+03  0.97451319232E+03  0.80029102998E+02 0.  0.
         11    1    3    3    0    0  0.12445543575E+03  0.50737864338E+03  0.10682658727E+04  0.11891653451E+04  0.00000000000E+00 0. -1.
        -11    1    3    3    0    0  0.22138886083E+03  0.48992209476E+03  0.11446222160E+04  0.12645934936E+04  0.00000000000E+00 0.  1.
          4    1    6    6  502    0 -0.55845669910E+03 -0.55461706177E+03 -0.35923637039E+03  0.86517324264E+03  0.00000000000E+00 0. -1.
          1    1    5    5  503    0  0.20832613536E+03 -0.31164582749E+03 -0.47793415262E+03  0.60740756886E+03  0.00000000000E+00 0. -1.
         -2    1    5    5    0  503  0.59676677072E+02 -0.66577327468E+02 -0.61860144663E+02  0.10872223239E+03  0.00000000000E+00 0.  1.
         -3    1    6    6    0  502 -0.55390409916E+02 -0.64460521417E+02 -0.68789303412E+02  0.10933994968E+03  0.00000000000E+00 0.  1.
<mgrwt>
<rscale>  0 0.39529574E+04</rscale>
<asrwt>0</asrwt>
<pdfrwt beam="1">  1        2 0.22302567E+00 0.39529574E+04</pdfrwt>
<pdfrwt beam="2">  1       -2 0.41457461E+00 0.39529574E+04</pdfrwt>
<totfact> 0.63884132E-02</totfact>
</mgrwt>
</event>
<event>
12    1  0.1980523E-007  0.2172095E+04  0.7818608E-02  0.8530133E-01
          2   -1    0    0  501    0  0.00000000000E+00  0.00000000000E+00  0.10437815446E+04  0.10437815446E+04  0.00000000000E+00 0. -1.
         -2   -1    0    0    0  501 -0.00000000000E+00 -0.00000000000E+00 -0.11300247004E+04  0.11300247004E+04  0.00000000000E+00 0.  1.
         23    2    1    2    0    0 -0.24550687121E+03 -0.75981070571E+03  0.39147417088E+03  0.89390311944E+03  0.90690838310E+02 0.  0.
        254    2    1    2    0    0  0.24550687121E+03  0.75981070571E+03 -0.47771732668E+03  0.12799031257E+04  0.87883572670E+03 0.  0.
        -24    2    4    4    0    0  0.55119797331E+03  0.40297842842E+03 -0.15510247180E+03  0.70491095667E+03  0.81436235952E+02 0.  0.
         24    2    4    4    0    0 -0.30569110209E+03  0.35683227730E+03 -0.32261485488E+03  0.57499216899E+03  0.75890221941E+02 0.  0.
         13    1    3    3    0    0 -0.22352076102E+02 -0.49406782664E+02  0.36962843683E+01  0.54353546318E+02  0.00000000000E+00 0.  1.
        -13    1    3    3    0    0 -0.22315479511E+03 -0.71040392305E+03  0.38777788651E+03  0.83954957312E+03  0.00000000000E+00 0. -1.
          2    1    6    6  502    0 -0.27780332142E+03  0.29930450650E+03 -0.30172062583E+03  0.50773340352E+03  0.00000000000E+00 0. -1.
          3    1    5    5  503    0  0.53830162437E+03  0.38424592497E+03 -0.16241281973E+03  0.68102238852E+03  0.00000000000E+00 0. -1.
         -4    1    5    5    0  503  0.12896348936E+02  0.18732503444E+02  0.73103479291E+01  0.23888568145E+02  0.00000000000E+00 0.  1.
         -1    1    6    6    0  502 -0.27887780671E+02  0.57527770799E+02 -0.20894229051E+02  0.67258765462E+02  0.00000000000E+00 0.  1.
<mgrwt>
<rscale>  0 0.21720948E+04</rscale>
<asrwt>0</asrwt>
<pdfrwt beam="1">  1        2 0.16058178E+00 0.21720948E+04</pdfrwt>
<pdfrwt beam="2">  1       -2 0.17384995E+00 0.21720948E+04</pdfrwt>
<totfact> 0.43311540E+00</totfact>
</mgrwt>
</event>
<event>
12    1  0.1980523E-007  0.2012306E+04  0.7818608E-02  0.8600889E-01
          1   -1    0    0  501    0  0.00000000000E+00  0.00000000000E+00  0.70182478829E+03  0.70182478829E+03  0.00000000000E+00 0. -1.
         -1   -1    0    0    0  501 -0.00000000000E+00 -0.00000000000E+00 -0.14424456309E+04  0.14424456309E+04  0.00000000000E+00 0.  1.
         23    2    1    2    0    0  0.75106850091E+03 -0.24252508966E+03 -0.14536213291E+03  0.80753024119E+03  0.89736439560E+02 0.  0.
        254    2    1    2    0    0 -0.75106850091E+03  0.24252508966E+03 -0.59525870969E+03  0.13367401780E+04  0.89978834169E+03 0.  0.
        -24    2    4    4    0    0 -0.16580908306E+02 -0.11627255810E+03  0.16438681813E+03  0.21841068933E+03  0.82981738677E+02 0.  0.
         24    2    4    4    0    0 -0.73448759260E+03  0.35879764776E+03 -0.75964552782E+03  0.11183294887E+04  0.73428479207E+02 0.  0.
         11    1    3    3    0    0  0.58515088634E+02 -0.46028339315E+02 -0.13290638682E+02  0.75625820290E+02  0.00000000000E+00 0. -1.
        -11    1    3    3    0    0  0.69255341227E+03 -0.19649675034E+03 -0.13207149423E+03  0.73190442090E+03  0.00000000000E+00 0.  1.
          2    1    6    6  502    0 -0.36319852770E+03  0.15100051348E+03 -0.32687145847E+03  0.51142866165E+03  0.00000000000E+00 0. -1.
          3    1    5    5  503    0  0.25906417189E+02 -0.94093632985E+01  0.44030723948E+02  0.51945964431E+02  0.00000000000E+00 0. -1.
         -4    1    5    5    0  503 -0.42487325495E+02 -0.10686319480E+03  0.12035609418E+03  0.16646472490E+03  0.00000000000E+00 0.  1.
         -1    1    6    6    0  502 -0.37128906490E+03  0.20779713428E+03 -0.43277406935E+03  0.60690082702E+03  0.00000000000E+00 0.  1.
<mgrwt>
<rscale>  0 0.20123062E+04</rscale>
<asrwt>0</asrwt>
<pdfrwt beam="1">  1        1 0.10797304E+00 0.20123062E+04</pdfrwt>
<pdfrwt beam="2">  1       -1 0.22191471E+00 0.20123062E+04</pdfrwt>
<totfact> 0.26864845E+00</totfact>
</mgrwt>
</event>
<event>
12    1  0.1980523E-007  0.1871479E+04  0.7818608E-02  0.8669185E-01
          2   -1    0    0  501    0  0.00000000000E+00  0.00000000000E+00  0.33085232007E+04  0.33085232007E+04  0.00000000000E+00 0. -1.
         -2   -1    0    0    0  501 -0.00000000000E+00 -0.00000000000E+00 -0.26465220377E+03  0.26465220377E+03  0.00000000000E+00 0.  1.
         23    2    1    2    0    0 -0.20573457873E+03 -0.22728735925E+03  0.24100119753E+04  0.24311093794E+04  0.90270887650E+02 0.  0.
        254    2    1    2    0    0  0.20573457873E+03  0.22728735925E+03  0.63385902164E+03  0.11420660250E+04  0.89919479852E+03 0.  0.
        -24    2    4    4    0    0  0.23067712176E+03 -0.21534888446E+03 -0.44608395109E+02  0.32806769904E+03  0.77790935852E+02 0.  0.
         24    2    4    4    0    0 -0.24942543023E+02  0.44263624371E+03  0.67846741675E+03  0.81399832600E+03  0.75672084980E+02 0.  0.
         13    1    3    3    0    0 -0.98801982447E+02 -0.16943846553E+03  0.16121033944E+04  0.16239915577E+04  0.00000000000E+00 0. -1.
        -13    1    3    3    0    0 -0.10693259629E+03 -0.57848893718E+02  0.79790858091E+03  0.80711782172E+03  0.00000000000E+00 0.  1.
          2    1    6    6  502    0 -0.20683394693E+02  0.36764619981E+03  0.50523345117E+03  0.62518187052E+03  0.00000000000E+00 0. -1.
          3    1    5    5  503    0  0.11911036708E+03 -0.13482265334E+03 -0.59940061145E+02  0.18962393923E+03  0.00000000000E+00 0. -1.
         -4    1    5    5    0  503  0.11156675467E+03 -0.80526231122E+02  0.15331666036E+02  0.13844375981E+03  0.00000000000E+00 0.  1.
         -3    1    6    6    0  502 -0.42591483294E+01  0.74990043896E+02  0.17323396558E+03  0.18881645548E+03  0.00000000000E+00 0.  1.
<mgrwt>
<rscale>  0 0.18714785E+04</rscale>
<asrwt>0</asrwt>
<pdfrwt beam="1">  1        2 0.50900354E+00 0.18714785E+04</pdfrwt>
<pdfrwt beam="2">  1       -2 0.40715726E-01 0.18714785E+04</pdfrwt>
<totfact> 0.59268007E+00</totfact>
</mgrwt>
</event>
<event>
12    1  0.1980523E-007  0.1423767E+04  0.7818608E-02  0.8936792E-01
          1   -1    0    0  501    0  0.00000000000E+00  0.00000000000E+00  0.71177062493E+03  0.71177062493E+03  0.00000000000E+00 0. -1.
         -1   -1    0    0    0  501 -0.00000000000E+00 -0.00000000000E+00 -0.71199604635E+03  0.71199604635E+03  0.00000000000E+00 0.  1.
         23    2    1    2    0    0  0.29186839289E+03 -0.17729184991E+03 -0.24500713247E+03  0.42983942098E+03  0.90077045102E+02 0.  0.
        254    2    1    2    0    0 -0.29186839289E+03  0.17729184991E+03  0.24478171105E+03  0.99392725030E+03  0.90075176048E+03 0.  0.
        -24    2    4    4    0    0 -0.20704959034E+02  0.51300326578E+03  0.18095846374E+03  0.55020636587E+03  0.79875111388E+02 0.  0.
         24    2    4    4    0    0 -0.27116343386E+03 -0.33571141587E+03  0.63823247309E+02  0.44372088443E+03  0.81136020180E+02 0.  0.
         13    1    3    3    0    0  0.23012791232E+03 -0.10882943841E+03 -0.21403337115E+03  0.33258530734E+03  0.00000000000E+00 0.  1.
        -13    1    3    3    0    0  0.61740480572E+02 -0.68462411500E+02 -0.30973761321E+02  0.97254113640E+02  0.00000000000E+00 0. -1.
          4    1    6    6  502    0 -0.18873253378E+03 -0.19789266892E+03  0.75784264732E+01  0.27356701239E+03  0.00000000000E+00 0. -1.
          3    1    5    5  503    0 -0.17161598184E+02  0.16558094451E+03  0.97365810625E+02  0.19285142135E+03  0.00000000000E+00 0. -1.
         -4    1    5    5    0  503 -0.35433608500E+01  0.34742232127E+03  0.83592653115E+02  0.35735494452E+03  0.00000000000E+00 0.  1.
         -3    1    6    6    0  502 -0.82430900084E+02 -0.13781874695E+03  0.56244820836E+02  0.17015387204E+03  0.00000000000E+00 0.  1.
<mgrwt>
<rscale>  0 0.14237667E+04</rscale>
<asrwt>0</asrwt>
<pdfrwt beam="1">  1        1 0.10950317E+00 0.14237667E+04</pdfrwt>
<pdfrwt beam="2">  1       -1 0.10953785E+00 0.14237667E+04</pdfrwt>
<totfact> 0.19932463E+01</totfact>
</mgrwt>
</event>
<event>
12    1  0.1980523E-007  0.2359449E+04  0.7818608E-02  0.8454843E-01
          2   -1    0    0  501    0  0.00000000000E+00  0.00000000000E+00  0.23026369431E+04  0.23026369431E+04  0.00000000000E+00 0. -1.
         -2   -1    0    0    0  501 -0.00000000000E+00 -0.00000000000E+00 -0.60441549369E+03  0.60441549369E+03  0.00000000000E+00 0.  1.
         23    2    1    2    0    0  0.29234810783E+03 -0.34477177384E+03  0.18324412389E+04  0.18901736258E+04  0.10286131279E+03 0.  0.
        254    2    1    2    0    0 -0.29234810783E+03  0.34477177384E+03 -0.13421978953E+03  0.10168788109E+04  0.90093982705E+03 0.  0.
        -24    2    4    4    0    0 -0.14046583965E+03 -0.23899191263E+03  0.17118095366E+03  0.33589742298E+03  0.81709078195E+02 0.  0.
         24    2    4    4    0    0 -0.15188226819E+03  0.58376368646E+03 -0.30540074318E+03  0.68098138792E+03  0.81349687983E+02 0.  0.
         13    1    3    3    0    0  0.20468146145E+03 -0.16442002820E+03  0.10828922689E+04  0.11142639330E+04  0.00000000000E+00 0.  1.
        -13    1    3    3    0    0  0.87666646377E+02 -0.18035174564E+03  0.74954897000E+03  0.77590969286E+03  0.00000000000E+00 0. -1.
          2    1    6    6  502    0 -0.10098252182E+02  0.15837858488E+03 -0.58734232362E+02  0.16922015511E+03  0.00000000000E+00 0. -1.
          3    1    5    5  503    0 -0.39119681588E+02 -0.60324712820E+02  0.57023589545E+01  0.72124457447E+02  0.00000000000E+00 0. -1.
         -4    1    5    5    0  503 -0.10134615806E+03 -0.17866719981E+03  0.16547859470E+03  0.26377296553E+03  0.00000000000E+00 0.  1.
         -1    1    6    6    0  502 -0.14178401600E+03  0.42538510159E+03 -0.24666651082E+03  0.51176123281E+03  0.00000000000E+00 0.  1.
<mgrwt>
<rscale>  0 0.23594486E+04</rscale>
<asrwt>0</asrwt>
<pdfrwt beam="1">  1        2 0.35425183E+00 0.23594486E+04</pdfrwt>
<pdfrwt beam="2">  1       -2 0.92987000E-01 0.23594486E+04</pdfrwt>
<totfact> 0.39931964E+00</totfact>
</mgrwt>
</event>
<event>
12    1  0.1980523E-007  0.2431949E+04  0.7818608E-02  0.8427638E-01
         -1   -1    0    0    0  501 -0.00000000000E+00  0.00000000000E+00  0.74226957302E+03  0.74226957302E+03  0.00000000000E+00 0.  1.
          1   -1    0    0  501    0  0.00000000000E+00 -0.00000000000E+00 -0.19919901350E+04  0.19919901350E+04  0.00000000000E+00 0. -1.
         23    2    1    2    0    0 -0.80427675406E+03 -0.37607866218E+03 -0.11635291243E+04  0.14665365955E+04  0.92915583421E+02 0.  0.
        254    2    1    2    0    0  0.80427675406E+03  0.37607866218E+03 -0.86191437740E+02  0.12677231125E+04  0.90077559296E+03 0.  0.
        -24    2    4    4    0    0 -0.87384139550E+02 -0.84174400242E+02 -0.20773211323E+03  0.25364096191E+03  0.80372813776E+02 0.  0.
         24    2    4    4    0    0  0.89166089361E+03  0.46025306242E+03  0.12154067549E+03  0.10140821506E+04  0.81844008755E+02 0.  0.
         11    1    3    3    0    0 -0.64568612369E+03 -0.28546676062E+03 -0.97799253371E+03  0.12061804333E+04  0.00000000000E+00 0. -1.
        -11    1    3    3    0    0 -0.15859063037E+03 -0.90611901558E+02 -0.18553659057E+03  0.26035616218E+03  0.00000000000E+00 0.  1.
          4    1    6    6  502    0  0.62400945863E+03  0.36053245173E+03  0.10103701619E+03  0.72772242775E+03  0.00000000000E+00 0. -1.
          3    1    5    5  503    0 -0.18943928552E+02 -0.73090359662E+02 -0.12066222917E+03  0.14233919577E+03  0.00000000000E+00 0. -1.
         -4    1    5    5    0  503 -0.68440210998E+02 -0.11084040579E+02 -0.87069884062E+02  0.11130176615E+03  0.00000000000E+00 0.  1.
         -3    1    6    6    0  502  0.26765143498E+03  0.99720610691E+02  0.20503659296E+02  0.28635972288E+03  0.00000000000E+00 0.  1.
<mgrwt>
<rscale>  0 0.24319487E+04</rscale>
<asrwt>0</asrwt>
<pdfrwt beam="1">  1        1 0.30646002E+00 0.24319487E+04</pdfrwt>
<pdfrwt beam="2">  1       -1 0.11419532E+00 0.24319487E+04</pdfrwt>
<totfact> 0.18820879E+00</totfact>
</mgrwt>
</event>
<event>
12    1  0.1980523E-007  0.1650917E+04  0.7818608E-02  0.8789864E-01
          2   -1    0    0  501    0  0.00000000000E+00  0.00000000000E+00  0.40687124958E+04  0.40687124958E+04  0.00000000000E+00 0.  1.
         -2   -1    0    0    0  501 -0.00000000000E+00 -0.00000000000E+00 -0.16746860466E+03  0.16746860466E+03  0.00000000000E+00 0. -1.
         23    2    1    2    0    0  0.30342075551E+03  0.35252634790E+03  0.50307903786E+03  0.68995508015E+03  0.81305064133E+02 0.  0.
        254    2    1    2    0    0 -0.30342075551E+03 -0.35252634790E+03  0.33981648533E+04  0.35462260203E+04  0.90103031924E+03 0.  0.
        -24    2    4    4    0    0 -0.37959836691E+03 -0.30459858170E+03  0.76496076220E+03  0.91028909544E+03  0.81154503499E+02 0.  0.
         24    2    4    4    0    0  0.76177611398E+02 -0.47927766198E+02  0.26332040911E+04  0.26359369248E+04  0.79369939781E+02 0.  0.
         11    1    3    3    0    0  0.18500747250E+03  0.25432003115E+03  0.29512391121E+03  0.43128246671E+03  0.00000000000E+00 0. -1.
        -11    1    3    3    0    0  0.11841328301E+03  0.98206316746E+02  0.20795512665E+03  0.25867261344E+03  0.00000000000E+00 0.  1.
          2    1    6    6  502    0  0.16222267928E+02 -0.17513926266E+02  0.15557711063E+03  0.15739802077E+03  0.00000000000E+00 0. -1.
          3    1    5    5  503    0 -0.17847095920E+03 -0.13520112284E+03  0.42633467975E+03  0.48155216337E+03  0.00000000000E+00 0. -1.
         -4    1    5    5    0  503 -0.20112740771E+03 -0.16939745886E+03  0.33862608245E+03  0.42873693207E+03  0.00000000000E+00 0.  1.
         -1    1    6    6    0  502  0.59955343470E+02 -0.30413839932E+02  0.24776269804E+04  0.24785389041E+04  0.00000000000E+00 0.  1.
<mgrwt>
<rscale>  0 0.16509168E+04</rscale>
<asrwt>0</asrwt>
<pdfrwt beam="1">  1        2 0.62595569E+00 0.16509168E+04</pdfrwt>
<pdfrwt beam="2">  1       -2 0.25764404E-01 0.16509168E+04</pdfrwt>
<totfact> 0.39767331E+00</totfact>
</mgrwt>
</event>
<event>
12    1  0.1980523E-007  0.2296682E+04  0.7818608E-02  0.8479230E-01
         -2   -1    0    0    0  501 -0.00000000000E+00  0.00000000000E+00  0.42396964844E+03  0.42396964844E+03  0.00000000000E+00 0. -1.
          2   -1    0    0  501    0  0.00000000000E+00 -0.00000000000E+00 -0.31103342517E+04  0.31103342517E+04  0.00000000000E+00 0.  1.
         23    2    1    2    0    0 -0.54589254040E+03 -0.78414723819E+03 -0.13928764296E+04  0.16915590333E+04  0.91551396446E+02 0.  0.
        254    2    1    2    0    0  0.54589254040E+03  0.78414723819E+03 -0.12934881737E+04  0.18427448669E+04  0.89983967020E+03 0.  0.
        -24    2    4    4    0    0  0.30586413862E+03  0.85053692850E+03 -0.56551378304E+03  0.10692914951E+04  0.81317431180E+02 0.  0.
         24    2    4    4    0    0  0.24002840178E+03 -0.66389690319E+02 -0.72797439066E+03  0.77345337178E+03  0.79133938506E+02 0.  0.
         11    1    3    3    0    0 -0.79515379738E+02 -0.17353087993E+03 -0.30150963607E+03  0.35685252212E+03  0.00000000000E+00 0.  1.
        -11    1    3    3    0    0 -0.46637716066E+03 -0.61061635825E+03 -0.10913667935E+04  0.13347065112E+04  0.00000000000E+00 0. -1.
          4    1    6    6  502    0  0.32415343185E+02 -0.21263041922E+02 -0.51893499004E+02  0.64775046619E+02  0.00000000000E+00 0. -1.
          1    1    5    5  503    0  0.27140677886E+03  0.72919895610E+03 -0.51686334570E+03  0.93409875031E+03  0.00000000000E+00 0. -1.
         -2    1    5    5    0  503  0.34457359761E+02  0.12133797240E+03 -0.48650437336E+02  0.13519274478E+03  0.00000000000E+00 0.  1.
         -3    1    6    6    0  502  0.20761305859E+03 -0.45126648397E+02 -0.67608089166E+03  0.70867832516E+03  0.00000000000E+00 0.  1.
<mgrwt>
<rscale>  0 0.22966822E+04</rscale>
<asrwt>0</asrwt>
<pdfrwt beam="1">  1        2 0.47851296E+00 0.22966822E+04</pdfrwt>
<pdfrwt beam="2">  1       -2 0.65226100E-01 0.22966822E+04</pdfrwt>
<totfact> 0.29157400E+00</totfact>
</mgrwt>
</event>
<event>
12    1  0.1980523E-007  0.1484976E+04  0.7818608E-02  0.8894506E-01
         -2   -1    0    0    0  501 -0.00000000000E+00  0.00000000000E+00  0.48712056939E+03  0.48712056939E+03  0.00000000000E+00 0.  1.
          2   -1    0    0  501    0  0.00000000000E+00 -0.00000000000E+00 -0.11317281697E+04  0.11317281697E+04  0.00000000000E+00 0. -1.
         23    2    1    2    0    0  0.43213011493E+03 -0.16692682782E+03 -0.20945347322E+03  0.51577731354E+03  0.86916498102E+02 0.  0.
        254    2    1    2    0    0 -0.43213011493E+03  0.16692682782E+03 -0.43515412706E+03  0.11030714255E+04  0.90155779261E+03 0.  0.
        -24    2    4    4    0    0 -0.57222770874E+03  0.57439139182E+02 -0.60885885431E+03  0.84230456162E+03  0.89577143795E+02 0.  0.
         24    2    4    4    0    0  0.14009759381E+03  0.10948768864E+03  0.17370472725E+03  0.26076686389E+03  0.78810756114E+02 0.  0.
         13    1    3    3    0    0  0.25021928989E+03 -0.69838278634E+02 -0.15500171528E+03  0.30251051211E+03  0.00000000000E+00 0. -1.
        -13    1    3    3    0    0  0.18191082504E+03 -0.97088549186E+02 -0.54451757935E+02  0.21326680143E+03  0.00000000000E+00 0.  1.
          2    1    6    6  502    0  0.12066499737E+03  0.10937320695E+03  0.11618664211E+03  0.20005468201E+03  0.00000000000E+00 0. -1.
          3    1    5    5  503    0 -0.52739948886E+03  0.50543770392E+02 -0.59058138209E+03  0.79340485406E+03  0.00000000000E+00 0. -1.
         -4    1    5    5    0  503 -0.44828219889E+02  0.68953687902E+01 -0.18277472224E+02  0.48899707566E+02  0.00000000000E+00 0.  1.
         -1    1    6    6    0  502  0.19432596444E+02  0.11448168731E+00  0.57518085145E+02  0.60712181886E+02  0.00000000000E+00 0.  1.
<mgrwt>
<rscale>  0 0.14849755E+04</rscale>
<asrwt>0</asrwt>
<pdfrwt beam="1">  1        2 0.17411203E+00 0.14849755E+04</pdfrwt>
<pdfrwt beam="2">  1       -2 0.74941626E-01 0.14849755E+04</pdfrwt>
<totfact> 0.32233222E+01</totfact>
</mgrwt>
</event>
<event>
12    1  0.1980523E-007  0.1291566E+04  0.7818608E-02  0.9036280E-01
          2   -1    0    0  501    0  0.00000000000E+00  0.00000000000E+00  0.91983392190E+03  0.91983392190E+03  0.00000000000E+00 0. -1.
         -2   -1    0    0    0  501 -0.00000000000E+00 -0.00000000000E+00 -0.45338146233E+03  0.45338146233E+03  0.00000000000E+00 0.  1.
         23    2    1    2    0    0 -0.30605920113E+03 -0.59533626872E+02  0.57283334255E+02  0.32963358907E+03  0.90335127918E+02 0.  0.
        254    2    1    2    0    0  0.30605920113E+03  0.59533626872E+02  0.40916912532E+03  0.10435817952E+04  0.90797968190E+03 0.  0.
        -24    2    4    4    0    0  0.32390885376E+03  0.14416601407E+03  0.66760333444E+03  0.75961925699E+03  0.75009454588E+02 0.  0.
         24    2    4    4    0    0 -0.17849652631E+02 -0.84632387197E+02 -0.25843420912E+03  0.28396253817E+03  0.79782401407E+02 0.  0.
         13    1    3    3    0    0 -0.72302129194E+02 -0.19143309769E+02  0.54244327796E+02  0.92393242680E+02  0.00000000000E+00 0. -1.
        -13    1    3    3    0    0 -0.23375707193E+03 -0.40390317103E+02  0.30390064589E+01  0.23724034639E+03  0.00000000000E+00 0.  1.
          2    1    6    6  502    0  0.15612822453E+02 -0.40715398391E+02 -0.19522128726E+03  0.20003213465E+03  0.00000000000E+00 0. -1.
          3    1    5    5  503    0  0.26014474153E+03  0.91608924012E+02  0.55713961211E+03  0.62166874531E+03  0.00000000000E+00 0. -1.
         -4    1    5    5    0  503  0.63764112227E+02  0.52557090057E+02  0.11046372233E+03  0.13795051169E+03  0.00000000000E+00 0.  1.
         -1    1    6    6    0  502 -0.33462475084E+02 -0.43916988805E+02 -0.63212921861E+02  0.83930403518E+02  0.00000000000E+00 0.  1.
<mgrwt>
<rscale>  0 0.12915659E+04</rscale>
<asrwt>0</asrwt>
<pdfrwt beam="1">  1        2 0.14151291E+00 0.12915659E+04</pdfrwt>
<pdfrwt beam="2">  1       -2 0.69750994E-01 0.12915659E+04</pdfrwt>
<totfact> 0.52258168E+01</totfact>
</mgrwt>
</event>
<event>
12    1  0.1980523E-007  0.1523252E+04  0.7818608E-02  0.8869136E-01
         -2   -1    0    0    0  501 -0.00000000000E+00  0.00000000000E+00  0.25350801508E+03  0.25350801508E+03  0.00000000000E+00 0.  1.
          2   -1    0    0  501    0  0.00000000000E+00 -0.00000000000E+00 -0.22881882150E+04  0.22881882150E+04  0.00000000000E+00 0. -1.
         23    2    1    2    0    0  0.16410474147E+03  0.37953418812E+03 -0.11089741835E+04  0.11870382770E+04  0.90882151130E+02 0.  0.
        254    2    1    2    0    0 -0.16410474147E+03 -0.37953418812E+03 -0.92570601641E+03  0.13546579530E+04  0.89843751855E+03 0.  0.
        -24    2    4    4    0    0 -0.21619384990E+03  0.25401306659E+03 -0.25236993270E+03  0.42549257384E+03  0.78044402270E+02 0.  0.
         24    2    4    4    0    0  0.52089108435E+02 -0.63354725470E+03 -0.67333608371E+03  0.92916537918E+03  0.76625198775E+02 0.  0.
         13    1    3    3    0    0  0.94633946249E+02  0.31350548171E+03 -0.86484883142E+03  0.92477282186E+03  0.00000000000E+00 0. -1.
        -13    1    3    3    0    0  0.69470795217E+02  0.66028706410E+02 -0.24412535205E+03  0.26226545517E+03  0.00000000000E+00 0.  1.
          2    1    6    6  502    0  0.58991113514E+02 -0.29003783112E+03 -0.33380771684E+03  0.44612720919E+03  0.00000000000E+00 0. -1.
          3    1    5    5  503    0 -0.62010742674E+02  0.42683416028E+02 -0.91104133447E+02  0.11818277938E+03  0.00000000000E+00 0. -1.
         -2    1    5    5    0  503 -0.15418310723E+03  0.21132965056E+03 -0.16126579926E+03  0.30730979446E+03  0.00000000000E+00 0.  1.
         -1    1    6    6    0  502 -0.69020050792E+01 -0.34350942358E+03 -0.33952836686E+03  0.48303816999E+03  0.00000000000E+00 0.  1.
<mgrwt>
<rscale>  0 0.15232519E+04</rscale>
<asrwt>0</asrwt>
<pdfrwt beam="1">  1        2 0.35202896E+00 0.15232519E+04</pdfrwt>
<pdfrwt beam="2">  1       -2 0.39001233E-01 0.15232519E+04</pdfrwt>
<totfact> 0.27633686E+01</totfact>
</mgrwt>
</event>
<event>
12    1  0.2951315E-007  0.2802338E+04  0.7818608E-02  0.8302543E-01
          2   -1    0    0  501    0  0.00000000000E+00  0.00000000000E+00  0.21429282301E+04  0.21429282301E+04  0.00000000000E+00 0. -1.
         -2   -1    0    0    0  501 -0.00000000000E+00 -0.00000000000E+00 -0.91616418132E+03  0.91616418132E+03  0.00000000000E+00 0.  1.
         23    2    1    2    0    0 -0.25934120408E+03 -0.12260330378E+04  0.52861093177E+03  0.13632732361E+04  0.93110306061E+02 0.  0.
        254    2    1    2    0    0  0.25934120408E+03  0.12260330378E+04  0.69815311698E+03  0.16958191753E+04  0.90441695629E+03 0.  0.
        -24    2    4    4    0    0  0.98137728053E+02  0.84965209533E+02  0.50114901817E+03  0.52388861074E+03  0.80366893402E+02 0.  0.
         24    2    4    4    0    0  0.16120347602E+03  0.11410678283E+04  0.19700409882E+03  0.11719305646E+04  0.81168244584E+02 0.  0.
         11    1    3    3    0    0 -0.13032814702E+03 -0.48040787258E+03  0.17102751621E+03  0.52633407760E+03  0.00000000000E+00 0.  1.
        -11    1    3    3    0    0 -0.12901305706E+03 -0.74562516521E+03  0.35758341556E+03  0.83693915846E+03  0.00000000000E+00 0. -1.
          4    1    6    6  502    0  0.16178904972E+03  0.11083220118E+04  0.17817156609E+03  0.11341509976E+04  0.00000000000E+00 0. -1.
          1    1    5    5  503    0  0.95200040196E+02  0.84241534846E+02  0.50396806813E+03  0.51975330450E+03  0.00000000000E+00 0. -1.
         -2    1    5    5    0  503  0.29376878576E+01  0.72367468708E+00 -0.28190499619E+01  0.41353062388E+01  0.00000000000E+00 0.  1.
         -3    1    6    6    0  502 -0.58557369374E+00  0.32745816456E+02  0.18832532727E+02  0.37779566975E+02  0.00000000000E+00 0.  1.
<mgrwt>
<rscale>  0 0.28023377E+04</rscale>
<asrwt>0</asrwt>
<pdfrwt beam="1">  1        2 0.32968126E+00 0.28023377E+04</pdfrwt>
<pdfrwt beam="2">  1       -2 0.14094834E+00 0.28023377E+04</pdfrwt>
<totfact> 0.17068642E+00</totfact>
</mgrwt>
</event>
<event>
12    1  0.1980523E-007  0.1956868E+04  0.7818608E-02  0.8627056E-01
          3   -1    0    0  501    0  0.00000000000E+00  0.00000000000E+00  0.61023672679E+03  0.61023672679E+03  0.00000000000E+00 0. -1.
         -3   -1    0    0    0  501 -0.00000000000E+00 -0.00000000000E+00 -0.15687901420E+04  0.15687901420E+04  0.00000000000E+00 0.  1.
         23    2    1    2    0    0 -0.69302474258E+03  0.30546837071E+03 -0.51950446987E+03  0.92327993807E+03  0.94692821787E+02 0.  0.
        254    2    1    2    0    0  0.69302474258E+03 -0.30546837071E+03 -0.43904894530E+03  0.12557469307E+04  0.90030114862E+03 0.  0.
        -24    2    4    4    0    0  0.14383013048E+03 -0.20253752159E+03  0.25258404437E+03  0.36292018010E+03  0.78764227748E+02 0.  0.
         24    2    4    4    0    0  0.54919461210E+03 -0.10293084912E+03 -0.69163298966E+03  0.89282675058E+03  0.81079790892E+02 0.  0.
         13    1    3    3    0    0 -0.32706481615E+03  0.13284859311E+03 -0.18656385150E+03  0.39928212249E+03  0.00000000000E+00 0. -1.
        -13    1    3    3    0    0 -0.36595992643E+03  0.17261977760E+03 -0.33294061837E+03  0.52399781558E+03  0.00000000000E+00 0.  1.
          4    1    6    6  502    0  0.48596598186E+03 -0.11652306943E+03 -0.61968483523E+03  0.79608407612E+03  0.00000000000E+00 0. -1.
          1    1    5    5  503    0  0.70029645591E+02 -0.15280635681E+03  0.19242106015E+03  0.25549911611E+03  0.00000000000E+00 0. -1.
         -2    1    5    5    0  503  0.73800484889E+02 -0.49731164781E+02  0.60162984219E+02  0.10742106400E+03  0.00000000000E+00 0.  1.
         -3    1    6    6    0  502  0.63228630236E+02  0.13592220306E+02 -0.71948154437E+02  0.96742674458E+02  0.00000000000E+00 0.  1.
<mgrwt>
<rscale>  0 0.19568683E+04</rscale>
<asrwt>0</asrwt>
<pdfrwt beam="1">  1        3 0.93882573E-01 0.19568683E+04</pdfrwt>
<pdfrwt beam="2">  1       -3 0.24135233E+00 0.19568683E+04</pdfrwt>
<totfact> 0.20271812E-01</totfact>
</mgrwt>
</event>
<event>
12    1  0.1980523E-007  0.3416246E+04  0.7818608E-02  0.8133931E-01
          2   -1    0    0  501    0  0.00000000000E+00  0.00000000000E+00  0.38651788295E+04  0.38651788295E+04  0.00000000000E+00 0. -1.
         -2   -1    0    0    0  501 -0.00000000000E+00 -0.00000000000E+00 -0.75486375019E+03  0.75486375019E+03  0.00000000000E+00 0.  1.
         23    2    1    2    0    0  0.99733192686E+03  0.12308718118E+04  0.12937467047E+04  0.20471290173E+04  0.85089883181E+02 0.  0.
        254    2    1    2    0    0 -0.99733192686E+03 -0.12308718118E+04  0.18165683746E+04  0.25729135623E+04  0.90013729517E+03 0.  0.
        -24    2    4    4    0    0 -0.84305827537E+03 -0.13582672330E+04  0.16644112972E+04  0.23092790142E+04  0.82870184923E+02 0.  0.
         24    2    4    4    0    0 -0.15427365148E+03  0.12739542112E+03  0.15215707746E+03  0.26363454814E+03  0.79507520963E+02 0.  0.
         13    1    3    3    0    0  0.83848629666E+02  0.14088786601E+03  0.14778187557E+03  0.22072486546E+03  0.00000000000E+00 0. -1.
        -13    1    3    3    0    0  0.91348329719E+03  0.10899839458E+04  0.11459648291E+04  0.18264041519E+04  0.00000000000E+00 0.  1.
          2    1    6    6  502    0 -0.13036076942E+03  0.81254242495E+02  0.75864332747E+02  0.17132302563E+03  0.00000000000E+00 0. -1.
          3    1    5    5  503    0 -0.64316783459E+03 -0.10539387734E+04  0.13325502233E+04  0.18166292685E+04  0.00000000000E+00 0. -1.
         -4    1    5    5    0  503 -0.19989044078E+03 -0.30432845955E+03  0.33186107390E+03  0.49264974574E+03  0.00000000000E+00 0.  1.
         -1    1    6    6    0  502 -0.23912882063E+02  0.46141178623E+02  0.76292744711E+02  0.92311522513E+02  0.00000000000E+00 0.  1.
<mgrwt>
<rscale>  0 0.34162455E+04</rscale>
<asrwt>0</asrwt>
<pdfrwt beam="1">  1        2 0.59464288E+00 0.34162455E+04</pdfrwt>
<pdfrwt beam="2">  1       -2 0.11613289E+00 0.34162455E+04</pdfrwt>
<totfact> 0.20797471E-01</totfact>
</mgrwt>
</event>
<event>
12    1  0.1980523E-007  0.1685585E+04  0.7818608E-02  0.8769629E-01
         -2   -1    0    0    0  501 -0.00000000000E+00  0.00000000000E+00  0.45793564156E+03  0.45793564156E+03  0.00000000000E+00 0.  1.
          2   -1    0    0  501    0  0.00000000000E+00 -0.00000000000E+00 -0.15510899250E+04  0.15510899250E+04  0.00000000000E+00 0. -1.
         23    2    1    2    0    0 -0.18473050897E+03  0.56235466058E+03 -0.47474974035E+03  0.76401844198E+03  0.89267790982E+02 0.  0.
        254    2    1    2    0    0  0.18473050897E+03 -0.56235466058E+03 -0.61840454306E+03  0.12450071245E+04  0.90401904629E+03 0.  0.
        -24    2    4    4    0    0 -0.20920069982E+03  0.14065271880E+03 -0.21263570687E+03  0.33950554441E+03  0.80634674543E+02 0.  0.
         24    2    4    4    0    0  0.39393120879E+03 -0.70300737938E+03 -0.40576883619E+03  0.90550158013E+03  0.76704566193E+02 0.  0.
         13    1    3    3    0    0 -0.73159675534E+02  0.30184757740E+03 -0.20069451244E+03  0.36978721642E+03  0.00000000000E+00 0.  1.
        -13    1    3    3    0    0 -0.11157083344E+03  0.26050708318E+03 -0.27405522791E+03  0.39423122556E+03  0.00000000000E+00 0. -1.
          2    1    6    6  502    0  0.18613556250E+03 -0.39514903668E+03 -0.19389088879E+03  0.47789422006E+03  0.00000000000E+00 0. -1.
          1    1    5    5  503    0 -0.24812169856E+01 -0.71870252564E+01 -0.17524428870E+02  0.19102758361E+02  0.00000000000E+00 0. -1.
         -2    1    5    5    0  503 -0.20671948283E+03  0.14783974405E+03 -0.19511127800E+03  0.32040278605E+03  0.00000000000E+00 0.  1.
         -1    1    6    6    0  502  0.20779564629E+03 -0.30785834270E+03 -0.21187794740E+03  0.42760736007E+03  0.00000000000E+00 0.  1.
<mgrwt>
<rscale>  0 0.16855852E+04</rscale>
<asrwt>0</asrwt>
<pdfrwt beam="1">  1        2 0.23862922E+00 0.16855852E+04</pdfrwt>
<pdfrwt beam="2">  1       -2 0.70451638E-01 0.16855852E+04</pdfrwt>
<totfact> 0.20740893E+01</totfact>
</mgrwt>
</event>
<event>
12    1  0.1980523E-007  0.1113775E+04  0.7818608E-02  0.9191868E-01
          1   -1    0    0  501    0  0.00000000000E+00  0.00000000000E+00  0.83948263786E+03  0.83948263786E+03  0.00000000000E+00 0. -1.
         -1   -1    0    0    0  501 -0.00000000000E+00 -0.00000000000E+00 -0.36942266843E+03  0.36942266843E+03  0.00000000000E+00 0.  1.
         23    2    1    2    0    0  0.17474259430E+01  0.86425190540E+02  0.23385787559E+03  0.26559582930E+03  0.91538360866E+02 0.  0.
        254    2    1    2    0    0 -0.17474259430E+01 -0.86425190540E+02  0.23620209384E+03  0.94330947699E+03  0.90915838729E+03 0.  0.
        -24    2    4    4    0    0  0.28451571067E+03  0.19324507511E+03  0.37112160331E+03  0.51289853754E+03  0.83909574538E+02 0.  0.
         24    2    4    4    0    0 -0.28626313661E+03 -0.27967026565E+03 -0.13491950947E+03  0.43041093945E+03  0.82995553432E+02 0.  0.
         11    1    3    3    0    0 -0.38821952390E+02  0.70422498464E+02  0.17244880404E+03  0.19027627885E+03  0.00000000000E+00 0. -1.
        -11    1    3    3    0    0  0.40569378333E+02  0.16002692076E+02  0.61409071547E+02  0.75319550452E+02  0.00000000000E+00 0.  1.
          2    1    6    6  502    0 -0.11142595020E+03 -0.81923834551E+02 -0.10775978620E+02  0.13872050591E+03  0.00000000000E+00 0. -1.
          3    1    5    5  503    0  0.99153274538E+02  0.23680588454E+02  0.12373839359E+03  0.16032258783E+03  0.00000000000E+00 0. -1.
         -4    1    5    5    0  503  0.18536243613E+03  0.16956448665E+03  0.24738320972E+03  0.35257594971E+03  0.00000000000E+00 0.  1.
         -1    1    6    6    0  502 -0.17483718642E+03 -0.19774643110E+03 -0.12414353085E+03  0.29169043353E+03  0.00000000000E+00 0.  1.
<mgrwt>
<rscale>  0 0.11137754E+04</rscale>
<asrwt>0</asrwt>
<pdfrwt beam="1">  1        1 0.12915117E+00 0.11137754E+04</pdfrwt>
<pdfrwt beam="2">  1       -1 0.56834257E-01 0.11137754E+04</pdfrwt>
<totfact> 0.63783679E+01</totfact>
</mgrwt>
</event>
<event>
12    1  0.1980523E-007  0.2197105E+04  0.7818608E-02  0.8519634E-01
         -2   -1    0    0    0  501 -0.00000000000E+00  0.00000000000E+00  0.53483207535E+03  0.53483207535E+03  0.00000000000E+00 0.  1.
          2   -1    0    0  501    0  0.00000000000E+00 -0.00000000000E+00 -0.22564419688E+04  0.22564419688E+04  0.00000000000E+00 0. -1.
         23    2    1    2    0    0  0.22271665524E+03  0.88247964369E+03 -0.71031569682E+03  0.11581495552E+04  0.91591336531E+02 0.  0.
        254    2    1    2    0    0 -0.22271665524E+03 -0.88247964369E+03 -0.10112941966E+04  0.16331244889E+04  0.90333084432E+03 0.  0.
        -24    2    4    4    0    0 -0.13612433105E+03 -0.10536505487E+04 -0.91152690521E+03  0.14025840802E+04  0.87472800194E+02 0.  0.
         24    2    4    4    0    0 -0.86592324191E+02  0.17117090504E+03 -0.99767291372E+02  0.23054040874E+03  0.79985362996E+02 0.  0.
         11    1    3    3    0    0  0.11373828287E+03  0.40730215245E+03 -0.27393023512E+03  0.50385435802E+03  0.00000000000E+00 0.  1.
        -11    1    3    3    0    0  0.10897837237E+03  0.47517749125E+03 -0.43638546170E+03  0.65429519715E+03  0.00000000000E+00 0. -1.
          2    1    6    6  502    0  0.13747010483E+02  0.80132055190E+01 -0.40778415862E+01  0.16426215386E+02  0.00000000000E+00 0. -1.
          3    1    5    5  503    0  0.69666418785E+01 -0.22032058802E+03 -0.18325516779E+03  0.28665685431E+03  0.00000000000E+00 0. -1.
         -4    1    5    5    0  503 -0.14309097293E+03 -0.83332996071E+03 -0.72827173743E+03  0.11159272259E+04  0.00000000000E+00 0.  1.
         -1    1    6    6    0  502 -0.10033933467E+03  0.16315769952E+03 -0.95689449786E+02  0.21411419335E+03  0.00000000000E+00 0.  1.
<mgrwt>
<rscale>  0 0.21971050E+04</rscale>
<asrwt>0</asrwt>
<pdfrwt beam="1">  1        2 0.34714492E+00 0.21971050E+04</pdfrwt>
<pdfrwt beam="2">  1       -2 0.82281857E-01 0.21971050E+04</pdfrwt>
<totfact> 0.56907823E+00</totfact>
</mgrwt>
</event>
<event>
12    1  0.1980523E-007  0.3724809E+04  0.7818608E-02  0.8062486E-01
         -1   -1    0    0    0  501 -0.00000000000E+00  0.00000000000E+00  0.10281387762E+04  0.10281387762E+04  0.00000000000E+00 0.  1.
          1   -1    0    0  501    0  0.00000000000E+00 -0.00000000000E+00 -0.33736212673E+04  0.33736212673E+04  0.00000000000E+00 0. -1.
         23    2    1    2    0    0  0.31737565668E+03  0.10856292072E+04  0.47665095404E+03  0.12308182020E+04  0.91647320150E+02 0.  0.
        254    2    1    2    0    0 -0.31737565668E+03 -0.10856292072E+04 -0.28221334451E+04  0.31709418415E+04  0.90062028442E+03 0.  0.
        -24    2    4    4    0    0 -0.59345136155E+03 -0.87808112644E+03 -0.23596457519E+04  0.25879643255E+04  0.80126726118E+02 0.  0.
         24    2    4    4    0    0  0.27607570487E+03 -0.20754808080E+03 -0.46248769323E+03  0.58297751600E+03  0.81694045744E+02 0.  0.
         13    1    3    3    0    0  0.26209767541E+03  0.76321932705E+03  0.35853014993E+03  0.88303046439E+03  0.00000000000E+00 0. -1.
        -13    1    3    3    0    0  0.55277981275E+02  0.32240988020E+03  0.11812080411E+03  0.34778773760E+03  0.00000000000E+00 0.  1.
          4    1    6    6  502    0  0.25091662428E+03 -0.20112844564E+03 -0.38712299970E+03  0.50326535831E+03  0.00000000000E+00 0. -1.
          1    1    5    5  503    0 -0.36862710564E+03 -0.60396259756E+03 -0.16171926144E+04  0.17652106714E+04  0.00000000000E+00 0. -1.
         -2    1    5    5    0  503 -0.22482425591E+03 -0.27411852888E+03 -0.74245313746E+03  0.82275365405E+03  0.00000000000E+00 0.  1.
         -3    1    6    6    0  502  0.25159080591E+02 -0.64196351626E+01 -0.75364693534E+02  0.79712157688E+02  0.00000000000E+00 0.  1.
<mgrwt>
<rscale>  0 0.37248092E+04</rscale>
<asrwt>0</asrwt>
<pdfrwt beam="1">  1        1 0.51901865E+00 0.37248092E+04</pdfrwt>
<pdfrwt beam="2">  1       -1 0.15817520E+00 0.37248092E+04</pdfrwt>
<totfact> 0.75657739E-02</totfact>
</mgrwt>
</event>
<event>
12    1  0.1980523E-007  0.4301399E+04  0.7818608E-02  0.7946359E-01
         -2   -1    0    0    0  501 -0.00000000000E+00  0.00000000000E+00  0.24017220442E+04  0.24017220442E+04  0.00000000000E+00 0.  1.
          2   -1    0    0  501    0  0.00000000000E+00 -0.00000000000E+00 -0.19259133731E+04  0.19259133731E+04  0.00000000000E+00 0. -1.
         23    2    1    2    0    0  0.11371593682E+03 -0.79964069194E+03 -0.16738945904E+04  0.18607817567E+04  0.90714364190E+02 0.  0.
        254    2    1    2    0    0 -0.11371593682E+03  0.79964069194E+03  0.21497032614E+04  0.24668536606E+04  0.90099185366E+03 0.  0.
        -24    2    4    4    0    0 -0.14650282321E+03 -0.62579995437E+02  0.35135720700E+02  0.18168160111E+03  0.79964693921E+02 0.  0.
         24    2    4    4    0    0  0.32786886393E+02  0.86222068737E+03  0.21145675407E+04  0.22851720595E+04  0.78204627470E+02 0.  0.
         13    1    3    3    0    0  0.71762543538E+02 -0.46020015836E+03 -0.10652149931E+04  0.11625906545E+04  0.00000000000E+00 0. -1.
        -13    1    3    3    0    0  0.41953393279E+02 -0.33944053358E+03 -0.60867959729E+03  0.69819110221E+03  0.00000000000E+00 0.  1.
          4    1    6    6  502    0  0.50717389310E+02  0.79205032222E+03  0.19533518457E+04  0.21084352965E+04  0.00000000000E+00 0. -1.
          3    1    5    5  503    0 -0.70580363404E+02 -0.31900222536E+02  0.57883353841E+02  0.96693818562E+02  0.00000000000E+00 0. -1.
         -4    1    5    5    0  503 -0.75922459806E+02 -0.30679772901E+02 -0.22747633141E+02  0.84987782544E+02  0.00000000000E+00 0.  1.
         -3    1    6    6    0  502 -0.17930502917E+02  0.70170365148E+02  0.16121569503E+03  0.17673676302E+03  0.00000000000E+00 0.  1.
<mgrwt>
<rscale>  0 0.43013991E+04</rscale>
<asrwt>0</asrwt>
<pdfrwt beam="1">  1        2 0.29629437E+00 0.43013991E+04</pdfrwt>
<pdfrwt beam="2">  1       -2 0.36949570E+00 0.43013991E+04</pdfrwt>
<totfact> 0.66144692E-02</totfact>
</mgrwt>
</event>
<event>
12    1  0.1980523E-007  0.1946417E+04  0.7818608E-02  0.8632090E-01
         -2   -1    0    0    0  501 -0.00000000000E+00  0.00000000000E+00  0.80459134740E+03  0.80459134740E+03  0.00000000000E+00 0. -1.
          2   -1    0    0  501    0  0.00000000000E+00 -0.00000000000E+00 -0.11771627650E+04  0.11771627650E+04  0.00000000000E+00 0.  1.
         23    2    1    2    0    0  0.51946496131E+03  0.48083556607E+03  0.13626093242E+03  0.72697961296E+03  0.94263610874E+02 0.  0.
        254    2    1    2    0    0 -0.51946496131E+03 -0.48083556607E+03 -0.50883235004E+03  0.12547744995E+04  0.90249764344E+03 0.  0.
        -24    2    4    4    0    0 -0.62117051979E+03 -0.60841739629E+03 -0.19876650170E+03  0.89549069801E+03  0.79818076055E+02 0.  0.
         24    2    4    4    0    0  0.10170555848E+03  0.12758183023E+03 -0.31006584834E+03  0.35928380144E+03  0.79516511751E+02 0.  0.
         11    1    3    3    0    0  0.25893679637E+03  0.23130099394E+03  0.11441187343E+03  0.36556598733E+03  0.00000000000E+00 0. -1.
        -11    1    3    3    0    0  0.26052816494E+03  0.24953457213E+03  0.21849058996E+02  0.36141362563E+03  0.00000000000E+00 0.  1.
          2    1    6    6  502    0  0.61641253739E+02  0.12720568242E+03 -0.23694919631E+03  0.27590913619E+03  0.00000000000E+00 0. -1.
          1    1    5    5  503    0 -0.31858527158E+03 -0.34294775918E+03 -0.72865944067E+02  0.47372902233E+03  0.00000000000E+00 0. -1.
         -2    1    5    5    0  503 -0.30258524821E+03 -0.26546963711E+03 -0.12590055763E+03  0.42176167568E+03  0.00000000000E+00 0.  1.
         -1    1    6    6    0  502  0.40064304738E+02  0.37614781048E+00 -0.73116652032E+02  0.83374665250E+02  0.00000000000E+00 0.  1.
<mgrwt>
<rscale>  0 0.19464172E+04</rscale>
<asrwt>0</asrwt>
<pdfrwt beam="1">  1        2 0.18110196E+00 0.19464172E+04</pdfrwt>
<pdfrwt beam="2">  1       -2 0.12378329E+00 0.19464172E+04</pdfrwt>
<totfact> 0.89645294E+00</totfact>
</mgrwt>
</event>
<event>
12    1  0.1980523E-007  0.1622610E+04  0.7818608E-02  0.8806777E-01
         -1   -1    0    0    0  501 -0.00000000000E+00  0.00000000000E+00  0.38594255772E+03  0.38594255772E+03  0.00000000000E+00 0.  1.
          1   -1    0    0  501    0  0.00000000000E+00 -0.00000000000E+00 -0.17054764643E+04  0.17054764643E+04  0.00000000000E+00 0. -1.
         23    2    1    2    0    0 -0.21576247548E+03  0.34081785761E+03 -0.95929709316E+03  0.10447876975E+04  0.92844827608E+02 0.  0.
        254    2    1    2    0    0  0.21576247548E+03 -0.34081785761E+03 -0.36023681342E+03  0.10466313245E+04  0.89607829447E+03 0.  0.
        -24    2    4    4    0    0  0.15181602543E+03 -0.56723448774E+03 -0.48822795168E+03  0.76776250139E+03  0.79307352036E+02 0.  0.
         24    2    4    4    0    0  0.63946450057E+02  0.22641663013E+03  0.12799113825E+03  0.27886882313E+03  0.77668849414E+02 0.  0.
         11    1    3    3    0    0 -0.18863063783E+03  0.24496423915E+03 -0.64878913757E+03  0.71869071305E+03  0.00000000000E+00 0.  1.
        -11    1    3    3    0    0 -0.27131837656E+02  0.95853618459E+02 -0.31050795559E+03  0.32609698446E+03  0.00000000000E+00 0. -1.
          2    1    6    6  502    0  0.78388058229E+02  0.21562070326E+03  0.11493101513E+03  0.25660497576E+03  0.00000000000E+00 0. -1.
          3    1    5    5  503    0  0.13492671154E+03 -0.50583194747E+03 -0.46425421665E+03  0.69971648133E+03  0.00000000000E+00 0. -1.
         -4    1    5    5    0  503  0.16889313883E+02 -0.61402540271E+02 -0.23973735030E+02  0.68046020063E+02  0.00000000000E+00 0.  1.
         -1    1    6    6    0  502 -0.14441608172E+02  0.10795926864E+02  0.13060123126E+02  0.22263847366E+02  0.00000000000E+00 0.  1.
<mgrwt>
<rscale>  0 0.16226102E+04</rscale>
<asrwt>0</asrwt>
<pdfrwt beam="1">  1        1 0.26238099E+00 0.16226102E+04</pdfrwt>
<pdfrwt beam="2">  1       -1 0.59375779E-01 0.16226102E+04</pdfrwt>
<totfact> 0.13013106E+01</totfact>
</mgrwt>
</event>
<event>
12    1  0.1980523E-007  0.1323152E+04  0.7818608E-02  0.9011404E-01
          2   -1    0    0  501    0  0.00000000000E+00  0.00000000000E+00  0.16590820172E+04  0.16590820172E+04  0.00000000000E+00 0.  1.
         -2   -1    0    0    0  501 -0.00000000000E+00 -0.00000000000E+00 -0.26381031194E+03  0.26381031194E+03  0.00000000000E+00 0. -1.
         23    2    1    2    0    0  0.10899811937E+03 -0.27512344772E+03  0.63820323827E+03  0.70926661333E+03  0.90455812059E+02 0.  0.
        254    2    1    2    0    0 -0.10899811937E+03  0.27512344772E+03  0.75706846697E+03  0.12136257158E+04  0.90119987395E+03 0.  0.
        -24    2    4    4    0    0  0.37730527118E+03  0.23227971392E+03  0.31046383579E+03  0.54700366220E+03  0.80697459488E+02 0.  0.
         24    2    4    4    0    0 -0.48630339055E+03  0.42843733799E+02  0.44660463118E+03  0.66662205358E+03  0.81256953792E+02 0.  0.
         11    1    3    3    0    0  0.75301407636E+02 -0.13852861833E+03  0.24207021309E+03  0.28889179316E+03  0.00000000000E+00 0. -1.
        -11    1    3    3    0    0  0.33696711737E+02 -0.13659482939E+03  0.39613302518E+03  0.42037482017E+03  0.00000000000E+00 0.  1.
          4    1    6    6  502    0 -0.44127890143E+03  0.62070843058E+02  0.39497057207E+03  0.59546755680E+03  0.00000000000E+00 0. -1.
          1    1    5    5  503    0  0.28110587255E+03  0.15780613650E+03  0.26435378849E+03  0.41690072414E+03  0.00000000000E+00 0. -1.
         -2    1    5    5    0  503  0.96199398625E+02  0.74473577422E+02  0.46110047308E+02  0.13010293806E+03  0.00000000000E+00 0.  1.
         -3    1    6    6    0  502 -0.45024489120E+02 -0.19227109259E+02  0.51634059112E+02  0.71154496775E+02  0.00000000000E+00 0.  1.
<mgrwt>
<rscale>  0 0.13231522E+04</rscale>
<asrwt>0</asrwt>
<pdfrwt beam="1">  1        2 0.25524338E+00 0.13231522E+04</pdfrwt>
<pdfrwt beam="2">  1       -2 0.40586203E-01 0.13231522E+04</pdfrwt>
<totfact> 0.58122852E+01</totfact>
</mgrwt>
</event>
<event>
12    1  0.1980523E-007  0.1587852E+04  0.7818608E-02  0.8828046E-01
          1   -1    0    0  501    0  0.00000000000E+00  0.00000000000E+00  0.25215119856E+04  0.25215119856E+04  0.00000000000E+00 0. -1.
         -1   -1    0    0    0  501 -0.00000000000E+00 -0.00000000000E+00 -0.24997637133E+03  0.24997637133E+03  0.00000000000E+00 0.  1.
         23    2    1    2    0    0 -0.43964167200E+03  0.30106139137E+03  0.84719993725E+03  0.10049121610E+04  0.90432054191E+02 0.  0.
        254    2    1    2    0    0  0.43964167200E+03 -0.30106139137E+03  0.14243356770E+04  0.17665761959E+04  0.89896416736E+03 0.  0.
        -24    2    4    4    0    0  0.62954017619E+03  0.50155704567E+02  0.88843047676E+03  0.10935786981E+04  0.88143228135E+02 0.  0.
         24    2    4    4    0    0 -0.18989850418E+03 -0.35121709594E+03  0.53590520021E+03  0.67299749788E+03  0.79475519281E+02 0.  0.
         13    1    3    3    0    0 -0.34075640002E+03  0.25485762486E+03  0.60940290807E+03  0.74326256294E+03  0.00000000000E+00 0.  1.
        -13    1    3    3    0    0 -0.98885271989E+02  0.46203766504E+02  0.23779702918E+03  0.26164959802E+03  0.00000000000E+00 0. -1.
          2    1    6    6  502    0 -0.46552430274E+02 -0.16834353212E+03  0.22337419095E+03  0.28355370347E+03  0.00000000000E+00 0. -1.
          1    1    5    5  503    0  0.75862423666E+02 -0.18234731333E+02  0.84199923403E+02  0.11479215937E+03  0.00000000000E+00 0. -1.
         -2    1    5    5    0  503  0.55367775252E+03  0.68390435899E+02  0.80423055335E+03  0.97878653869E+03  0.00000000000E+00 0.  1.
         -1    1    6    6    0  502 -0.14334607391E+03 -0.18287356381E+03  0.31253100927E+03  0.38944379440E+03  0.00000000000E+00 0.  1.
<mgrwt>
<rscale>  0 0.15878519E+04</rscale>
<asrwt>0</asrwt>
<pdfrwt beam="1">  1        1 0.38792490E+00 0.15878519E+04</pdfrwt>
<pdfrwt beam="2">  1       -1 0.38457905E-01 0.15878519E+04</pdfrwt>
<totfact> 0.82456898E+00</totfact>
</mgrwt>
</event>
<event>
12    1  0.1980523E-007  0.2025148E+04  0.7818608E-02  0.8594953E-01
          2   -1    0    0  501    0  0.00000000000E+00  0.00000000000E+00  0.27568082028E+04  0.27568082028E+04  0.00000000000E+00 0. -1.
         -2   -1    0    0    0  501 -0.00000000000E+00 -0.00000000000E+00 -0.37191775377E+03  0.37191775377E+03  0.00000000000E+00 0.  1.
         23    2    1    2    0    0 -0.31187185389E+03 -0.69658461194E+03  0.54208079122E+03  0.94069786691E+03  0.92556565216E+02 0.  0.
        254    2    1    2    0    0  0.31187185389E+03  0.69658461194E+03  0.18428096578E+04  0.21880280897E+04  0.89945834336E+03 0.  0.
        -24    2    4    4    0    0  0.42891174932E+03  0.25171559753E+01  0.45780907916E+03  0.63236292513E+03  0.79511579867E+02 0.  0.
         24    2    4    4    0    0 -0.11703989543E+03  0.69406745596E+03  0.13850005787E+04  0.15556651646E+04  0.80246686887E+02 0.  0.
         11    1    3    3    0    0 -0.47234083833E+02 -0.19428317207E+03  0.11934687960E+03  0.23285336006E+03  0.00000000000E+00 0.  1.
        -11    1    3    3    0    0 -0.26463777006E+03 -0.50230143987E+03  0.42273391162E+03  0.70784450685E+03  0.00000000000E+00 0. -1.
          2    1    6    6  502    0 -0.12682087137E+03  0.56946174150E+03  0.11356694545E+04  0.12767596948E+04  0.00000000000E+00 0. -1.
          1    1    5    5  503    0  0.36254071378E+03  0.30371287280E+02  0.37136836985E+03  0.51987753401E+03  0.00000000000E+00 0. -1.
         -2    1    5    5    0  503  0.66371035544E+02 -0.27854131304E+02  0.86440709310E+02  0.11248539112E+03  0.00000000000E+00 0.  1.
         -1    1    6    6    0  502  0.97809759389E+01  0.12460571446E+03  0.24933112416E+03  0.27890546973E+03  0.00000000000E+00 0.  1.
<mgrwt>
<rscale>  0 0.20251478E+04</rscale>
<asrwt>0</asrwt>
<pdfrwt beam="1">  1        2 0.42412433E+00 0.20251478E+04</pdfrwt>
<pdfrwt beam="2">  1       -2 0.57218118E-01 0.20251478E+04</pdfrwt>
<totfact> 0.65246876E+00</totfact>
</mgrwt>
</event>
<event>
12    1  0.1980523E-007  0.1797453E+04  0.7818608E-02  0.8707655E-01
          2   -1    0    0  501    0  0.00000000000E+00  0.00000000000E+00  0.59708133288E+03  0.59708133288E+03  0.00000000000E+00 0. -1.
         -2   -1    0    0    0  501 -0.00000000000E+00 -0.00000000000E+00 -0.13527619885E+04  0.13527619885E+04  0.00000000000E+00 0.  1.
         23    2    1    2    0    0 -0.66033355065E+03  0.84867702882E+02 -0.35575141677E+03  0.76052692508E+03  0.92731915373E+02 0.  0.
        254    2    1    2    0    0  0.66033355065E+03 -0.84867702882E+02 -0.39992923882E+03  0.11893163963E+04  0.90071481018E+03 0.  0.
        -24    2    4    4    0    0  0.20611679481E+03  0.39367194999E+03 -0.11502206006E+03  0.46600583170E+03  0.80433970192E+02 0.  0.
         24    2    4    4    0    0  0.45421675584E+03 -0.47853965288E+03 -0.28490717876E+03  0.72331056457E+03  0.81810828472E+02 0.  0.
         13    1    3    3    0    0 -0.94566107851E+02 -0.16992647577E+02 -0.67669337052E+02  0.11751867087E+03  0.00000000000E+00 0.  1.
        -13    1    3    3    0    0 -0.56576744280E+03  0.10186035046E+03 -0.28808207972E+03  0.64300825421E+03  0.00000000000E+00 0. -1.
          4    1    6    6  502    0  0.25969515197E+03 -0.21512565377E+03 -0.13668085676E+03  0.36387123474E+03  0.00000000000E+00 0. -1.
          1    1    5    5  503    0  0.19935668724E+03  0.38506696751E+03 -0.12492295469E+03  0.45124871503E+03  0.00000000000E+00 0. -1.
         -2    1    5    5    0  503  0.67601075676E+01  0.86049824879E+01  0.99008946215E+01  0.14757116664E+02  0.00000000000E+00 0.  1.
         -3    1    6    6    0  502  0.19452160387E+03 -0.26341399911E+03 -0.14822632200E+03  0.35943932983E+03  0.00000000000E+00 0.  1.
<mgrwt>
<rscale>  0 0.17974526E+04</rscale>
<asrwt>0</asrwt>
<pdfrwt beam="1">  1        2 0.91858668E-01 0.17974526E+04</pdfrwt>
<pdfrwt beam="2">  1       -2 0.20811723E+00 0.17974526E+04</pdfrwt>
<totfact> 0.55429660E+00</totfact>
</mgrwt>
</event>
<event>
12    1  0.2166826E-007  0.2809179E+04  0.7818608E-02  0.8300424E-01
         -3   -1    0    0    0  501 -0.00000000000E+00  0.00000000000E+00  0.12002358023E+04  0.12002358023E+04  0.00000000000E+00 0.  1.
          3   -1    0    0  501    0  0.00000000000E+00 -0.00000000000E+00 -0.16437368469E+04  0.16437368469E+04  0.00000000000E+00 0. -1.
         23    2    1    2    0    0 -0.97155379092E+03 -0.68925493262E+03  0.21913831875E+03  0.12146231633E+04  0.91097174913E+02 0.  0.
        254    2    1    2    0    0  0.97155379092E+03  0.68925493262E+03 -0.66263936335E+03  0.16293494860E+04  0.89258035534E+03 0.  0.
        -24    2    4    4    0    0  0.68926217932E+02  0.12835984591E+02 -0.46983010343E+03  0.48224494485E+03  0.83091965490E+02 0.  0.
         24    2    4    4    0    0  0.90262757298E+03  0.67641894803E+03 -0.19280925992E+03  0.11471045411E+04  0.79964296734E+02 0.  0.
         11    1    3    3    0    0 -0.29810392703E+03 -0.18441556504E+03  0.28876376162E+02  0.35172275593E+03  0.00000000000E+00 0. -1.
        -11    1    3    3    0    0 -0.67344986389E+03 -0.50483936758E+03  0.19026194258E+03  0.86290040736E+03  0.00000000000E+00 0.  1.
          4    1    6    6  502    0  0.89560069712E+03  0.65917118034E+03 -0.18737916162E+03  0.11277048390E+04  0.00000000000E+00 0. -1.
          3    1    5    5  503    0  0.23018123422E+02  0.21085400561E+02 -0.37762972203E+03  0.37891771546E+03  0.00000000000E+00 0. -1.
         -4    1    5    5    0  503  0.45908094510E+02 -0.82494159700E+01 -0.92200381391E+02  0.10332722939E+03  0.00000000000E+00 0.  1.
         -3    1    6    6    0  502  0.70268758621E+01  0.17247767686E+02 -0.54300982978E+01  0.19399702112E+02  0.00000000000E+00 0.  1.
<mgrwt>
<rscale>  0 0.28091791E+04</rscale>
<asrwt>0</asrwt>
<pdfrwt beam="1">  1        3 0.25288259E+00 0.28091791E+04</pdfrwt>
<pdfrwt beam="2">  1       -3 0.18465166E+00 0.28091791E+04</pdfrwt>
<totfact> 0.29565097E-02</totfact>
</mgrwt>
</event>
<event>
12    1  0.1980523E-007  0.1134033E+04  0.7818608E-02  0.9172641E-01
          2   -1    0    0  501    0  0.00000000000E+00  0.00000000000E+00  0.19047956101E+04  0.19047956101E+04  0.00000000000E+00 0.  1.
         -2   -1    0    0    0  501 -0.00000000000E+00 -0.00000000000E+00 -0.16878868983E+03  0.16878868983E+03  0.00000000000E+00 0. -1.
         23    2    1    2    0    0 -0.18586924130E+03  0.63642774503E+02  0.37161054446E+03  0.43012188671E+03  0.91173806926E+02 0.  0.
        254    2    1    2    0    0  0.18586924130E+03 -0.63642774503E+02  0.13643963759E+04  0.16434624133E+04  0.89487063632E+03 0.  0.
        -24    2    4    4    0    0 -0.17152355974E+03 -0.11561322626E+03  0.12297796468E+04  0.12494976884E+04  0.78100858131E+02 0.  0.
         24    2    4    4    0    0  0.35739280104E+03  0.51970451760E+02  0.13461672905E+03  0.39396472484E+03  0.81584303572E+02 0.  0.
         11    1    3    3    0    0 -0.17956005914E+03  0.71705392209E+02  0.29426262710E+03  0.35209937775E+03  0.00000000000E+00 0. -1.
        -11    1    3    3    0    0 -0.63091821587E+01 -0.80626177060E+01  0.77347917361E+02  0.78022508957E+02  0.00000000000E+00 0.  1.
          4    1    6    6  502    0  0.21033976738E+03  0.42438182569E+02  0.38438310562E+02  0.21799385496E+03  0.00000000000E+00 0. -1.
          3    1    5    5  503    0 -0.16931075206E+02 -0.11539657065E+02  0.32925449616E+03  0.32989141886E+03  0.00000000000E+00 0. -1.
         -4    1    5    5    0  503 -0.15459248454E+03 -0.10407356920E+03  0.90052515064E+03  0.91960626956E+03  0.00000000000E+00 0.  1.
         -3    1    6    6    0  502  0.14705303366E+03  0.95322691912E+01  0.96178418492E+02  0.17597086989E+03  0.00000000000E+00 0.  1.
<mgrwt>
<rscale>  0 0.11340334E+04</rscale>
<asrwt>0</asrwt>
<pdfrwt beam="1">  1        2 0.29304546E+00 0.11340334E+04</pdfrwt>
<pdfrwt beam="2">  1       -2 0.25967492E-01 0.11340334E+04</pdfrwt>
<totfact> 0.10022250E+02</totfact>
</mgrwt>
</event>
<event>
12    1  0.1980523E-007  0.2217377E+04  0.7818608E-02  0.8511230E-01
         -2   -1    0    0    0  501 -0.00000000000E+00  0.00000000000E+00  0.58947761080E+03  0.58947761080E+03  0.00000000000E+00 0.  1.
          2   -1    0    0  501    0  0.00000000000E+00 -0.00000000000E+00 -0.20852189872E+04  0.20852189872E+04  0.00000000000E+00 0. -1.
         23    2    1    2    0    0  0.37181216835E+03 -0.59195888970E+03 -0.13525419524E+04  0.15253326391E+04  0.92791762560E+02 0.  0.
        254    2    1    2    0    0 -0.37181216835E+03  0.59195888970E+03 -0.14319942400E+03  0.11493639589E+04  0.90103929960E+03 0.  0.
        -24    2    4    4    0    0  0.21665434234E+03 -0.60697203876E+02 -0.11284644088E+03  0.26640926513E+03  0.87271545846E+02 0.  0.
         24    2    4    4    0    0 -0.58846651069E+03  0.65265609358E+03 -0.30352983121E+02  0.88295469380E+03  0.80217685342E+02 0.  0.
         11    1    3    3    0    0  0.16794367441E+03 -0.34160970427E+03 -0.67951790414E+03  0.77887537506E+03  0.00000000000E+00 0. -1.
        -11    1    3    3    0    0  0.20386849394E+03 -0.25034918543E+03 -0.67302404828E+03  0.74645726403E+03  0.00000000000E+00 0.  1.
          2    1    6    6  502    0 -0.21102206674E+03  0.19496571512E+03 -0.36958593454E+02  0.28966856984E+03  0.00000000000E+00 0. -1.
          3    1    5    5  503    0  0.14808704163E+03 -0.69323086849E+01 -0.98790571491E+02  0.17814995318E+03  0.00000000000E+00 0. -1.
         -4    1    5    5    0  503  0.68567300711E+02 -0.53764895191E+02 -0.14055869390E+02  0.88259311951E+02  0.00000000000E+00 0.  1.
         -1    1    6    6    0  502 -0.37744444395E+03  0.45769037846E+03  0.66056103337E+01  0.59328612397E+03  0.00000000000E+00 0.  1.
<mgrwt>
<rscale>  0 0.22173767E+04</rscale>
<asrwt>0</asrwt>
<pdfrwt beam="1">  1        2 0.32080292E+00 0.22173767E+04</pdfrwt>
<pdfrwt beam="2">  1       -2 0.90688863E-01 0.22173767E+04</pdfrwt>
<totfact> 0.56750853E+00</totfact>
</mgrwt>
</event>
<event>
12    1  0.1980523E-007  0.1492493E+04  0.7818608E-02  0.8889461E-01
         -2   -1    0    0    0  501 -0.00000000000E+00  0.00000000000E+00  0.20589679516E+03  0.20589679516E+03  0.00000000000E+00 0.  1.
          2   -1    0    0  501    0  0.00000000000E+00 -0.00000000000E+00 -0.27046736680E+04  0.27046736680E+04  0.00000000000E+00 0. -1.
         23    2    1    2    0    0 -0.28128398867E+03 -0.35061059496E+03 -0.10572607904E+04  0.11527877438E+04  0.95240388524E+02 0.  0.
        254    2    1    2    0    0  0.28128398867E+03  0.35061059496E+03 -0.14415160824E+04  0.17577827194E+04  0.89987943703E+03 0.  0.
        -24    2    4    4    0    0  0.20615304535E+03  0.14941374760E+03 -0.14979522171E+04  0.15215747510E+04  0.80655639450E+02 0.  0.
         24    2    4    4    0    0  0.75130943312E+02  0.20119684735E+03  0.56436134700E+02  0.23620796837E+03  0.80525381045E+02 0.  0.
         11    1    3    3    0    0 -0.10899845655E+03 -0.15218260276E+03 -0.55848099016E+03  0.58901716824E+03  0.00000000000E+00 0. -1.
        -11    1    3    3    0    0 -0.17228553212E+03 -0.19842799219E+03 -0.49877980029E+03  0.56377057553E+03  0.00000000000E+00 0.  1.
          4    1    6    6  502    0  0.89001346125E+02  0.13554962097E+03  0.36530859274E+02  0.16622106676E+03  0.00000000000E+00 0. -1.
          1    1    5    5  503    0  0.13739373875E+03  0.91701885697E+02 -0.11682360500E+04  0.11798566624E+04  0.00000000000E+00 0. -1.
         -2    1    5    5    0  503  0.68759306602E+02  0.57711861906E+02 -0.32971616703E+03  0.34171808856E+03  0.00000000000E+00 0.  1.
         -3    1    6    6    0  502 -0.13870402814E+02  0.65647226386E+02  0.19905275426E+02  0.69986901604E+02  0.00000000000E+00 0.  1.
<mgrwt>
<rscale>  0 0.14924927E+04</rscale>
<asrwt>0</asrwt>
<pdfrwt beam="1">  1        2 0.41610363E+00 0.14924927E+04</pdfrwt>
<pdfrwt beam="2">  1       -2 0.31676431E-01 0.14924927E+04</pdfrwt>
<totfact> 0.23725592E+01</totfact>
</mgrwt>
</event>
<event>
12    1  0.1980523E-007  0.2674574E+04  0.7818608E-02  0.8343302E-01
          2   -1    0    0  501    0  0.00000000000E+00  0.00000000000E+00  0.17758857644E+04  0.17758857644E+04  0.00000000000E+00 0. -1.
         -2   -1    0    0    0  501 -0.00000000000E+00 -0.00000000000E+00 -0.10070109303E+04  0.10070109303E+04  0.00000000000E+00 0.  1.
         23    2    1    2    0    0 -0.10895731206E+04  0.45957078191E+03  0.29747250376E+03  0.12228709508E+04  0.92458548353E+02 0.  0.
        254    2    1    2    0    0  0.10895731206E+04 -0.45957078191E+03  0.47140233039E+03  0.15600257439E+04  0.90171241312E+03 0.  0.
        -24    2    4    4    0    0  0.28616127638E+03 -0.24090162573E+03 -0.24904334302E+03  0.45667966993E+03  0.81313374400E+02 0.  0.
         24    2    4    4    0    0  0.80341184418E+03 -0.21866915618E+03  0.72044567340E+03  0.11033460740E+04  0.71019711441E+02 0.  0.
         13    1    3    3    0    0 -0.13877740013E+03  0.30118118778E+02  0.20792480020E+02  0.14352210663E+03  0.00000000000E+00 0.  1.
        -13    1    3    3    0    0 -0.95079572042E+03  0.42945266313E+03  0.27668002374E+03  0.10793488442E+04  0.00000000000E+00 0. -1.
          4    1    6    6  502    0  0.76622585395E+03 -0.21239536832E+03  0.70477856445E+03  0.10625096125E+04  0.00000000000E+00 0. -1.
          3    1    5    5  503    0  0.25592150652E+03 -0.19173859471E+03 -0.18099281086E+03  0.36744782458E+03  0.00000000000E+00 0. -1.
         -4    1    5    5    0  503  0.30239769851E+02 -0.49163031021E+02 -0.68050532152E+02  0.89231845358E+02  0.00000000000E+00 0.  1.
         -3    1    6    6    0  502  0.37185990229E+02 -0.62737878642E+01  0.15667108952E+02  0.40836461482E+02  0.00000000000E+00 0.  1.
<mgrwt>
<rscale>  0 0.26745739E+04</rscale>
<asrwt>0</asrwt>
<pdfrwt beam="1">  1        2 0.27321319E+00 0.26745739E+04</pdfrwt>
<pdfrwt beam="2">  1       -2 0.15492476E+00 0.26745739E+04</pdfrwt>
<totfact> 0.21508251E+00</totfact>
</mgrwt>
</event>
<event>
12    1  0.1980523E-007  0.3175551E+04  0.7818608E-02  0.8195304E-01
         -1   -1    0    0    0  501 -0.00000000000E+00  0.00000000000E+00  0.95614856182E+03  0.95614856182E+03  0.00000000000E+00 0.  1.
          1   -1    0    0  501    0  0.00000000000E+00 -0.00000000000E+00 -0.26366522447E+04  0.26366522447E+04  0.00000000000E+00 0. -1.
         23    2    1    2    0    0  0.31469178431E+03 -0.86608414222E+03 -0.20595859521E+04  0.22580277158E+04  0.87534054010E+02 0.  0.
        254    2    1    2    0    0 -0.31469178431E+03  0.86608414222E+03  0.37908226929E+03  0.13347730907E+04  0.88813466109E+03 0.  0.
        -24    2    4    4    0    0 -0.42827131252E+03  0.28684920782E+03 -0.14443777653E+03  0.54165733622E+03  0.82653574849E+02 0.  0.
         24    2    4    4    0    0  0.11357952822E+03  0.57923493439E+03  0.52352004582E+03  0.79311575447E+03  0.80907003159E+02 0.  0.
         11    1    3    3    0    0  0.23420749382E+03 -0.57128346655E+03 -0.14555726154E+04  0.15811102391E+04  0.00000000000E+00 0. -1.
        -11    1    3    3    0    0  0.80484290481E+02 -0.29480067566E+03 -0.60401333669E+03  0.67691747672E+03  0.00000000000E+00 0.  1.
          2    1    6    6  502    0  0.83153441038E+02  0.26899763710E+03  0.21230154550E+03  0.35262752267E+03  0.00000000000E+00 0. -1.
          3    1    5    5  503    0 -0.22403020651E+03  0.13233001345E+03 -0.32713967124E+02  0.26224219633E+03  0.00000000000E+00 0. -1.
         -4    1    5    5    0  503 -0.20424110601E+03  0.15451919438E+03 -0.11172380940E+03  0.27941513989E+03  0.00000000000E+00 0.  1.
         -1    1    6    6    0  502  0.30426087178E+02  0.31023729729E+03  0.31121850032E+03  0.44048823180E+03  0.00000000000E+00 0.  1.
<mgrwt>
<rscale>  0 0.31755511E+04</rscale>
<asrwt>0</asrwt>
<pdfrwt beam="1">  1        1 0.40563881E+00 0.31755511E+04</pdfrwt>
<pdfrwt beam="2">  1       -1 0.14709978E+00 0.31755511E+04</pdfrwt>
<totfact> 0.33511502E-01</totfact>
</mgrwt>
</event>
<event>
12    1  0.2863544E-007  0.3733128E+04  0.7818608E-02  0.8060660E-01
          2   -1    0    0  501    0  0.00000000000E+00  0.00000000000E+00  0.15253203385E+04  0.15253203385E+04  0.00000000000E+00 0.  1.
         -2   -1    0    0    0  501 -0.00000000000E+00 -0.00000000000E+00 -0.22841499875E+04  0.22841499875E+04  0.00000000000E+00 0. -1.
         23    2    1    2    0    0  0.16996199183E+04  0.22261668928E+03 -0.75064122271E+03  0.18734756985E+04  0.90459331166E+02 0.  0.
        254    2    1    2    0    0 -0.16996199183E+04 -0.22261668928E+03 -0.81884263251E+01  0.19359946274E+04  0.89985670536E+03 0.  0.
        -24    2    4    4    0    0 -0.15558570775E+04 -0.15706557416E+03 -0.29939557785E+03  0.15941451318E+04  0.79373478891E+02 0.  0.
         24    2    4    4    0    0 -0.14376284079E+03 -0.65551115120E+02  0.29120715153E+03  0.34184949561E+03  0.84230454452E+02 0.  0.
         11    1    3    3    0    0  0.88786932784E+03  0.16063085354E+03 -0.38327308554E+03  0.98031243618E+03  0.00000000000E+00 0. -1.
        -11    1    3    3    0    0  0.81175059045E+03  0.61985835740E+02 -0.36736813717E+03  0.89316326231E+03  0.00000000000E+00 0.  1.
          2    1    6    6  502    0  0.10990658615E+02 -0.23246598106E+00  0.20537578015E+02  0.23294650200E+02  0.00000000000E+00 0. -1.
          3    1    5    5  503    0 -0.11646756977E+03  0.39998687275E+01 -0.84760020518E+01  0.11684406861E+03  0.00000000000E+00 0. -1.
         -4    1    5    5    0  503 -0.14393895077E+04 -0.16106544289E+03 -0.29091957580E+03  0.14773010632E+04  0.00000000000E+00 0.  1.
         -1    1    6    6    0  502 -0.15475349941E+03 -0.65318649139E+02  0.27066957352E+03  0.31855484541E+03  0.00000000000E+00 0.  1.
<mgrwt>
<rscale>  0 0.37331276E+04</rscale>
<asrwt>0</asrwt>
<pdfrwt beam="1">  1        2 0.23466467E+00 0.37331276E+04</pdfrwt>
<pdfrwt beam="2">  1       -2 0.35140769E+00 0.37331276E+04</pdfrwt>
<totfact> 0.15088890E-01</totfact>
</mgrwt>
</event>
<event>
12    1  0.1980523E-007  0.2670012E+04  0.7818608E-02  0.8344801E-01
         -2   -1    0    0    0  501 -0.00000000000E+00  0.00000000000E+00  0.63320393335E+03  0.63320393335E+03  0.00000000000E+00 0.  1.
          2   -1    0    0  501    0  0.00000000000E+00 -0.00000000000E+00 -0.28146393579E+04  0.28146393579E+04  0.00000000000E+00 0. -1.
         23    2    1    2    0    0  0.11461373685E+04 -0.25490261676E+03 -0.79524295804E+03  0.14205874992E+04  0.83971834492E+02 0.  0.
        254    2    1    2    0    0 -0.11461373685E+04  0.25490261676E+03 -0.13861924666E+04  0.20272557921E+04  0.89979457700E+03 0.  0.
        -24    2    4    4    0    0 -0.13181147112E+03  0.37979371360E+03 -0.18822940054E+03  0.45072899315E+03  0.78158743795E+02 0.  0.
         24    2    4    4    0    0 -0.10143258974E+04 -0.12489109684E+03 -0.11979630660E+04  0.15765267990E+04  0.76592611404E+02 0.  0.
         13    1    3    3    0    0  0.55956962769E+03 -0.96368652911E+02 -0.34585229130E+03  0.66484501419E+03  0.00000000000E+00 0.  1.
        -13    1    3    3    0    0  0.58656774082E+03 -0.15853396385E+03 -0.44939066674E+03  0.75574248499E+03  0.00000000000E+00 0. -1.
          2    1    6    6  502    0 -0.77466292324E+03 -0.62513318604E+02 -0.91299156766E+03  0.11989846380E+04  0.00000000000E+00 0. -1.
          3    1    5    5  503    0 -0.45622824127E+02  0.14771634838E+03 -0.31663479671E+02  0.15781044834E+03  0.00000000000E+00 0. -1.
         -4    1    5    5    0  503 -0.86188646997E+02  0.23207736522E+03 -0.15656592087E+03  0.29291854481E+03  0.00000000000E+00 0.  1.
         -1    1    6    6    0  502 -0.23966297415E+03 -0.62377778236E+02 -0.28497149836E+03  0.37754216092E+03  0.00000000000E+00 0.  1.
<mgrwt>
<rscale>  0 0.26700118E+04</rscale>
<asrwt>0</asrwt>
<pdfrwt beam="1">  1        2 0.43302143E+00 0.26700118E+04</pdfrwt>
<pdfrwt beam="2">  1       -2 0.97415992E-01 0.26700118E+04</pdfrwt>
<totfact> 0.17502955E+00</totfact>
</mgrwt>
</event>
<event>
12    1  0.1980523E-007  0.4367564E+04  0.7818608E-02  0.7934242E-01
          2   -1    0    0  501    0  0.00000000000E+00  0.00000000000E+00  0.26140496044E+04  0.26140496044E+04  0.00000000000E+00 0. -1.
         -2   -1    0    0    0  501 -0.00000000000E+00 -0.00000000000E+00 -0.18243354146E+04  0.18243354146E+04  0.00000000000E+00 0.  1.
         23    2    1    2    0    0 -0.18368220048E+04  0.71929967895E+03  0.10817692478E+04  0.22518889209E+04  0.97323692904E+02 0.  0.
        254    2    1    2    0    0  0.18368220048E+04 -0.71929967895E+03 -0.29205505799E+03  0.21864960981E+04  0.89675075951E+03 0.  0.
        -24    2    4    4    0    0  0.20601201674E+03 -0.27938829088E+03 -0.34282782126E+03  0.49471033754E+03  0.81906256901E+02 0.  0.
         24    2    4    4    0    0  0.16308099880E+04 -0.43991138807E+03  0.50772763275E+02  0.16917857605E+04  0.80609798748E+02 0.  0.
         11    1    3    3    0    0 -0.79757518631E+03  0.34314406309E+03  0.43172464382E+03  0.96967014697E+03  0.00000000000E+00 0.  1.
        -11    1    3    3    0    0 -0.10392468185E+04  0.37615561586E+03  0.65004460397E+03  0.12822187739E+04  0.00000000000E+00 0. -1.
          4    1    6    6  502    0  0.16312558614E+04 -0.43796430230E+03  0.50675557877E+02  0.16897859118E+04  0.00000000000E+00 0. -1.
          3    1    5    5  503    0  0.88499329211E+02 -0.18765052289E+03 -0.20548071374E+03  0.29200543442E+03  0.00000000000E+00 0. -1.
         -4    1    5    5    0  503  0.11751268753E+03 -0.91737767992E+02 -0.13734710752E+03  0.20270490312E+03  0.00000000000E+00 0.  1.
         -3    1    6    6    0  502 -0.44587340042E+00 -0.19470857740E+01  0.97205398019E-01  0.19998487417E+01  0.00000000000E+00 0.  1.
<mgrwt>
<rscale>  0 0.43675637E+04</rscale>
<asrwt>0</asrwt>
<pdfrwt beam="1">  1        2 0.40216148E+00 0.43675637E+04</pdfrwt>
<pdfrwt beam="2">  1       -2 0.28066699E+00 0.43675637E+04</pdfrwt>
<totfact> 0.95396686E-02</totfact>
</mgrwt>
</event>
<event>
12    1  0.1980523E-007  0.1356378E+04  0.7818608E-02  0.8986014E-01
         -2   -1    0    0    0  501 -0.00000000000E+00  0.00000000000E+00  0.22838716446E+03  0.22838716446E+03  0.00000000000E+00 0.  1.
          2   -1    0    0  501    0  0.00000000000E+00 -0.00000000000E+00 -0.20138621637E+04  0.20138621637E+04  0.00000000000E+00 0. -1.
         23    2    1    2    0    0  0.15080470306E+03 -0.33925609742E+03 -0.56723337399E+03  0.68411150435E+03  0.91750159196E+02 0.  0.
        254    2    1    2    0    0 -0.15080470306E+03  0.33925609742E+03 -0.12182416252E+04  0.15581378238E+04  0.89768817660E+03 0.  0.
        -24    2    4    4    0    0  0.30100355635E+02 -0.26032453643E+03 -0.66181312173E+03  0.71654736248E+03  0.82271616591E+02 0.  0.
         24    2    4    4    0    0 -0.18090505869E+03  0.59958063386E+03 -0.55642850351E+03  0.84159046133E+03  0.80238695936E+02 0.  0.
         13    1    3    3    0    0  0.14684654623E+03 -0.25342694437E+03 -0.47511528485E+03  0.55814304454E+03  0.00000000000E+00 0. -1.
        -13    1    3    3    0    0  0.39581568248E+01 -0.85829153054E+02 -0.92118089139E+02  0.12596845981E+03  0.00000000000E+00 0.  1.
          4    1    6    6  502    0 -0.63958305450E+02  0.27947281884E+03 -0.30103224395E+03  0.41571159859E+03  0.00000000000E+00 0. -1.
          1    1    5    5  503    0  0.41264192267E+02 -0.10969867702E+03 -0.21462847253E+03  0.24454429972E+03  0.00000000000E+00 0. -1.
         -2    1    5    5    0  503 -0.11163836632E+02 -0.15062585941E+03 -0.44718464920E+03  0.47200306275E+03  0.00000000000E+00 0.  1.
         -3    1    6    6    0  502 -0.11694675324E+03  0.32010781502E+03 -0.25539625956E+03  0.42587886274E+03  0.00000000000E+00 0.  1.
<mgrwt>
<rscale>  0 0.13563779E+04</rscale>
<asrwt>0</asrwt>
<pdfrwt beam="1">  1        2 0.30982495E+00 0.13563779E+04</pdfrwt>
<pdfrwt beam="2">  1       -2 0.35136486E-01 0.13563779E+04</pdfrwt>
<totfact> 0.48765620E+01</totfact>
</mgrwt>
</event>
<event>
12    1  0.1980523E-007  0.1849136E+04  0.7818608E-02  0.8680597E-01
         -1   -1    0    0    0  501 -0.00000000000E+00  0.00000000000E+00  0.50582225473E+03  0.50582225473E+03  0.00000000000E+00 0.  1.
          1   -1    0    0  501    0  0.00000000000E+00 -0.00000000000E+00 -0.16899724457E+04  0.16899724457E+04  0.00000000000E+00 0. -1.
         23    2    1    2    0    0 -0.68814887017E+03 -0.26474917684E+02 -0.30592536492E+03  0.76263264400E+03  0.11733896203E+03 0.  0.
        254    2    1    2    0    0  0.68814887017E+03  0.26474917684E+02 -0.87822482604E+03  0.14331620564E+04  0.89912448865E+03 0.  0.
        -24    2    4    4    0    0  0.22994407483E+03  0.28919251544E+03  0.30225584190E+02  0.37926456978E+03  0.80133884353E+02 0.  0.
         24    2    4    4    0    0  0.45820479534E+03 -0.26271759775E+03 -0.90845041023E+03  0.10538974866E+04  0.80284455785E+02 0.  0.
         11    1    3    3    0    0 -0.44557072019E+03 -0.37314247744E+02 -0.25429304959E+03  0.51438368446E+03  0.00000000000E+00 0. -1.
        -11    1    3    3    0    0 -0.24257814998E+03  0.10839330060E+02 -0.51632315334E+02  0.24824895953E+03  0.00000000000E+00 0.  1.
          2    1    6    6  502    0  0.43034963216E+03 -0.22039523468E+03 -0.82738339868E+03  0.95829961588E+03  0.00000000000E+00 0. -1.
          1    1    5    5  503    0  0.62415023272E+01  0.46149376560E+02  0.13640809671E+02  0.48526209378E+02  0.00000000000E+00 0. -1.
         -2    1    5    5    0  503  0.22370257250E+03  0.24304313888E+03  0.16584774519E+02  0.33073836040E+03  0.00000000000E+00 0.  1.
         -1    1    6    6    0  502  0.27855163176E+02 -0.42322363077E+02 -0.81067011547E+02  0.95597870756E+02  0.00000000000E+00 0.  1.
<mgrwt>
<rscale>  0 0.18491357E+04</rscale>
<asrwt>0</asrwt>
<pdfrwt beam="1">  1        1 0.25999575E+00 0.18491357E+04</pdfrwt>
<pdfrwt beam="2">  1       -1 0.77818810E-01 0.18491357E+04</pdfrwt>
<totfact> 0.75256011E+00</totfact>
</mgrwt>
</event>
<event>
12    1  0.1980523E-007  0.1339794E+04  0.7818608E-02  0.8998590E-01
          2   -1    0    0  501    0  0.00000000000E+00  0.00000000000E+00  0.20621370862E+04  0.20621370862E+04  0.00000000000E+00 0.  1.
         -2   -1    0    0    0  501 -0.00000000000E+00 -0.00000000000E+00 -0.21761999751E+03  0.21761999751E+03  0.00000000000E+00 0. -1.
         23    2    1    2    0    0  0.23785215784E+03 -0.10795209083E+03  0.92873693654E+03  0.96921166829E+03  0.92691195630E+02 0.  0.
        254    2    1    2    0    0 -0.23785215784E+03  0.10795209083E+03  0.91578015215E+03  0.13105454154E+04  0.90036031449E+03 0.  0.
        -24    2    4    4    0    0 -0.25547696063E+03  0.37128123979E+03  0.12607210027E+03  0.47419974489E+03  0.76504817819E+02 0.  0.
         24    2    4    4    0    0  0.17624802792E+02 -0.26332914897E+03  0.78970805188E+03  0.83634567053E+03  0.78628233120E+02 0.  0.
         13    1    3    3    0    0  0.20806642493E+03 -0.11992317350E+03  0.86676319260E+03  0.89941738740E+03  0.00000000000E+00 0.  1.
        -13    1    3    3    0    0  0.29785732913E+02  0.11971082676E+02  0.61973743942E+02  0.69794280881E+02  0.00000000000E+00 0. -1.
          4    1    6    6  502    0 -0.20391317765E+02 -0.20256530166E+03  0.57322434825E+03  0.60830474329E+03  0.00000000000E+00 0. -1.
          3    1    5    5  503    0 -0.10646975957E+03  0.21521896675E+03  0.83843651116E+02  0.25433200975E+03  0.00000000000E+00 0. -1.
         -4    1    5    5    0  503 -0.14900720107E+03  0.15606227305E+03  0.42228449153E+02  0.21986773514E+03  0.00000000000E+00 0.  1.
         -3    1    6    6    0  502  0.38016120558E+02 -0.60763847302E+02  0.21648370363E+03  0.22804092724E+03  0.00000000000E+00 0.  1.
<mgrwt>
<rscale>  0 0.13397944E+04</rscale>
<asrwt>0</asrwt>
<pdfrwt beam="1">  1        2 0.31725185E+00 0.13397944E+04</pdfrwt>
<pdfrwt beam="2">  1       -2 0.33480001E-01 0.13397944E+04</pdfrwt>
<totfact> 0.50335276E+01</totfact>
</mgrwt>
</event>
<event>
12    1  0.1980523E-007  0.3937221E+04  0.7818608E-02  0.8017332E-01
         -1   -1    0    0    0  501 -0.00000000000E+00  0.00000000000E+00  0.18295947638E+04  0.18295947638E+04  0.00000000000E+00 0.  1.
          1   -1    0    0  501    0  0.00000000000E+00 -0.00000000000E+00 -0.21181885892E+04  0.21181885892E+04  0.00000000000E+00 0. -1.
         23    2    1    2    0    0 -0.12686943326E+04  0.13431227917E+04 -0.39166202301E+03  0.18909041596E+04  0.92494633874E+02 0.  0.
        254    2    1    2    0    0  0.12686943326E+04 -0.13431227917E+04  0.10306819762E+03  0.20568791934E+04  0.89808953870E+03 0.  0.
        -24    2    4    4    0    0  0.67561373193E+02  0.42207724537E+02  0.18991492340E+03  0.21968543696E+03  0.76472099008E+02 0.  0.
         24    2    4    4    0    0  0.12011329594E+04 -0.13853305163E+04 -0.86846725772E+02  0.18371937564E+04  0.76664981131E+02 0.  0.
         13    1    3    3    0    0 -0.10104420566E+03  0.12587463938E+03 -0.11307602454E+02  0.16180920311E+03  0.00000000000E+00 0.  1.
        -13    1    3    3    0    0 -0.11676501270E+04  0.12172481523E+04 -0.38035442056E+03  0.17290949565E+04  0.00000000000E+00 0. -1.
          4    1    6    6  502    0  0.55502333696E+02 -0.88038897210E+02 -0.13048069733E+02  0.10488855319E+03  0.00000000000E+00 0. -1.
          3    1    5    5  503    0  0.44987966309E+02  0.41300922836E+02  0.52828103396E+02  0.80749562526E+02  0.00000000000E+00 0. -1.
         -2    1    5    5    0  503  0.22573406884E+02  0.90680170025E+00  0.13708682000E+03  0.13893587444E+03  0.00000000000E+00 0.  1.
         -3    1    6    6    0  502  0.11456306258E+04 -0.12972916191E+04 -0.73798656039E+02  0.17323052032E+04  0.00000000000E+00 0.  1.
<mgrwt>
<rscale>  0 0.39372207E+04</rscale>
<asrwt>0</asrwt>
<pdfrwt beam="1">  1        1 0.32587517E+00 0.39372207E+04</pdfrwt>
<pdfrwt beam="2">  1       -1 0.28147612E+00 0.39372207E+04</pdfrwt>
<totfact> 0.84837439E-02</totfact>
</mgrwt>
</event>
<event>
12    1  0.1980523E-007  0.2521109E+04  0.7818608E-02  0.8395504E-01
         -2   -1    0    0    0  501 -0.00000000000E+00  0.00000000000E+00  0.90835030507E+03  0.90835030507E+03  0.00000000000E+00 0.  1.
          2   -1    0    0  501    0  0.00000000000E+00 -0.00000000000E+00 -0.17493219016E+04  0.17493219016E+04  0.00000000000E+00 0. -1.
         23    2    1    2    0    0  0.10156122414E+04 -0.27169056852E+03 -0.33479631027E+02  0.10559145733E+04  0.92470050907E+02 0.  0.
        254    2    1    2    0    0 -0.10156122414E+04  0.27169056852E+03 -0.80749196548E+03  0.16017576334E+04  0.89905519953E+03 0.  0.
        -24    2    4    4    0    0 -0.98368622514E+03  0.91661990227E+01 -0.87346872869E+03  0.13179971464E+04  0.80288536536E+02 0.  0.
         24    2    4    4    0    0 -0.31926016304E+02  0.26252436950E+03  0.65976763209E+02  0.28376048702E+03  0.78922529164E+02 0.  0.
         13    1    3    3    0    0  0.83652204965E+03 -0.23791981802E+03 -0.59920984402E+02  0.87176000351E+03  0.00000000000E+00 0. -1.
        -13    1    3    3    0    0  0.17909019180E+03 -0.33770750507E+02  0.26441353375E+02  0.18415456974E+03  0.00000000000E+00 0.  1.
          2    1    6    6  502    0 -0.23630492671E+02  0.26273912655E+03  0.72067812467E+02  0.27346666780E+03  0.00000000000E+00 0. -1.
          3    1    5    5  503    0 -0.81084937125E+03  0.14451164401E+02 -0.75802376750E+03  0.11100835874E+04  0.00000000000E+00 0. -1.
         -4    1    5    5    0  503 -0.17283685389E+03 -0.52849653782E+01 -0.11544496119E+03  0.20791355893E+03  0.00000000000E+00 0.  1.
         -1    1    6    6    0  502 -0.82955236335E+01 -0.21475705186E+00 -0.60910492578E+01  0.10293819214E+02  0.00000000000E+00 0.  1.
<mgrwt>
<rscale>  0 0.25211086E+04</rscale>
<asrwt>0</asrwt>
<pdfrwt beam="1">  1        2 0.26912644E+00 0.25211086E+04</pdfrwt>
<pdfrwt beam="2">  1       -2 0.13974620E+00 0.25211086E+04</pdfrwt>
<totfact> 0.29583506E+00</totfact>
</mgrwt>
</event>
<event>
12    1  0.1980523E-007  0.2559260E+04  0.7818608E-02  0.8382173E-01
          2   -1    0    0  501    0  0.00000000000E+00  0.00000000000E+00  0.26508115049E+04  0.26508115049E+04  0.00000000000E+00 0. -1.
         -2   -1    0    0    0  501 -0.00000000000E+00 -0.00000000000E+00 -0.61771736657E+03  0.61771736657E+03  0.00000000000E+00 0.  1.
         23    2    1    2    0    0  0.80105760701E+03  0.32217363479E+03 -0.17864089569E+02  0.86785851483E+03  0.85849492567E+02 0.  0.
        254    2    1    2    0    0 -0.80105760701E+03 -0.32217363479E+03  0.20509582279E+04  0.24006703566E+04  0.90072158181E+03 0.  0.
        -24    2    4    4    0    0 -0.83446738122E+03 -0.34129532665E+03  0.21088099881E+04  0.22948193391E+04  0.79359454140E+02 0.  0.
         24    2    4    4    0    0  0.33409774208E+02  0.19121691853E+02 -0.57851760208E+02  0.10585101751E+03  0.79848354007E+02 0.  0.
         13    1    3    3    0    0  0.55316627892E+03  0.23930359870E+03  0.23814372047E+02  0.60318012965E+03  0.00000000000E+00 0. -1.
        -13    1    3    3    0    0  0.24789132809E+03  0.82870036099E+02 -0.41678461615E+02  0.26467838519E+03  0.00000000000E+00 0.  1.
          2    1    6    6  502    0 -0.66299370518E+01  0.40784318229E+02 -0.38179382981E+02  0.56258172415E+02  0.00000000000E+00 0. -1.
          1    1    5    5  503    0 -0.29589482435E+03 -0.14777463285E+03  0.84750110315E+03  0.90975227893E+03  0.00000000000E+00 0. -1.
         -2    1    5    5    0  503 -0.53857255686E+03 -0.19352069379E+03  0.12613088850E+04  0.13850670602E+04  0.00000000000E+00 0.  1.
         -1    1    6    6    0  502  0.40039711260E+02 -0.21662626375E+02 -0.19672377227E+02  0.49592845099E+02  0.00000000000E+00 0.  1.
<mgrwt>
<rscale>  0 0.25592595E+04</rscale>
<asrwt>0</asrwt>
<pdfrwt beam="1">  1        2 0.40781715E+00 0.25592595E+04</pdfrwt>
<pdfrwt beam="2">  1       -2 0.95033442E-01 0.25592595E+04</pdfrwt>
<totfact> 0.23471052E+00</totfact>
</mgrwt>
</event>
<event>
12    1  0.1980523E-007  0.2916833E+04  0.7818608E-02  0.8267887E-01
         -2   -1    0    0    0  501 -0.00000000000E+00  0.00000000000E+00  0.13513799931E+04  0.13513799931E+04  0.00000000000E+00 0.  1.
          2   -1    0    0  501    0  0.00000000000E+00 -0.00000000000E+00 -0.15739313585E+04  0.15739313585E+04  0.00000000000E+00 0. -1.
         23    2    1    2    0    0  0.10730913144E+04  0.31459030007E+03  0.59684662238E+03  0.12705205069E+04  0.86628181938E+02 0.  0.
        254    2    1    2    0    0 -0.10730913144E+04 -0.31459030007E+03 -0.81939798781E+03  0.16547908446E+04  0.90356386110E+03 0.  0.
        -24    2    4    4    0    0  0.48211095201E+02  0.16737949770E+03 -0.22365156341E+03  0.29433057301E+03  0.79184963465E+02 0.  0.
         24    2    4    4    0    0 -0.11213024096E+04 -0.48196979777E+03 -0.59574642440E+03  0.13604602716E+04  0.79525899744E+02 0.  0.
         11    1    3    3    0    0  0.40583046755E+03  0.16157884679E+03  0.24453079191E+03  0.50060103907E+03  0.00000000000E+00 0. -1.
        -11    1    3    3    0    0  0.66726084685E+03  0.15301145328E+03  0.35231583048E+03  0.76991946785E+03  0.00000000000E+00 0.  1.
          2    1    6    6  502    0 -0.11095392344E+04 -0.47573779231E+03 -0.57851913249E+03  0.13386889655E+04  0.00000000000E+00 0. -1.
          3    1    5    5  503    0  0.58913833110E+02  0.74412405222E+02 -0.13788204829E+03  0.16739027756E+03  0.00000000000E+00 0. -1.
         -4    1    5    5    0  503 -0.10702737909E+02  0.92967092478E+02 -0.85769515122E+02  0.12694029544E+03  0.00000000000E+00 0.  1.
         -1    1    6    6    0  502 -0.11763175155E+02 -0.62320054607E+01 -0.17227291909E+02  0.21771306077E+02  0.00000000000E+00 0.  1.
<mgrwt>
<rscale>  0 0.29168335E+04</rscale>
<asrwt>0</asrwt>
<pdfrwt beam="1">  1        2 0.24214328E+00 0.29168335E+04</pdfrwt>
<pdfrwt beam="2">  1       -2 0.20790462E+00 0.29168335E+04</pdfrwt>
<totfact> 0.11743590E+00</totfact>
</mgrwt>
</event>
<event>
12    1  0.1980523E-007  0.2920094E+04  0.7818608E-02  0.8266924E-01
         -1   -1    0    0    0  501 -0.00000000000E+00  0.00000000000E+00  0.86214677711E+03  0.86214677711E+03  0.00000000000E+00 0. -1.
          1   -1    0    0  501    0  0.00000000000E+00 -0.00000000000E+00 -0.24725923112E+04  0.24725923112E+04  0.00000000000E+00 0.  1.
         23    2    1    2    0    0 -0.55180692051E+03 -0.10059293659E+04  0.13867526668E+02  0.11510411813E+04  0.91207050546E+02 0.  0.
        254    2    1    2    0    0  0.55180692051E+03  0.10059293659E+04 -0.16243130608E+04  0.21836979071E+04  0.90208584026E+03 0.  0.
        -24    2    4    4    0    0 -0.23584396397E+02  0.84721915909E+03 -0.10480367705E+04  0.13502498899E+04  0.80356490158E+02 0.  0.
         24    2    4    4    0    0  0.57539131690E+03  0.15871020679E+03 -0.57627629026E+03  0.83344801716E+03  0.79228386893E+02 0.  0.
         11    1    3    3    0    0 -0.44151654035E+03 -0.85084753971E+03 -0.14170083896E+02  0.95868617519E+03  0.00000000000E+00 0. -1.
        -11    1    3    3    0    0 -0.11029038015E+03 -0.15508182617E+03  0.28037610564E+02  0.19235500609E+03  0.00000000000E+00 0.  1.
          4    1    6    6  502    0  0.35426746387E+03  0.76695399395E+02 -0.30267890372E+03  0.47223102291E+03  0.00000000000E+00 0. -1.
          1    1    5    5  503    0 -0.16640566707E+02  0.54047591414E+03 -0.72857077765E+03  0.90730727996E+03  0.00000000000E+00 0. -1.
         -2    1    5    5    0  503 -0.69438296893E+01  0.30674324495E+03 -0.31946599290E+03  0.44294260995E+03  0.00000000000E+00 0.  1.
         -3    1    6    6    0  502  0.22112385303E+03  0.82014807394E+02 -0.27359738654E+03  0.36121699425E+03  0.00000000000E+00 0.  1.
<mgrwt>
<rscale>  0 0.29200942E+04</rscale>
<asrwt>0</asrwt>
<pdfrwt beam="1">  1        1 0.38039881E+00 0.29200942E+04</pdfrwt>
<pdfrwt beam="2">  1       -1 0.13263797E+00 0.29200942E+04</pdfrwt>
<totfact> 0.58424391E-01</totfact>
</mgrwt>
</event>
<event>
12    1  0.1980523E-007  0.3199740E+04  0.7818608E-02  0.8188886E-01
          1   -1    0    0  501    0  0.00000000000E+00  0.00000000000E+00  0.18704149123E+04  0.18704149123E+04  0.00000000000E+00 0.  1.
         -1   -1    0    0    0  501 -0.00000000000E+00 -0.00000000000E+00 -0.13684578408E+04  0.13684578408E+04  0.00000000000E+00 0. -1.
         23    2    1    2    0    0 -0.11844275900E+04  0.30397785463E+03  0.10670187950E+04  0.16254587549E+04  0.91191023950E+02 0.  0.
        254    2    1    2    0    0  0.11844275900E+04 -0.30397785463E+03 -0.56506172352E+03  0.16134139982E+04  0.88799703039E+03 0.  0.
        -24    2    4    4    0    0  0.92183649757E+03 -0.50708029604E+03 -0.13339890081E+03  0.10635296642E+04  0.79919491152E+02 0.  0.
         24    2    4    4    0    0  0.26259109246E+03  0.20310244141E+03 -0.43166282271E+03  0.54988433395E+03  0.76389165889E+02 0.  0.
         13    1    3    3    0    0 -0.12011919354E+03  0.22986524371E+02  0.73878262814E+02  0.14288106479E+03  0.00000000000E+00 0.  1.
        -13    1    3    3    0    0 -0.10643083965E+04  0.28099133026E+03  0.99314053219E+03  0.14825776901E+04  0.00000000000E+00 0. -1.
          4    1    6    6  502    0  0.13838562078E+02 -0.40160926172E+01 -0.72748093513E+01  0.16141798270E+02  0.00000000000E+00 0. -1.
          3    1    5    5  503    0  0.65177460891E+02 -0.20259128197E+02  0.54586622653E+01  0.68471385829E+02  0.00000000000E+00 0. -1.
         -4    1    5    5    0  503  0.85665903667E+03 -0.48682116784E+03 -0.13885756307E+03  0.99505827839E+03  0.00000000000E+00 0.  1.
         -3    1    6    6    0  502  0.24875253038E+03  0.20711853403E+03 -0.42438801336E+03  0.53374253568E+03  0.00000000000E+00 0.  1.
<mgrwt>
<rscale>  0 0.31997400E+04</rscale>
<asrwt>0</asrwt>
<pdfrwt beam="1">  1        1 0.28775614E+00 0.31997400E+04</pdfrwt>
<pdfrwt beam="2">  1       -1 0.21053197E+00 0.31997400E+04</pdfrwt>
<totfact> 0.38927149E-01</totfact>
</mgrwt>
</event>
<event>
12    1  0.1980523E-007  0.2836220E+04  0.7818608E-02  0.8292111E-01
          1   -1    0    0  501    0  0.00000000000E+00  0.00000000000E+00  0.15647190175E+04  0.15647190175E+04  0.00000000000E+00 0. -1.
         -1   -1    0    0    0  501 -0.00000000000E+00 -0.00000000000E+00 -0.12852375803E+04  0.12852375803E+04  0.00000000000E+00 0.  1.
         23    2    1    2    0    0  0.86858063960E+02 -0.10773889178E+04 -0.54902249620E+03  0.12177172646E+04  0.11444837985E+03 0.  0.
        254    2    1    2    0    0 -0.86858063960E+02  0.10773889178E+04  0.82850393342E+03  0.16322393332E+04  0.89970843598E+03 0.  0.
        -24    2    4    4    0    0  0.22936603231E+03  0.10493966647E+04  0.66909275437E+03  0.12680622725E+04  0.80341000486E+02 0.  0.
         24    2    4    4    0    0 -0.31622409627E+03  0.27992253072E+02  0.15941117905E+03  0.36417706069E+03  0.80198268264E+02 0.  0.
         11    1    3    3    0    0 -0.59691463445E+01 -0.13457194904E+03 -0.10832019225E+03  0.17285399684E+03  0.00000000000E+00 0.  1.
        -11    1    3    3    0    0  0.92827210305E+02 -0.94281696876E+03 -0.44070230395E+03  0.10448632677E+04  0.00000000000E+00 0. -1.
          2    1    6    6  502    0 -0.32148784057E+02 -0.19122340974E+02  0.32269164708E+02  0.49401490176E+02  0.00000000000E+00 0. -1.
          3    1    5    5  503    0  0.95607549510E+02  0.58968602856E+03  0.34407058271E+03  0.68938739595E+03  0.00000000000E+00 0. -1.
         -4    1    5    5    0  503  0.13375848280E+03  0.45971063617E+03  0.32502217165E+03  0.57867487659E+03  0.00000000000E+00 0.  1.
         -1    1    6    6    0  502 -0.28407531222E+03  0.47114594045E+02  0.12714201434E+03  0.31477557052E+03  0.00000000000E+00 0.  1.
<mgrwt>
<rscale>  0 0.28362198E+04</rscale>
<asrwt>0</asrwt>
<pdfrwt beam="1">  1        1 0.24072600E+00 0.28362198E+04</pdfrwt>
<pdfrwt beam="2">  1       -1 0.19772886E+00 0.28362198E+04</pdfrwt>
<totfact> 0.79478769E-01</totfact>
</mgrwt>
</event>
<event>
12    1  0.1980523E-007  0.1983329E+04  0.7818608E-02  0.8614455E-01
          2   -1    0    0  501    0  0.00000000000E+00  0.00000000000E+00  0.19252416948E+04  0.19252416948E+04  0.00000000000E+00 0. -1.
         -2   -1    0    0    0  501 -0.00000000000E+00 -0.00000000000E+00 -0.51079201309E+03  0.51079201309E+03  0.00000000000E+00 0.  1.
         23    2    1    2    0    0  0.34033935457E+03 -0.69778033023E+03  0.42572412995E+03  0.88972192177E+03  0.87383051788E+02 0.  0.
        254    2    1    2    0    0 -0.34033935457E+03  0.69778033023E+03  0.98872555177E+03  0.15463117861E+04  0.90042970723E+03 0.  0.
        -24    2    4    4    0    0 -0.32435041072E+03 -0.85544101510E+02  0.53546293882E+03  0.63760142064E+03  0.85405096507E+02 0.  0.
         24    2    4    4    0    0 -0.15988943847E+02  0.78332443174E+03  0.45326261295E+03  0.90871036549E+03  0.80341274344E+02 0.  0.
         13    1    3    3    0    0  0.23955519205E+03 -0.39532780853E+03  0.26207844450E+03  0.53137169412E+03  0.00000000000E+00 0. -1.
        -13    1    3    3    0    0  0.10078416252E+03 -0.30245252170E+03  0.16364568545E+03  0.35835022766E+03  0.00000000000E+00 0.  1.
          4    1    6    6  502    0 -0.31322254139E+02  0.19760238543E+03  0.14109325811E+03  0.24481644923E+03  0.00000000000E+00 0. -1.
          3    1    5    5  503    0 -0.43513510490E+02  0.84532782386E+01  0.36728669088E+02  0.57566297789E+02  0.00000000000E+00 0. -1.
         -4    1    5    5    0  503 -0.28083690023E+03 -0.93997379748E+02  0.49873426974E+03  0.58003512285E+03  0.00000000000E+00 0.  1.
         -3    1    6    6    0  502  0.15333310292E+02  0.58572204631E+03  0.31216935484E+03  0.66389391625E+03  0.00000000000E+00 0.  1.
<mgrwt>
<rscale>  0 0.19833286E+04</rscale>
<asrwt>0</asrwt>
<pdfrwt beam="1">  1        2 0.29619103E+00 0.19833286E+04</pdfrwt>
<pdfrwt beam="2">  1       -2 0.78583388E-01 0.19833286E+04</pdfrwt>
<totfact> 0.98411588E+00</totfact>
</mgrwt>
</event>
<event>
12    1  0.1980523E-007  0.2180588E+04  0.7818608E-02  0.8526552E-01
          2   -1    0    0  501    0  0.00000000000E+00  0.00000000000E+00  0.11243657249E+04  0.11243657249E+04  0.00000000000E+00 0. -1.
         -2   -1    0    0    0  501 -0.00000000000E+00 -0.00000000000E+00 -0.10572545198E+04  0.10572545198E+04  0.00000000000E+00 0.  1.
         23    2    1    2    0    0  0.82923472117E+03 -0.23138404533E+03 -0.24795352238E+03  0.90054535421E+03  0.91280811160E+02 0.  0.
        254    2    1    2    0    0 -0.82923472117E+03  0.23138404533E+03  0.31506472744E+03  0.12810748905E+04  0.89482863907E+03 0.  0.
        -24    2    4    4    0    0 -0.40858212563E+03  0.13183729401E+03  0.61115372548E+03  0.75117004197E+03  0.80169385165E+02 0.  0.
         24    2    4    4    0    0 -0.42065259555E+03  0.99546751321E+02 -0.29608899804E+03  0.52990484850E+03  0.79197802164E+02 0.  0.
         11    1    3    3    0    0  0.39713257043E+03 -0.12834797942E+03 -0.76068467814E+02  0.42423330151E+03  0.00000000000E+00 0. -1.
        -11    1    3    3    0    0  0.43210215074E+03 -0.10303606591E+03 -0.17188505457E+03  0.47631205269E+03  0.00000000000E+00 0.  1.
          2    1    6    6  502    0 -0.42280724158E+03  0.96717327007E+02 -0.29763256648E+03  0.52602789803E+03  0.00000000000E+00 0. -1.
          1    1    5    5  503    0 -0.41069173468E+03  0.12991811491E+03  0.61181673116E+03  0.74824202638E+03  0.00000000000E+00 0. -1.
         -2    1    5    5    0  503  0.21096090567E+01  0.19191790976E+01 -0.66300567746E+00  0.29280155924E+01  0.00000000000E+00 0.  1.
         -1    1    6    6    0  502  0.21546460321E+01  0.28294243139E+01  0.15435684371E+01  0.38769504758E+01  0.00000000000E+00 0.  1.
<mgrwt>
<rscale>  0 0.21805878E+04</rscale>
<asrwt>0</asrwt>
<pdfrwt beam="1">  1        2 0.17297934E+00 0.21805878E+04</pdfrwt>
<pdfrwt beam="2">  1       -2 0.16265454E+00 0.21805878E+04</pdfrwt>
<totfact> 0.46399680E+00</totfact>
</mgrwt>
</event>
<event>
12    1  0.1980523E-007  0.1337885E+04  0.7818608E-02  0.9000050E-01
         -1   -1    0    0    0  501 -0.00000000000E+00  0.00000000000E+00  0.46990662319E+03  0.46990662319E+03  0.00000000000E+00 0.  1.
          1   -1    0    0  501    0  0.00000000000E+00 -0.00000000000E+00 -0.95228360793E+03  0.95228360793E+03  0.00000000000E+00 0. -1.
         23    2    1    2    0    0 -0.27704968344E+03 -0.22197082902E+03 -0.10795921632E+03  0.38227025255E+03  0.91911792332E+02 0.  0.
        254    2    1    2    0    0  0.27704968344E+03  0.22197082902E+03 -0.37441776842E+03  0.10399199786E+04  0.90289385893E+03 0.  0.
        -24    2    4    4    0    0 -0.61982349115E+02  0.28298347960E+03  0.20253814398E+03  0.36291516559E+03  0.82245099090E+02 0.  0.
         24    2    4    4    0    0  0.33903203256E+03 -0.61012650581E+02 -0.57695591240E+03  0.67700481298E+03  0.82414375623E+02 0.  0.
         13    1    3    3    0    0 -0.73836513407E+02 -0.10463438927E+03 -0.65363225996E+02  0.14377947504E+03  0.00000000000E+00 0. -1.
        -13    1    3    3    0    0 -0.20321317004E+03 -0.11733643975E+03 -0.42595990320E+02  0.23849077752E+03  0.00000000000E+00 0.  1.
          2    1    6    6  502    0  0.19720951018E+03 -0.21738602326E+01 -0.27703983995E+03  0.34006968329E+03  0.00000000000E+00 0. -1.
          1    1    5    5  503    0 -0.82035032394E+02  0.22563981077E+03  0.15498867798E+03  0.28577011924E+03  0.00000000000E+00 0. -1.
         -2    1    5    5    0  503  0.20052683279E+02  0.57343668825E+02  0.47549465992E+02  0.77145046355E+02  0.00000000000E+00 0.  1.
         -1    1    6    6    0  502  0.14182252238E+03 -0.58838790349E+02 -0.29991607245E+03  0.33693512969E+03  0.00000000000E+00 0.  1.
<mgrwt>
<rscale>  0 0.13378855E+04</rscale>
<asrwt>0</asrwt>
<pdfrwt beam="1">  1        1 0.14650517E+00 0.13378855E+04</pdfrwt>
<pdfrwt beam="2">  1       -1 0.72293327E-01 0.13378855E+04</pdfrwt>
<totfact> 0.31221085E+01</totfact>
</mgrwt>
</event>
<event>
12    1  0.1980523E-007  0.2202091E+04  0.7818608E-02  0.8517558E-01
          1   -1    0    0  501    0  0.00000000000E+00  0.00000000000E+00  0.16323860162E+04  0.16323860162E+04  0.00000000000E+00 0.  1.
         -1   -1    0    0    0  501 -0.00000000000E+00 -0.00000000000E+00 -0.74265591420E+03  0.74265591420E+03  0.00000000000E+00 0. -1.
         23    2    1    2    0    0 -0.71705635751E+03  0.35620810215E+03 -0.10238595411E+03  0.81303225787E+03  0.97388586920E+02 0.  0.
        254    2    1    2    0    0  0.71705635751E+03 -0.35620810215E+03  0.99211605609E+03  0.15620096725E+04  0.90251089546E+03 0.  0.
        -24    2    4    4    0    0  0.81511506270E+03 -0.39216479583E+03  0.10747698210E+04  0.14069267362E+04  0.78146532120E+02 0.  0.
         24    2    4    4    0    0 -0.98058705191E+02  0.35956693680E+02 -0.82653764926E+02  0.15508293627E+03  0.79439780853E+02 0.  0.
         13    1    3    3    0    0 -0.17418280712E+03  0.97322723250E+02 -0.67280188519E+02  0.21056587217E+03  0.00000000000E+00 0. -1.
        -13    1    3    3    0    0 -0.54287355039E+03  0.25888537890E+03 -0.35105765589E+02  0.60246638570E+03  0.00000000000E+00 0.  1.
          4    1    6    6  502    0 -0.83895603010E+02  0.10099512441E+02 -0.21500079738E+02  0.87193610917E+02  0.00000000000E+00 0. -1.
          3    1    5    5  503    0  0.36634677246E+03 -0.18284937629E+03  0.42725009486E+03  0.59176557492E+03  0.00000000000E+00 0. -1.
         -4    1    5    5    0  503  0.44876829024E+03 -0.20931541954E+03  0.64751972616E+03  0.81516116133E+03  0.00000000000E+00 0.  1.
         -3    1    6    6    0  502 -0.14163102181E+02  0.25857181239E+02 -0.61153685188E+02  0.67889325354E+02  0.00000000000E+00 0.  1.
<mgrwt>
<rscale>  0 0.22020909E+04</rscale>
<asrwt>0</asrwt>
<pdfrwt beam="1">  1        1 0.25113631E+00 0.22020909E+04</pdfrwt>
<pdfrwt beam="2">  1       -1 0.11425476E+00 0.22020909E+04</pdfrwt>
<totfact> 0.33691845E+00</totfact>
</mgrwt>
</event>
<event>
12    1  0.1980523E-007  0.1941843E+04  0.7818608E-02  0.8634304E-01
         -2   -1    0    0    0  501 -0.00000000000E+00  0.00000000000E+00  0.50026468343E+03  0.50026468343E+03  0.00000000000E+00 0.  1.
          2   -1    0    0  501    0  0.00000000000E+00 -0.00000000000E+00 -0.18843803369E+04  0.18843803369E+04  0.00000000000E+00 0. -1.
         23    2    1    2    0    0 -0.75552897079E+03  0.63558078288E+02 -0.52481988188E+03  0.92671611639E+03  0.92212780731E+02 0.  0.
        254    2    1    2    0    0  0.75552897079E+03 -0.63558078288E+02 -0.85929577159E+03  0.14579289040E+04  0.90127898616E+03 0.  0.
        -24    2    4    4    0    0  0.86549521803E+03 -0.28125737919E+03 -0.60551228725E+03  0.10959477366E+04  0.79174652321E+02 0.  0.
         24    2    4    4    0    0 -0.10996624724E+03  0.21769930090E+03 -0.25378348434E+03  0.36198116735E+03  0.84491108706E+02 0.  0.
         13    1    3    3    0    0 -0.41916534687E+02  0.13308747406E+02 -0.93286213780E+01  0.44957110833E+02  0.00000000000E+00 0.  1.
        -13    1    3    3    0    0 -0.71361243610E+03  0.50249330882E+02 -0.51549126051E+03  0.88175900555E+03  0.00000000000E+00 0. -1.
          2    1    6    6  502    0 -0.11615972110E+03  0.20449515675E+03 -0.20812511848E+03  0.31405001971E+03  0.00000000000E+00 0. -1.
          1    1    5    5  503    0  0.12517955429E+03 -0.28035242910E+02 -0.11643274798E+03  0.17324110499E+03  0.00000000000E+00 0. -1.
         -2    1    5    5    0  503  0.74031566374E+03 -0.25322213628E+03 -0.48907953927E+03  0.92270663161E+03  0.00000000000E+00 0.  1.
         -1    1    6    6    0  502  0.61934738568E+01  0.13204144150E+02 -0.45658365857E+02  0.47931147638E+02  0.00000000000E+00 0.  1.
<mgrwt>
<rscale>  0 0.19418434E+04</rscale>
<asrwt>0</asrwt>
<pdfrwt beam="1">  1        2 0.28990467E+00 0.19418434E+04</pdfrwt>
<pdfrwt beam="2">  1       -2 0.76963798E-01 0.19418434E+04</pdfrwt>
<totfact> 0.10899829E+01</totfact>
</mgrwt>
</event>
<event>
12    1  0.1980523E-007  0.2678850E+04  0.7818608E-02  0.8341900E-01
          2   -1    0    0  501    0  0.00000000000E+00  0.00000000000E+00  0.29071466666E+04  0.29071466666E+04  0.00000000000E+00 0. -1.
         -2   -1    0    0    0  501 -0.00000000000E+00 -0.00000000000E+00 -0.61712017102E+03  0.61712017102E+03  0.00000000000E+00 0.  1.
         23    2    1    2    0    0  0.10346289914E+04  0.56684177927E+03  0.11673667369E+04  0.16621696467E+04  0.91082837902E+02 0.  0.
        254    2    1    2    0    0 -0.10346289914E+04 -0.56684177927E+03  0.11226597587E+04  0.18620971909E+04  0.90292539115E+03 0.  0.
        -24    2    4    4    0    0 -0.15695062394E+03 -0.57127833140E+03  0.53907775209E+03  0.80509344457E+03  0.81106112051E+02 0.  0.
         24    2    4    4    0    0 -0.87767836750E+03  0.44365521345E+01  0.58358200656E+03  0.10570037463E+04  0.79686646161E+02 0.  0.
         11    1    3    3    0    0  0.70315378321E+03  0.42897029315E+03  0.83636072607E+03  0.11738568990E+04  0.00000000000E+00 0. -1.
        -11    1    3    3    0    0  0.33147520823E+03  0.13787148612E+03  0.33100601086E+03  0.48831274772E+03  0.00000000000E+00 0.  1.
          2    1    6    6  502    0 -0.16259100959E+03  0.31839916939E+02  0.10794477184E+03  0.19774147385E+03  0.00000000000E+00 0. -1.
          3    1    5    5  503    0 -0.13206853120E+03 -0.50596230267E+03  0.50642818091E+03  0.72794879702E+03  0.00000000000E+00 0. -1.
         -4    1    5    5    0  503 -0.24882092736E+02 -0.65316028736E+02  0.32649571177E+02  0.77144647558E+02  0.00000000000E+00 0.  1.
         -1    1    6    6    0  502 -0.71508735791E+03 -0.27403364805E+02  0.47563723472E+03  0.85926227247E+03  0.00000000000E+00 0.  1.
<mgrwt>
<rscale>  0 0.26788496E+04</rscale>
<asrwt>0</asrwt>
<pdfrwt beam="1">  1        2 0.44725333E+00 0.26788496E+04</pdfrwt>
<pdfrwt beam="2">  1       -2 0.94941566E-01 0.26788496E+04</pdfrwt>
<totfact> 0.16308294E+00</totfact>
</mgrwt>
</event>
<event>
12    1  0.1980523E-007  0.1363006E+04  0.7818608E-02  0.8981041E-01
          1   -1    0    0  501    0  0.00000000000E+00  0.00000000000E+00  0.83090680392E+03  0.83090680392E+03  0.00000000000E+00 0. -1.
         -1   -1    0    0    0  501 -0.00000000000E+00 -0.00000000000E+00 -0.55896290232E+03  0.55896290232E+03  0.00000000000E+00 0.  1.
         23    2    1    2    0    0 -0.29476713296E+03 -0.22518036212E+03  0.14164651191E+03  0.40786269062E+03  0.93243669537E+02 0.  0.
        254    2    1    2    0    0  0.29476713296E+03  0.22518036212E+03  0.13029738969E+03  0.98200701561E+03  0.89987027442E+03 0.  0.
        -24    2    4    4    0    0  0.30069431279E+03  0.41764238851E+03  0.38933191861E+03  0.65020771552E+03  0.79677450078E+02 0.  0.
         24    2    4    4    0    0 -0.59271798276E+01 -0.19246202639E+03 -0.25903452892E+03  0.33179930008E+03  0.76909851752E+02 0.  0.
         11    1    3    3    0    0 -0.13790657168E+03 -0.50675209544E+02  0.40925753248E+02  0.15251595541E+03  0.00000000000E+00 0.  1.
        -11    1    3    3    0    0 -0.15686056128E+03 -0.17450515257E+03  0.10072075866E+03  0.25534673522E+03  0.00000000000E+00 0. -1.
          4    1    6    6  502    0 -0.27206227787E+02 -0.25086087510E+02 -0.31921214783E+02  0.48871817750E+02  0.00000000000E+00 0. -1.
          3    1    5    5  503    0  0.11103208484E+03  0.14974994845E+03  0.94525403694E+02  0.20901727887E+03  0.00000000000E+00 0. -1.
         -4    1    5    5    0  503  0.18966222795E+03  0.26789244006E+03  0.29480651492E+03  0.44119043665E+03  0.00000000000E+00 0.  1.
         -3    1    6    6    0  502  0.21279047960E+02 -0.16737593889E+03 -0.22711331414E+03  0.28292748233E+03  0.00000000000E+00 0.  1.
<mgrwt>
<rscale>  0 0.13630056E+04</rscale>
<asrwt>0</asrwt>
<pdfrwt beam="1">  1        1 0.12783182E+00 0.13630056E+04</pdfrwt>
<pdfrwt beam="2">  1       -1 0.85994293E-01 0.13630056E+04</pdfrwt>
<totfact> 0.27149117E+01</totfact>
</mgrwt>
</event>
<event>
12    1  0.1980523E-007  0.1696894E+04  0.7818608E-02  0.8763138E-01
         -1   -1    0    0    0  501 -0.00000000000E+00  0.00000000000E+00  0.45529902453E+03  0.45529902453E+03  0.00000000000E+00 0.  1.
          1   -1    0    0  501    0  0.00000000000E+00 -0.00000000000E+00 -0.15810762152E+04  0.15810762152E+04  0.00000000000E+00 0. -1.
         23    2    1    2    0    0 -0.52893648866E+03 -0.17509137799E+03 -0.69769653754E+03  0.89779267546E+03  0.93917143921E+02 0.  0.
        254    2    1    2    0    0  0.52893648866E+03  0.17509137799E+03 -0.42808065313E+03  0.11385825643E+04  0.89592768146E+03 0.  0.
        -24    2    4    4    0    0  0.16685811777E+03 -0.21682577355E+03 -0.51847874569E+03  0.59148631241E+03  0.78618067237E+02 0.  0.
         24    2    4    4    0    0  0.36207837089E+03  0.39191715153E+03  0.90398092556E+02  0.54709625187E+03  0.80266389841E+02 0.  0.
         13    1    3    3    0    0 -0.24008507617E+03 -0.10640888234E+03 -0.39029785965E+03  0.47042120837E+03  0.00000000000E+00 0. -1.
        -13    1    3    3    0    0 -0.28885141249E+03 -0.68682495646E+02 -0.30739867789E+03  0.42737146709E+03  0.00000000000E+00 0.  1.
          4    1    6    6  502    0  0.31062156775E+03  0.34492397001E+03  0.10498607122E+03  0.47589954674E+03  0.00000000000E+00 0. -1.
          3    1    5    5  503    0  0.13671136778E+03 -0.12369773068E+03 -0.30070129261E+03  0.35272141136E+03  0.00000000000E+00 0. -1.
         -4    1    5    5    0  503  0.30146749996E+02 -0.93128042867E+02 -0.21777745308E+03  0.23876490105E+03  0.00000000000E+00 0.  1.
         -3    1    6    6    0  502  0.51456803139E+02  0.46993181523E+02 -0.14587978669E+02  0.71196705125E+02  0.00000000000E+00 0.  1.
<mgrwt>
<rscale>  0 0.16968942E+04</rscale>
<asrwt>0</asrwt>
<pdfrwt beam="1">  1        1 0.24324249E+00 0.16968942E+04</pdfrwt>
<pdfrwt beam="2">  1       -1 0.70046004E-01 0.16968942E+04</pdfrwt>
<totfact> 0.11276472E+01</totfact>
</mgrwt>
</event>
<event>
12    1  0.1980523E-007  0.1600480E+04  0.7818608E-02  0.8820253E-01
         -2   -1    0    0    0  501 -0.00000000000E+00  0.00000000000E+00  0.11163839769E+04  0.11163839769E+04  0.00000000000E+00 0.  1.
          2   -1    0    0  501    0  0.00000000000E+00 -0.00000000000E+00 -0.57362346169E+03  0.57362346169E+03  0.00000000000E+00 0. -1.
         23    2    1    2    0    0  0.31990998481E+03 -0.21073619887E+03 -0.21980426250E+03  0.44980601421E+03  0.85202069862E+02 0.  0.
        254    2    1    2    0    0 -0.31990998481E+03  0.21073619887E+03  0.76256477770E+03  0.12402014244E+04  0.89991243402E+03 0.  0.
        -24    2    4    4    0    0  0.13694720746E+03  0.27332730352E+02  0.72201915028E+03  0.73988617774E+03  0.81352854046E+02 0.  0.
         24    2    4    4    0    0 -0.45685719227E+03  0.18340346852E+03  0.40545627416E+02  0.50031524662E+03  0.79473717046E+02 0.  0.
         13    1    3    3    0    0  0.17077792859E+03 -0.70999591054E+02 -0.76214641177E+02  0.20003678250E+03  0.00000000000E+00 0.  1.
        -13    1    3    3    0    0  0.14913205622E+03 -0.13973660782E+03 -0.14358962132E+03  0.24976923171E+03  0.00000000000E+00 0. -1.
          2    1    6    6  502    0 -0.37882690397E+03  0.15075947699E+03  0.29024332230E+01  0.40773357379E+03  0.00000000000E+00 0. -1.
          1    1    5    5  503    0  0.12187596988E+03 -0.46892156481E+01  0.62054196936E+03  0.63241448158E+03  0.00000000000E+00 0. -1.
         -2    1    5    5    0  503  0.15071237583E+02  0.32021946000E+02  0.10147718092E+03  0.10747169616E+03  0.00000000000E+00 0.  1.
         -1    1    6    6    0  502 -0.78030288300E+02  0.32643991533E+02  0.37643194193E+02  0.92581672832E+02  0.00000000000E+00 0.  1.
<mgrwt>
<rscale>  0 0.16004800E+04</rscale>
<asrwt>0</asrwt>
<pdfrwt beam="1">  1        2 0.88249764E-01 0.16004800E+04</pdfrwt>
<pdfrwt beam="2">  1       -2 0.17175138E+00 0.16004800E+04</pdfrwt>
<totfact> 0.10388700E+01</totfact>
</mgrwt>
</event>
<event>
12    1  0.1980523E-007  0.2381223E+04  0.7818608E-02  0.8446567E-01
          2   -1    0    0  501    0  0.00000000000E+00  0.00000000000E+00  0.19807220497E+04  0.19807220497E+04  0.00000000000E+00 0.  1.
         -2   -1    0    0    0  501 -0.00000000000E+00 -0.00000000000E+00 -0.71567599210E+03  0.71567599210E+03  0.00000000000E+00 0. -1.
         23    2    1    2    0    0 -0.53951042865E+03 -0.77860165470E+03  0.12265283165E+03  0.95957048341E+03  0.91868145725E+02 0.  0.
        254    2    1    2    0    0  0.53951042865E+03  0.77860165470E+03  0.11423932259E+04  0.17368275584E+04  0.90233898594E+03 0.  0.
        -24    2    4    4    0    0  0.54911049298E+03  0.92216645978E+03  0.75176901345E+03  0.13127549975E+04  0.79093114532E+02 0.  0.
         24    2    4    4    0    0 -0.96000643338E+01 -0.14356480508E+03  0.39062421248E+03  0.42407256090E+03  0.80915060616E+02 0.  0.
         11    1    3    3    0    0 -0.12991532477E+03 -0.12549673139E+03  0.16590147372E+02  0.18139088784E+03  0.00000000000E+00 0. -1.
        -11    1    3    3    0    0 -0.40959510388E+03 -0.65310492331E+03  0.10606268428E+03  0.77817959557E+03  0.00000000000E+00 0.  1.
          2    1    6    6  502    0  0.32993784899E+01 -0.37753770585E+01 -0.32186610285E+01  0.59581162434E+01  0.00000000000E+00 0. -1.
          3    1    5    5  503    0  0.54450299591E+02  0.14237571764E+03  0.95871493823E+02  0.18007504943E+03  0.00000000000E+00 0. -1.
         -4    1    5    5    0  503  0.49466019339E+03  0.77979074214E+03  0.65589751963E+03  0.11326799480E+04  0.00000000000E+00 0.  1.
         -1    1    6    6    0  502 -0.12899442824E+02 -0.13978942802E+03  0.39384287351E+03  0.41811444466E+03  0.00000000000E+00 0.  1.
<mgrwt>
<rscale>  0 0.23812226E+04</rscale>
<asrwt>0</asrwt>
<pdfrwt beam="1">  1        2 0.30472647E+00 0.23812226E+04</pdfrwt>
<pdfrwt beam="2">  1       -2 0.11010400E+00 0.23812226E+04</pdfrwt>
<totfact> 0.40428969E+00</totfact>
</mgrwt>
</event>
<event>
12    1  0.1980523E-007  0.1289825E+04  0.7818608E-02  0.9037673E-01
         -1   -1    0    0    0  501 -0.00000000000E+00  0.00000000000E+00  0.48286669168E+03  0.48286669168E+03  0.00000000000E+00 0.  1.
          1   -1    0    0  501    0  0.00000000000E+00 -0.00000000000E+00 -0.86133947648E+03  0.86133947648E+03  0.00000000000E+00 0. -1.
         23    2    1    2    0    0  0.24992183839E+03  0.12977008065E+03 -0.25835727292E+03  0.39305950108E+03  0.91902621206E+02 0.  0.
        254    2    1    2    0    0 -0.24992183839E+03 -0.12977008065E+03 -0.12011551187E+03  0.95114666708E+03  0.90052820442E+03 0.  0.
        -24    2    4    4    0    0 -0.24992330389E+03  0.33710533451E+03 -0.19955689565E+03  0.47136221045E+03  0.79105716953E+02 0.  0.
         24    2    4    4    0    0  0.14655040102E-02 -0.46687541516E+03  0.79441383779E+02  0.47978445663E+03  0.76873520029E+02 0.  0.
         13    1    3    3    0    0  0.24047902720E+03  0.10595034195E+03 -0.25674198585E+03  0.36738547165E+03  0.00000000000E+00 0. -1.
        -13    1    3    3    0    0  0.94428111832E+01  0.23819738705E+02 -0.16152870779E+01  0.25674029434E+02  0.00000000000E+00 0.  1.
          4    1    6    6  502    0 -0.61672540835E+01 -0.40905468320E+03  0.43459046188E+02  0.41140303543E+03  0.00000000000E+00 0. -1.
          1    1    5    5  503    0 -0.15455358940E+03  0.26723928797E+03 -0.13971647138E+03  0.33885740571E+03  0.00000000000E+00 0. -1.
         -2    1    5    5    0  503 -0.95369714488E+02  0.69866046534E+02 -0.59840424276E+02  0.13250480473E+03  0.00000000000E+00 0.  1.
         -3    1    6    6    0  502  0.61687195875E+01 -0.57820731967E+02  0.35982337591E+02  0.68381421198E+02  0.00000000000E+00 0.  1.
<mgrwt>
<rscale>  0 0.12898250E+04</rscale>
<asrwt>0</asrwt>
<pdfrwt beam="1">  1        1 0.13251377E+00 0.12898250E+04</pdfrwt>
<pdfrwt beam="2">  1       -1 0.74287184E-01 0.12898250E+04</pdfrwt>
<totfact> 0.35149124E+01</totfact>
</mgrwt>
</event>
<event>
12    1  0.1980523E-007  0.1574561E+04  0.7818608E-02  0.8836330E-01
         -2   -1    0    0    0  501 -0.00000000000E+00  0.00000000000E+00  0.12950878928E+04  0.12950878928E+04  0.00000000000E+00 0.  1.
          2   -1    0    0  501    0  0.00000000000E+00 -0.00000000000E+00 -0.47858588330E+03  0.47858588330E+03  0.00000000000E+00 0. -1.
         23    2    1    2    0    0  0.30911167022E+03  0.42145588703E+03  0.31799513863E+03  0.62068511031E+03  0.10466139970E+03 0.  0.
        254    2    1    2    0    0 -0.30911167022E+03 -0.42145588703E+03  0.49850687085E+03  0.11529886658E+04  0.89872057602E+03 0.  0.
        -24    2    4    4    0    0 -0.44336223455E+01 -0.30151056840E+03  0.69653034909E+03  0.76320015302E+03  0.79947898639E+02 0.  0.
         24    2    4    4    0    0 -0.30467804787E+03 -0.11994531863E+03 -0.19802347825E+03  0.38978851276E+03  0.74203735971E+02 0.  0.
         11    1    3    3    0    0  0.11532573994E+03  0.15766980403E+03  0.17943627646E+03  0.26524926146E+03  0.00000000000E+00 0.  1.
        -11    1    3    3    0    0  0.19378593028E+03  0.26378608300E+03  0.13855886217E+03  0.35543584885E+03  0.00000000000E+00 0. -1.
          2    1    6    6  502    0 -0.15277813000E+03 -0.23255254412E+02 -0.10751132163E+03  0.18825686746E+03  0.00000000000E+00 0. -1.
          1    1    5    5  503    0 -0.78653672438E+01 -0.27052765507E+03  0.54503789587E+03  0.60853379865E+03  0.00000000000E+00 0. -1.
         -2    1    5    5    0  503  0.34317448983E+01 -0.30982913325E+02  0.15149245322E+03  0.15466635437E+03  0.00000000000E+00 0.  1.
         -1    1    6    6    0  502 -0.15189991786E+03 -0.96690064217E+02 -0.90512156614E+02  0.20153164531E+03  0.00000000000E+00 0.  1.
<mgrwt>
<rscale>  0 0.15745613E+04</rscale>
<asrwt>0</asrwt>
<pdfrwt beam="1">  1        2 0.73628598E-01 0.15745613E+04</pdfrwt>
<pdfrwt beam="2">  1       -2 0.19924429E+00 0.15745613E+04</pdfrwt>
<totfact> 0.83659642E+00</totfact>
</mgrwt>
</event>
<event>
12    1  0.1980523E-007  0.2498605E+04  0.7818608E-02  0.8403483E-01
          1   -1    0    0  501    0  0.00000000000E+00  0.00000000000E+00  0.18048138388E+04  0.18048138388E+04  0.00000000000E+00 0. -1.
         -1   -1    0    0    0  501 -0.00000000000E+00 -0.00000000000E+00 -0.86477432424E+03  0.86477432424E+03  0.00000000000E+00 0.  1.
         23    2    1    2    0    0  0.86386213449E+03  0.53351094863E+03 -0.12911754788E+01  0.10194502974E+04  0.91572496233E+02 0.  0.
        254    2    1    2    0    0 -0.86386213449E+03 -0.53351094863E+03  0.94133069001E+03  0.16501378656E+04  0.89775263173E+03 0.  0.
        -24    2    4    4    0    0 -0.52363661006E+03 -0.73167233373E+03  0.84528161600E+03  0.12371087045E+04  0.79982704300E+02 0.  0.
         24    2    4    4    0    0 -0.34022552444E+03  0.19816138510E+03  0.96049074002E+02  0.41302916112E+03  0.79663801658E+02 0.  0.
         11    1    3    3    0    0  0.35947150649E+03  0.22612358596E+03  0.44498218689E+02  0.42700319855E+03  0.00000000000E+00 0. -1.
        -11    1    3    3    0    0  0.50439062801E+03  0.30738736267E+03 -0.45789394168E+02  0.59244709888E+03  0.00000000000E+00 0.  1.
          4    1    6    6  502    0 -0.21845870083E+03  0.11285355771E+03  0.97059732794E+02  0.26434961923E+03  0.00000000000E+00 0. -1.
          3    1    5    5  503    0 -0.21834929368E+03 -0.37334380761E+03  0.41070075480E+03  0.59643702327E+03  0.00000000000E+00 0. -1.
         -2    1    5    5    0  503 -0.30528731638E+03 -0.35832852612E+03  0.43458086120E+03  0.64067168121E+03  0.00000000000E+00 0.  1.
         -3    1    6    6    0  502 -0.12176682360E+03  0.85307827394E+02 -0.10106587920E+01  0.14867954189E+03  0.00000000000E+00 0.  1.
<mgrwt>
<rscale>  0 0.24986049E+04</rscale>
<asrwt>0</asrwt>
<pdfrwt beam="1">  1        1 0.27766367E+00 0.24986049E+04</pdfrwt>
<pdfrwt beam="2">  1       -1 0.13304220E+00 0.24986049E+04</pdfrwt>
<totfact> 0.17178483E+00</totfact>
</mgrwt>
</event>
<event>
12    1  0.1980523E-007  0.3145104E+04  0.7818608E-02  0.8203467E-01
          2   -1    0    0  501    0  0.00000000000E+00  0.00000000000E+00  0.16565556032E+04  0.16565556032E+04  0.00000000000E+00 0. -1.
         -2   -1    0    0    0  501 -0.00000000000E+00 -0.00000000000E+00 -0.14928083732E+04  0.14928083732E+04  0.00000000000E+00 0.  1.
         23    2    1    2    0    0 -0.74042540858E+03 -0.12340426264E+04 -0.14147947097E+02  0.14422003827E+04  0.93009624273E+02 0.  0.
        254    2    1    2    0    0  0.74042540858E+03  0.12340426264E+04  0.17789517709E+03  0.17071635936E+04  0.90092721784E+03 0.  0.
        -24    2    4    4    0    0  0.62476859949E+03  0.11186869036E+04 -0.18899597921E+03  0.12976255936E+04  0.79476473254E+02 0.  0.
         24    2    4    4    0    0  0.11565680909E+03  0.11535572276E+03  0.36689115630E+03  0.40953799998E+03  0.80179876474E+02 0.  0.
         13    1    3    3    0    0 -0.53844461046E+03 -0.89344259391E+03  0.31269206469E+02  0.10436187189E+04  0.00000000000E+00 0. -1.
        -13    1    3    3    0    0 -0.20198079811E+03 -0.34060003247E+03 -0.45417153566E+02  0.39858166386E+03  0.00000000000E+00 0.  1.
          4    1    6    6  502    0 -0.89301945434E+01  0.57903081818E+01  0.57425101386E+02  0.58403067665E+02  0.00000000000E+00 0. -1.
          1    1    5    5  503    0  0.54607771020E+02  0.14703343836E+03 -0.13112900851E+02  0.15739373819E+03  0.00000000000E+00 0. -1.
         -2    1    5    5    0  503  0.57016082847E+03  0.97165346525E+03 -0.17588307836E+03  0.11402318554E+04  0.00000000000E+00 0.  1.
         -3    1    6    6    0  502  0.12458700363E+03  0.10956541458E+03  0.30946605491E+03  0.35113493231E+03  0.00000000000E+00 0.  1.
<mgrwt>
<rscale>  0 0.31451042E+04</rscale>
<asrwt>0</asrwt>
<pdfrwt beam="1">  1        2 0.25485471E+00 0.31451042E+04</pdfrwt>
<pdfrwt beam="2">  1       -2 0.22966283E+00 0.31451042E+04</pdfrwt>
<totfact> 0.75361800E-01</totfact>
</mgrwt>
</event>
<event>
12    1  0.1980523E-007  0.2110065E+04  0.7818608E-02  0.8556823E-01
         -2   -1    0    0    0  501 -0.00000000000E+00  0.00000000000E+00  0.40746256777E+03  0.40746256777E+03  0.00000000000E+00 0.  1.
          2   -1    0    0  501    0  0.00000000000E+00 -0.00000000000E+00 -0.27317681319E+04  0.27317681319E+04  0.00000000000E+00 0. -1.
         23    2    1    2    0    0  0.32167205238E+03  0.46235198780E+03 -0.19200377797E+04  0.20030527011E+04  0.91830157517E+02 0.  0.
        254    2    1    2    0    0 -0.32167205238E+03 -0.46235198780E+03 -0.40426778441E+03  0.11361779986E+04  0.90012539852E+03 0.  0.
        -24    2    4    4    0    0 -0.10874001859E+03 -0.47687805649E+03 -0.63897589178E+03  0.80871542468E+03  0.80581483172E+02 0.  0.
         24    2    4    4    0    0 -0.21293203379E+03  0.14526068688E+02  0.23470810737E+03  0.32746257391E+03  0.81195960251E+02 0.  0.
         11    1    3    3    0    0  0.21183154484E+03  0.27091341574E+03 -0.13072798683E+04  0.13517571291E+04  0.00000000000E+00 0. -1.
        -11    1    3    3    0    0  0.10984050754E+03  0.19143857206E+03 -0.61275791146E+03  0.65129557194E+03  0.00000000000E+00 0.  1.
          4    1    6    6  502    0 -0.98497862827E+02 -0.33700085148E+02  0.11095215195E+03  0.15214435495E+03  0.00000000000E+00 0. -1.
          3    1    5    5  503    0 -0.13925759777E+01 -0.13175266638E+03 -0.20828109852E+03  0.24645835423E+03  0.00000000000E+00 0. -1.
         -4    1    5    5    0  503 -0.10734744261E+03 -0.34512539011E+03 -0.43069479326E+03  0.56225707045E+03  0.00000000000E+00 0.  1.
         -3    1    6    6    0  502 -0.11443417097E+03  0.48226153836E+02  0.12375595542E+03  0.17531821896E+03  0.00000000000E+00 0.  1.
<mgrwt>
<rscale>  0 0.21100647E+04</rscale>
<asrwt>0</asrwt>
<pdfrwt beam="1">  1        2 0.42027204E+00 0.21100647E+04</pdfrwt>
<pdfrwt beam="2">  1       -2 0.62686546E-01 0.21100647E+04</pdfrwt>
<totfact> 0.55272739E+00</totfact>
</mgrwt>
</event>
<event>
12    1  0.1980523E-007  0.1187443E+04  0.7818608E-02  0.9123920E-01
         -1   -1    0    0    0  501 -0.00000000000E+00  0.00000000000E+00  0.36435418130E+03  0.36435418130E+03  0.00000000000E+00 0.  1.
          1   -1    0    0  501    0  0.00000000000E+00 -0.00000000000E+00 -0.96747882497E+03  0.96747882497E+03  0.00000000000E+00 0. -1.
         23    2    1    2    0    0 -0.24788175629E+03  0.24132358602E+02 -0.16415609544E+03  0.31183453671E+03  0.90916548466E+02 0.  0.
        254    2    1    2    0    0  0.24788175629E+03 -0.24132358602E+02 -0.43896854823E+03  0.10199984696E+04  0.88638352633E+03 0.  0.
        -24    2    4    4    0    0  0.51648215764E+03 -0.21149181339E+03 -0.37876748631E+03  0.67911336869E+03  0.79041460994E+02 0.  0.
         24    2    4    4    0    0 -0.26860040135E+03  0.18735945479E+03 -0.60201061916E+02  0.34088510087E+03  0.72998241325E+02 0.  0.
         11    1    3    3    0    0  0.46344833788E+01  0.89687976301E+01  0.31038476173E+00  0.10100203256E+02  0.00000000000E+00 0.  1.
        -11    1    3    3    0    0 -0.25251623967E+03  0.15163560972E+02 -0.16446648020E+03  0.30173433345E+03  0.00000000000E+00 0. -1.
          4    1    6    6  502    0 -0.24301358345E+03  0.18578622236E+03 -0.69364297461E+02  0.31366148619E+03  0.00000000000E+00 0. -1.
          3    1    5    5  503    0  0.16504616188E+03 -0.79708129657E+02 -0.82768672294E+02  0.20110761944E+03  0.00000000000E+00 0. -1.
         -4    1    5    5    0  503  0.35143599576E+03 -0.13178368374E+03 -0.29599881402E+03  0.47800574925E+03  0.00000000000E+00 0.  1.
         -3    1    6    6    0  502 -0.25586817900E+02  0.15732324330E+01  0.91632355452E+01  0.27223614679E+02  0.00000000000E+00 0.  1.
<mgrwt>
<rscale>  0 0.11874426E+04</rscale>
<asrwt>0</asrwt>
<pdfrwt beam="1">  1        1 0.14884289E+00 0.11874426E+04</pdfrwt>
<pdfrwt beam="2">  1       -1 0.56054490E-01 0.11874426E+04</pdfrwt>
<totfact> 0.51190499E+01</totfact>
</mgrwt>
</event>
<event>
12    1  0.1980523E-007  0.2652274E+04  0.7818608E-02  0.8350658E-01
          2   -1    0    0  501    0  0.00000000000E+00  0.00000000000E+00  0.11090745254E+04  0.11090745254E+04  0.00000000000E+00 0. -1.
         -2   -1    0    0    0  501 -0.00000000000E+00 -0.00000000000E+00 -0.15856822178E+04  0.15856822178E+04  0.00000000000E+00 0.  1.
         23    2    1    2    0    0  0.10082136101E+04 -0.40245410625E+02 -0.81685841641E+03  0.13013381558E+04  0.90049689769E+02 0.  0.
        254    2    1    2    0    0 -0.10082136101E+04  0.40245410625E+02  0.34025072400E+03  0.13934185874E+04  0.89873824210E+03 0.  0.
        -24    2    4    4    0    0 -0.83406286841E+03 -0.29401883746E+03  0.12399843921E+02  0.88808407882E+03  0.80197441910E+02 0.  0.
         24    2    4    4    0    0 -0.17415074172E+03  0.33426424808E+03  0.32785088008E+03  0.50533450858E+03  0.76260721254E+02 0.  0.
         11    1    3    3    0    0  0.75006830786E+03 -0.67359126109E+02 -0.59187831063E+03  0.95784114179E+03  0.00000000000E+00 0. -1.
        -11    1    3    3    0    0  0.25814530228E+03  0.27113715484E+02 -0.22498010578E+03  0.34349701403E+03  0.00000000000E+00 0.  1.
          2    1    6    6  502    0 -0.30020710411E+02  0.36032139142E+02  0.13800102368E+02  0.48887635759E+02  0.00000000000E+00 0. -1.
          3    1    5    5  503    0 -0.25485598606E+03 -0.12728136941E+03 -0.84088735484E+01  0.28499619257E+03  0.00000000000E+00 0. -1.
         -4    1    5    5    0  503 -0.57920688235E+03 -0.16673746805E+03  0.20808717469E+02  0.60308788625E+03  0.00000000000E+00 0.  1.
         -1    1    6    6    0  502 -0.14413003131E+03  0.29823210894E+03  0.31405077771E+03  0.45644687282E+03  0.00000000000E+00 0.  1.
<mgrwt>
<rscale>  0 0.26522743E+04</rscale>
<asrwt>0</asrwt>
<pdfrwt beam="1">  1        2 0.17062685E+00 0.26522743E+04</pdfrwt>
<pdfrwt beam="2">  1       -2 0.24395111E+00 0.26522743E+04</pdfrwt>
<totfact> 0.13263128E+00</totfact>
</mgrwt>
</event>
<event>
12    1  0.1980523E-007  0.2051626E+04  0.7818608E-02  0.8582857E-01
         -2   -1    0    0    0  501 -0.00000000000E+00  0.00000000000E+00  0.36417288995E+03  0.36417288995E+03  0.00000000000E+00 0.  1.
          2   -1    0    0  501    0  0.00000000000E+00 -0.00000000000E+00 -0.28895400218E+04  0.28895400218E+04  0.00000000000E+00 0. -1.
         23    2    1    2    0    0 -0.54773703251E+03 -0.61366906295E+03 -0.11393736668E+04  0.14081698321E+04  0.90356781020E+02 0.  0.
        254    2    1    2    0    0  0.54773703251E+03  0.61366906295E+03 -0.13859934651E+04  0.18455430797E+04  0.89913613990E+03 0.  0.
        -24    2    4    4    0    0  0.38025056375E+03  0.11463456296E+03 -0.12240035586E+04  0.12891220541E+04  0.76937537454E+02 0.  0.
         24    2    4    4    0    0  0.16748646875E+03  0.49903449999E+03 -0.16198990645E+03  0.55642102554E+03  0.79224229054E+02 0.  0.
         13    1    3    3    0    0 -0.31483764547E+03 -0.41805881510E+03 -0.72400328119E+03  0.89335136820E+03  0.00000000000E+00 0. -1.
        -13    1    3    3    0    0 -0.23289938704E+03 -0.19561024785E+03 -0.41537038564E+03  0.51481846394E+03  0.00000000000E+00 0.  1.
          2    1    6    6  502    0  0.12829893787E+03  0.30739788282E+03 -0.70485791454E+02  0.34047367390E+03  0.00000000000E+00 0. -1.
          1    1    5    5  503    0  0.66235159532E+02  0.38180117407E+02 -0.32248940002E+03  0.33142756501E+03  0.00000000000E+00 0. -1.
         -2    1    5    5    0  503  0.31401540422E+03  0.76454445552E+02 -0.90151415859E+03  0.95769448911E+03  0.00000000000E+00 0.  1.
         -1    1    6    6    0  502  0.39187530882E+02  0.19163661717E+03 -0.91504115000E+02  0.21594735164E+03  0.00000000000E+00 0.  1.
<mgrwt>
<rscale>  0 0.20516258E+04</rscale>
<asrwt>0</asrwt>
<pdfrwt beam="1">  1        2 0.44454461E+00 0.20516258E+04</pdfrwt>
<pdfrwt beam="2">  1       -2 0.56026600E-01 0.20516258E+04</pdfrwt>
<totfact> 0.56522727E+00</totfact>
</mgrwt>
</event>
<event>
12    1  0.1980523E-007  0.2136770E+04  0.7818608E-02  0.8545217E-01
          2   -1    0    0  501    0  0.00000000000E+00  0.00000000000E+00  0.16563396838E+04  0.16563396838E+04  0.00000000000E+00 0. -1.
         -2   -1    0    0    0  501 -0.00000000000E+00 -0.00000000000E+00 -0.68913775539E+03  0.68913775539E+03  0.00000000000E+00 0.  1.
         23    2    1    2    0    0 -0.70397677695E+03 -0.51888604656E+03  0.35288854488E+03  0.94794888738E+03  0.96180747435E+02 0.  0.
        254    2    1    2    0    0  0.70397677695E+03  0.51888604656E+03  0.61431338351E+03  0.13975285518E+04  0.90048824985E+03 0.  0.
        -24    2    4    4    0    0  0.67534742034E+03  0.64065019273E+03  0.74936038733E+03  0.11974321135E+04  0.75999135920E+02 0.  0.
         24    2    4    4    0    0  0.28629356608E+02 -0.12176414616E+03 -0.13504700381E+03  0.20009643833E+03  0.78452176791E+02 0.  0.
         13    1    3    3    0    0 -0.70023360790E+03 -0.50173081954E+03  0.33970457857E+03  0.92599142631E+03  0.00000000000E+00 0.  1.
        -13    1    3    3    0    0 -0.37431690526E+01 -0.17155227028E+02  0.13183966315E+02  0.21957461072E+02  0.00000000000E+00 0. -1.
          4    1    6    6  502    0  0.80409064104E+01 -0.12296693603E+03 -0.97027069639E+02  0.15684315661E+03  0.00000000000E+00 0. -1.
          3    1    5    5  503    0  0.66380924941E+03  0.61836948557E+03  0.71615017584E+03  0.11558090736E+04  0.00000000000E+00 0. -1.
         -4    1    5    5    0  503  0.11538170937E+02  0.22280707154E+02  0.33210211486E+02  0.41623039855E+02  0.00000000000E+00 0.  1.
         -3    1    6    6    0  502  0.20588450198E+02  0.12027898678E+01 -0.38019934174E+02  0.43253281720E+02  0.00000000000E+00 0.  1.
<mgrwt>
<rscale>  0 0.21367697E+04</rscale>
<asrwt>0</asrwt>
<pdfrwt beam="1">  1        2 0.25482149E+00 0.21367697E+04</pdfrwt>
<pdfrwt beam="2">  1       -2 0.10602119E+00 0.21367697E+04</pdfrwt>
<totfact> 0.68444915E+00</totfact>
</mgrwt>
</event>
<event>
12    1  0.1980523E-007  0.4336879E+04  0.7818608E-02  0.7939834E-01
         -2   -1    0    0    0  501 -0.00000000000E+00  0.00000000000E+00  0.12474690260E+04  0.12474690260E+04  0.00000000000E+00 0.  1.
          2   -1    0    0  501    0  0.00000000000E+00 -0.00000000000E+00 -0.37693358270E+04  0.37693358270E+04  0.00000000000E+00 0. -1.
         23    2    1    2    0    0  0.22644365570E+03 -0.17060943016E+04 -0.25425785949E+04  0.30716057510E+04  0.89562731594E+02 0.  0.
        254    2    1    2    0    0 -0.22644365570E+03  0.17060943016E+04  0.20711793925E+02  0.19451991020E+04  0.90627593619E+03 0.  0.
        -24    2    4    4    0    0 -0.52466758286E+03  0.10317324055E+04 -0.18623188381E+03  0.11751171708E+04  0.80437687729E+02 0.  0.
         24    2    4    4    0    0  0.29822392716E+03  0.67436189617E+03  0.20694367773E+03  0.77008193113E+03  0.80616481993E+02 0.  0.
         13    1    3    3    0    0  0.23129895414E+03 -0.16118213059E+04 -0.24216882192E+04  0.29182256526E+04  0.00000000000E+00 0. -1.
        -13    1    3    3    0    0 -0.48552984403E+01 -0.94272995732E+02 -0.12089037571E+03  0.15338009841E+03  0.00000000000E+00 0.  1.
          4    1    6    6  502    0  0.51072868386E+02  0.14376024933E+03  0.11582699768E+02  0.15300198073E+03  0.00000000000E+00 0. -1.
          3    1    5    5  503    0 -0.94993698238E+02  0.15296768852E+03 -0.40388144757E+01  0.18010893498E+03  0.00000000000E+00 0. -1.
         -4    1    5    5    0  503 -0.42967388462E+03  0.87876471695E+03 -0.18219306933E+03  0.99500823585E+03  0.00000000000E+00 0.  1.
         -3    1    6    6    0  502  0.24715105877E+03  0.53060164684E+03  0.19536097797E+03  0.61707995040E+03  0.00000000000E+00 0.  1.
<mgrwt>
<rscale>  0 0.43368789E+04</rscale>
<asrwt>0</asrwt>
<pdfrwt beam="1">  1        2 0.57989781E+00 0.43368789E+04</pdfrwt>
<pdfrwt beam="2">  1       -2 0.19191831E+00 0.43368789E+04</pdfrwt>
<totfact> 0.59682939E-02</totfact>
</mgrwt>
</event>
<event>
12    1  0.1980523E-007  0.1928193E+04  0.7818608E-02  0.8640949E-01
          1   -1    0    0  501    0  0.00000000000E+00  0.00000000000E+00  0.86477901083E+03  0.86477901083E+03  0.00000000000E+00 0. -1.
         -1   -1    0    0    0  501 -0.00000000000E+00 -0.00000000000E+00 -0.10748203067E+04  0.10748203067E+04  0.00000000000E+00 0.  1.
         23    2    1    2    0    0 -0.19502751516E+02 -0.49653654064E+02 -0.83558712112E+03  0.84226313329E+03  0.91408457144E+02 0.  0.
        254    2    1    2    0    0  0.19502751516E+02  0.49653654064E+02  0.62554582524E+03  0.10973361842E+04  0.89999626616E+03 0.  0.
        -24    2    4    4    0    0  0.20837842229E+03  0.41795770632E+03  0.40058560810E+03  0.61958292897E+03  0.72828327643E+02 0.  0.
         24    2    4    4    0    0 -0.18887567077E+03 -0.36830405225E+03  0.22496021714E+03  0.47775325528E+03  0.79493268372E+02 0.  0.
         11    1    3    3    0    0  0.54775040137E+01 -0.19172870393E+02 -0.71743171187E+03  0.71770875932E+03  0.00000000000E+00 0.  1.
        -11    1    3    3    0    0 -0.24980255530E+02 -0.30480783671E+02 -0.11815540925E+03  0.12455437397E+03  0.00000000000E+00 0. -1.
          2    1    6    6  502    0 -0.28101159243E+02 -0.13082306387E+03  0.57341852727E+02  0.14557622493E+03  0.00000000000E+00 0. -1.
          1    1    5    5  503    0  0.40740214779E+02  0.15898718867E+03  0.13485426147E+03  0.21242025115E+03  0.00000000000E+00 0. -1.
         -2    1    5    5    0  503  0.16763820751E+03  0.25897051764E+03  0.26573134663E+03  0.40716267782E+03  0.00000000000E+00 0.  1.
         -1    1    6    6    0  502 -0.16077451153E+03 -0.23748098839E+03  0.16761836441E+03  0.33217703035E+03  0.00000000000E+00 0.  1.
<mgrwt>
<rscale>  0 0.19281930E+04</rscale>
<asrwt>0</asrwt>
<pdfrwt beam="1">  1        1 0.13304293E+00 0.19281930E+04</pdfrwt>
<pdfrwt beam="2">  1       -1 0.16535697E+00 0.19281930E+04</pdfrwt>
<totfact> 0.48384689E+00</totfact>
</mgrwt>
</event>
<event>
12    1  0.1980523E-007  0.1775898E+04  0.7818608E-02  0.8719223E-01
         -2   -1    0    0    0  501 -0.00000000000E+00  0.00000000000E+00  0.16753703160E+04  0.16753703160E+04  0.00000000000E+00 0.  1.
          2   -1    0    0  501    0  0.00000000000E+00 -0.00000000000E+00 -0.47061448914E+03  0.47061448914E+03  0.00000000000E+00 0. -1.
         23    2    1    2    0    0  0.59940699896E+03  0.11524298204E+03  0.15768809816E+03  0.63702089192E+03  0.91435141638E+02 0.  0.
        254    2    1    2    0    0 -0.59940699896E+03 -0.11524298204E+03  0.10470677287E+04  0.15089639133E+04  0.89891688585E+03 0.  0.
        -24    2    4    4    0    0 -0.28399069157E+03  0.22409267694E+03  0.10209373284E+02  0.37044634452E+03  0.79107661527E+02 0.  0.
         24    2    4    4    0    0 -0.31541630739E+03 -0.33933565897E+03  0.10368583554E+04  0.11385175687E+04  0.80689953828E+02 0.  0.
         11    1    3    3    0    0  0.11341279625E+03  0.63232919240E+01 -0.31857410132E+01  0.11363360120E+03  0.00000000000E+00 0. -1.
        -11    1    3    3    0    0  0.48599420270E+03  0.10891969011E+03  0.16087383917E+03  0.52338729072E+03  0.00000000000E+00 0.  1.
          2    1    6    6  502    0 -0.65332423601E+02 -0.40117103109E+02  0.22835295977E+03  0.24087918501E+03  0.00000000000E+00 0. -1.
          3    1    5    5  503    0 -0.11314071051E+03  0.57935370793E+02 -0.24969441356E+02  0.12954072937E+03  0.00000000000E+00 0. -1.
         -4    1    5    5    0  503 -0.17084998106E+03  0.16615730614E+03  0.35178814640E+02  0.24090561515E+03  0.00000000000E+00 0.  1.
         -1    1    6    6    0  502 -0.25008388378E+03 -0.29921855587E+03  0.80850539567E+03  0.89763838372E+03  0.00000000000E+00 0.  1.
<mgrwt>
<rscale>  0 0.17758981E+04</rscale>
<asrwt>0</asrwt>
<pdfrwt beam="1">  1        2 0.72402230E-01 0.17758981E+04</pdfrwt>
<pdfrwt beam="2">  1       -2 0.25774928E+00 0.17758981E+04</pdfrwt>
<totfact> 0.35992215E+00</totfact>
</mgrwt>
</event>
<event>
12    1  0.1980523E-007  0.2204341E+04  0.7818608E-02  0.8516623E-01
          2   -1    0    0  501    0  0.00000000000E+00  0.00000000000E+00  0.14260412095E+04  0.14260412095E+04  0.00000000000E+00 0. -1.
         -2   -1    0    0    0  501 -0.00000000000E+00 -0.00000000000E+00 -0.85185483425E+03  0.85185483425E+03  0.00000000000E+00 0.  1.
         23    2    1    2    0    0 -0.88593311146E+03  0.18703477110E+03  0.38667655456E+03  0.98839603661E+03  0.86882010516E+02 0.  0.
        254    2    1    2    0    0  0.88593311146E+03 -0.18703477110E+03  0.18750982070E+03  0.12895000071E+04  0.89877185759E+03 0.  0.
        -24    2    4    4    0    0 -0.21783483585E+02  0.24598170982E+03  0.96924819565E+02  0.27661660009E+03  0.78363263573E+02 0.  0.
         24    2    4    4    0    0  0.90771659505E+03 -0.43301648092E+03  0.90585001136E+02  0.10128834071E+04  0.79211515448E+02 0.  0.
         13    1    3    3    0    0 -0.10764923742E+03  0.58331317669E+01  0.22053448813E+02  0.11003971259E+03  0.00000000000E+00 0.  1.
        -13    1    3    3    0    0 -0.77828387405E+03  0.18120163934E+03  0.36462310575E+03  0.87835632402E+03  0.00000000000E+00 0. -1.
          2    1    6    6  502    0  0.41259478559E+03 -0.15331162567E+03  0.38701854798E+02  0.44185602318E+03  0.00000000000E+00 0. -1.
          1    1    5    5  503    0  0.22378761129E+02  0.85999369160E+02  0.58096656365E+02  0.10616930784E+03  0.00000000000E+00 0. -1.
         -2    1    5    5    0  503 -0.44162244714E+02  0.15998234066E+03  0.38828163200E+02  0.17044729226E+03  0.00000000000E+00 0.  1.
         -1    1    6    6    0  502  0.49512180946E+03 -0.27970485525E+03  0.51883146338E+02  0.57102738387E+03  0.00000000000E+00 0.  1.
<mgrwt>
<rscale>  0 0.22043413E+04</rscale>
<asrwt>0</asrwt>
<pdfrwt beam="1">  1        2 0.21939095E+00 0.22043413E+04</pdfrwt>
<pdfrwt beam="2">  1       -2 0.13105459E+00 0.22043413E+04</pdfrwt>
<totfact> 0.54371835E+00</totfact>
</mgrwt>
</event>
<event>
12    1  0.1980523E-007  0.1803272E+04  0.7818608E-02  0.8704561E-01
          2   -1    0    0  501    0  0.00000000000E+00  0.00000000000E+00  0.82924802962E+03  0.82924802962E+03  0.00000000000E+00 0. -1.
         -2   -1    0    0    0  501 -0.00000000000E+00 -0.00000000000E+00 -0.98034330444E+03  0.98034330444E+03  0.00000000000E+00 0.  1.
         23    2    1    2    0    0  0.40234233053E+03  0.53411475451E+03  0.13040857636E+02  0.67620866967E+03  0.99650283708E+02 0.  0.
        254    2    1    2    0    0 -0.40234233053E+03 -0.53411475451E+03 -0.16413613246E+03  0.11333826644E+04  0.90025422634E+03 0.  0.
        -24    2    4    4    0    0 -0.33717554645E+03  0.15314576069E+03 -0.21712664406E+03  0.43652681113E+03  0.79187777689E+02 0.  0.
         24    2    4    4    0    0 -0.65166784079E+02 -0.68726051520E+03  0.52990511604E+02  0.69685585326E+03  0.78907289945E+02 0.  0.
         13    1    3    3    0    0  0.13720595903E+03  0.11910985596E+03  0.26141864676E+02  0.18356478440E+03  0.00000000000E+00 0. -1.
        -13    1    3    3    0    0  0.26513637150E+03  0.41500489855E+03 -0.13101007040E+02  0.49264388527E+03  0.00000000000E+00 0.  1.
          4    1    6    6  502    0 -0.75440502935E+02 -0.38698676089E+03  0.36413069084E+02  0.39594940862E+03  0.00000000000E+00 0. -1.
          3    1    5    5  503    0 -0.71887123431E+02  0.63601343882E+02 -0.33366579891E+02  0.10161800093E+03  0.00000000000E+00 0. -1.
         -4    1    5    5    0  503 -0.26528842302E+03  0.89544416804E+02 -0.18376006417E+03  0.33490881021E+03  0.00000000000E+00 0.  1.
         -3    1    6    6    0  502  0.10273718856E+02 -0.30027375430E+03  0.16577442520E+02  0.30090644464E+03  0.00000000000E+00 0.  1.
<mgrwt>
<rscale>  0 0.18032723E+04</rscale>
<asrwt>0</asrwt>
<pdfrwt beam="1">  1        2 0.12757662E+00 0.18032723E+04</pdfrwt>
<pdfrwt beam="2">  1       -2 0.15082205E+00 0.18032723E+04</pdfrwt>
<totfact> 0.91452987E+00</totfact>
</mgrwt>
</event>
<event>
12    1  0.1980523E-007  0.2195887E+04  0.7818608E-02  0.8520142E-01
          3   -1    0    0  501    0  0.00000000000E+00  0.00000000000E+00  0.64806783210E+03  0.64806783210E+03  0.00000000000E+00 0. -1.
         -3   -1    0    0    0  501 -0.00000000000E+00 -0.00000000000E+00 -0.18601134249E+04  0.18601134249E+04  0.00000000000E+00 0.  1.
         23    2    1    2    0    0 -0.79167884981E+03  0.42366812480E+03 -0.68363884393E+03  0.11313022623E+04  0.78947188678E+02 0.  0.
        254    2    1    2    0    0  0.79167884981E+03 -0.42366812480E+03 -0.52840674881E+03  0.13768789946E+04  0.90018442136E+03 0.  0.
        -24    2    4    4    0    0  0.82402349428E+03 -0.37702174371E+03 -0.74491826126E+02  0.91248781187E+03  0.76973114209E+02 0.  0.
         24    2    4    4    0    0 -0.32344644469E+02 -0.46646381086E+02 -0.45391492269E+03  0.46439118276E+03  0.79989703637E+02 0.  0.
         13    1    3    3    0    0 -0.28505849660E+03  0.14424729400E+03 -0.19737763480E+03  0.37553103604E+03  0.00000000000E+00 0. -1.
        -13    1    3    3    0    0 -0.50662035320E+03  0.27942083080E+03 -0.48626120914E+03  0.75577122628E+03  0.00000000000E+00 0.  1.
          2    1    6    6  502    0 -0.33244543075E+02  0.95756962768E+01 -0.26610555905E+03  0.26834504311E+03  0.00000000000E+00 0. -1.
          1    1    5    5  503    0  0.49863337904E+03 -0.23539455009E+03 -0.82384511149E+02  0.55752403409E+03  0.00000000000E+00 0. -1.
         -2    1    5    5    0  503  0.32539011523E+03 -0.14162719362E+03  0.78926850236E+01  0.35496377779E+03  0.00000000000E+00 0.  1.
         -1    1    6    6    0  502  0.89989860627E+00 -0.56222077363E+02 -0.18780936364E+03  0.19604613965E+03  0.00000000000E+00 0.  1.
<mgrwt>
<rscale>  0 0.21958868E+04</rscale>
<asrwt>0</asrwt>
<pdfrwt beam="1">  1        3 0.99702743E-01 0.21958868E+04</pdfrwt>
<pdfrwt beam="2">  1       -3 0.28617130E+00 0.21958868E+04</pdfrwt>
<totfact> 0.95588197E-02</totfact>
</mgrwt>
</event>
<event>
12    1  0.1980523E-007  0.2241673E+04  0.7818608E-02  0.8501281E-01
          1   -1    0    0  501    0  0.00000000000E+00  0.00000000000E+00  0.12079442143E+04  0.12079442143E+04  0.00000000000E+00 0. -1.
         -1   -1    0    0    0  501 -0.00000000000E+00 -0.00000000000E+00 -0.10400099404E+04  0.10400099404E+04  0.00000000000E+00 0.  1.
         23    2    1    2    0    0 -0.51900393046E+03  0.75543515869E+03  0.27639380494E+03  0.96193521194E+03  0.94225568399E+02 0.  0.
        254    2    1    2    0    0  0.51900393046E+03 -0.75543515869E+03 -0.10845953104E+03  0.12860189429E+04  0.89556344983E+03 0.  0.
        -24    2    4    4    0    0  0.41576102593E+03 -0.81215838459E+03 -0.37008564896E+03  0.98819211598E+03  0.84272167296E+02 0.  0.
         24    2    4    4    0    0  0.10324290453E+03  0.56723225898E+02  0.26162611792E+03  0.29782682687E+03  0.79849680843E+02 0.  0.
         11    1    3    3    0    0 -0.10055106187E+03  0.97533551807E+02  0.22126934638E+02  0.14181999509E+03  0.00000000000E+00 0.  1.
        -11    1    3    3    0    0 -0.41845286859E+03  0.65790160688E+03  0.25426687030E+03  0.82011521685E+03  0.00000000000E+00 0. -1.
          2    1    6    6  502    0 -0.12941603524E+02  0.43773524623E+01  0.38807686938E+02  0.41142227477E+02  0.00000000000E+00 0. -1.
          3    1    5    5  503    0  0.95612406704E+02 -0.27257804787E+03 -0.11508796874E+03  0.31094334700E+03  0.00000000000E+00 0. -1.
         -4    1    5    5    0  503  0.32014861923E+03 -0.53958033672E+03 -0.25499768023E+03  0.67724876898E+03  0.00000000000E+00 0.  1.
         -1    1    6    6    0  502  0.11618450806E+03  0.52345873436E+02  0.22281843099E+03  0.25668459939E+03  0.00000000000E+00 0.  1.
<mgrwt>
<rscale>  0 0.22416726E+04</rscale>
<asrwt>0</asrwt>
<pdfrwt beam="1">  1        1 0.18583757E+00 0.22416726E+04</pdfrwt>
<pdfrwt beam="2">  1       -1 0.16000153E+00 0.22416726E+04</pdfrwt>
<totfact> 0.27992756E+00</totfact>
</mgrwt>
</event>
<event>
12    1  0.1980523E-007  0.2576049E+04  0.7818608E-02  0.8376383E-01
          2   -1    0    0  501    0  0.00000000000E+00  0.00000000000E+00  0.16711254367E+04  0.16711254367E+04  0.00000000000E+00 0. -1.
         -2   -1    0    0    0  501 -0.00000000000E+00 -0.00000000000E+00 -0.99274810247E+03  0.99274810247E+03  0.00000000000E+00 0.  1.
         23    2    1    2    0    0 -0.72155333548E+02 -0.98661239991E+03 -0.26340373659E+03  0.10277978721E+04  0.91523317174E+02 0.  0.
        254    2    1    2    0    0  0.72155333548E+02  0.98661239991E+03  0.94178107080E+03  0.16360756671E+04  0.90065619589E+03 0.  0.
        -24    2    4    4    0    0 -0.39653537945E+03  0.46274913264E+03  0.56301305759E+03  0.83394742158E+03  0.84306180216E+02 0.  0.
         24    2    4    4    0    0  0.46869071300E+03  0.52386326727E+03  0.37876801321E+03  0.80212824547E+03  0.76425173278E+02 0.  0.
         13    1    3    3    0    0 -0.43497658749E+02 -0.67765981288E+03 -0.22389811088E+03  0.71501414836E+03  0.00000000000E+00 0.  1.
        -13    1    3    3    0    0 -0.28657674799E+02 -0.30895258704E+03 -0.39505625716E+02  0.31278372372E+03  0.00000000000E+00 0. -1.
          4    1    6    6  502    0  0.10929426460E+03  0.10374982105E+03  0.11500499783E+03  0.18956637668E+03  0.00000000000E+00 0. -1.
          1    1    5    5  503    0 -0.37804440027E+02  0.17693221489E+02  0.23394939718E+02  0.47849231727E+02  0.00000000000E+00 0. -1.
         -2    1    5    5    0  503 -0.35873093943E+03  0.44505591115E+03  0.53961811788E+03  0.78609818986E+03  0.00000000000E+00 0.  1.
         -3    1    6    6    0  502  0.35939644840E+03  0.42011344622E+03  0.26376301538E+03  0.61256186879E+03  0.00000000000E+00 0.  1.
<mgrwt>
<rscale>  0 0.25760486E+04</rscale>
<asrwt>0</asrwt>
<pdfrwt beam="1">  1        2 0.25709622E+00 0.25760486E+04</pdfrwt>
<pdfrwt beam="2">  1       -2 0.15273048E+00 0.25760486E+04</pdfrwt>
<totfact> 0.25762804E+00</totfact>
</mgrwt>
</event>
<event>
12    1  0.2162338E-007  0.2900996E+04  0.7818608E-02  0.8272581E-01
         -2   -1    0    0    0  501 -0.00000000000E+00  0.00000000000E+00  0.11951270320E+04  0.11951270320E+04  0.00000000000E+00 0.  1.
          2   -1    0    0  501    0  0.00000000000E+00 -0.00000000000E+00 -0.17604360987E+04  0.17604360987E+04  0.00000000000E+00 0. -1.
         23    2    1    2    0    0 -0.74719087073E+03  0.40815999037E+03 -0.12683469736E+04  0.15307051661E+04  0.97290724472E+02 0.  0.
        254    2    1    2    0    0  0.74719087073E+03 -0.40815999037E+03  0.70303790693E+03  0.14248579646E+04  0.90059377397E+03 0.  0.
        -24    2    4    4    0    0  0.53193948478E+02 -0.50932291126E+03  0.18817386433E+03  0.55106911623E+03  0.77642408261E+02 0.  0.
         24    2    4    4    0    0  0.69399692226E+03  0.10116292089E+03  0.51486404260E+03  0.87378884839E+03  0.80971010505E+02 0.  0.
         11    1    3    3    0    0 -0.24388149200E+03  0.86642724430E+02 -0.41605118428E+03  0.48998339949E+03  0.00000000000E+00 0. -1.
        -11    1    3    3    0    0 -0.50330937873E+03  0.32151726594E+03 -0.85229578928E+03  0.10407217666E+04  0.00000000000E+00 0.  1.
          2    1    6    6  502    0  0.33639502020E+03  0.93125563433E+01  0.25728644823E+03  0.42360907658E+03  0.00000000000E+00 0. -1.
          1    1    5    5  503    0 -0.19246845327E+02 -0.12630398529E+03  0.37482613387E+02  0.13314685149E+03  0.00000000000E+00 0. -1.
         -2    1    5    5    0  503  0.72440793805E+02 -0.38301892597E+03  0.15069125094E+03  0.41792226474E+03  0.00000000000E+00 0.  1.
         -1    1    6    6    0  502  0.35760190206E+03  0.91850364543E+02  0.25757759437E+03  0.45017977180E+03  0.00000000000E+00 0.  1.
<mgrwt>
<rscale>  0 0.29009962E+04</rscale>
<asrwt>0</asrwt>
<pdfrwt beam="1">  1        2 0.27083632E+00 0.29009962E+04</pdfrwt>
<pdfrwt beam="2">  1       -2 0.18386570E+00 0.29009962E+04</pdfrwt>
<totfact> 0.13362208E+00</totfact>
</mgrwt>
</event>
<event>
12    1  0.1980523E-007  0.2574387E+04  0.7818608E-02  0.8376954E-01
          1   -1    0    0  501    0  0.00000000000E+00  0.00000000000E+00  0.14822212176E+04  0.14822212176E+04  0.00000000000E+00 0. -1.
         -1   -1    0    0    0  501 -0.00000000000E+00 -0.00000000000E+00 -0.11178269558E+04  0.11178269558E+04  0.00000000000E+00 0.  1.
         23    2    1    2    0    0 -0.85784625496E+03  0.70872455718E+03  0.34639227912E+03  0.11688716156E+04  0.89902989539E+02 0.  0.
        254    2    1    2    0    0  0.85784625496E+03 -0.70872455718E+03  0.18001982635E+02  0.14311765578E+04  0.89986197453E+03 0.  0.
        -24    2    4    4    0    0  0.86881166789E+03 -0.27239455932E+03 -0.20192332083E+03  0.93620377326E+03  0.81682111608E+02 0.  0.
         24    2    4    4    0    0 -0.10965412933E+02 -0.43632999787E+03  0.21992530347E+03  0.49497278457E+03  0.78273948699E+02 0.  0.
         13    1    3    3    0    0 -0.27012433353E+03  0.21684076580E+03  0.15155102815E+03  0.37809362255E+03  0.00000000000E+00 0. -1.
        -13    1    3    3    0    0 -0.58772192143E+03  0.49188379138E+03  0.19484125097E+03  0.79077799301E+03  0.00000000000E+00 0.  1.
          4    1    6    6  502    0 -0.26339790098E+02 -0.50834711942E+02  0.21717316704E+02  0.61233931161E+02  0.00000000000E+00 0. -1.
          3    1    5    5  503    0  0.24410337649E+03 -0.11542345095E+03 -0.56524958347E+02  0.27586971990E+03  0.00000000000E+00 0. -1.
         -4    1    5    5    0  503  0.62470829140E+03 -0.15697110837E+03 -0.14539836249E+03  0.66033405336E+03  0.00000000000E+00 0.  1.
         -3    1    6    6    0  502  0.15374377165E+02 -0.38549528592E+03  0.19820798676E+03  0.43373885341E+03  0.00000000000E+00 0.  1.
<mgrwt>
<rscale>  0 0.25743868E+04</rscale>
<asrwt>0</asrwt>
<pdfrwt beam="1">  1        1 0.22803403E+00 0.25743868E+04</pdfrwt>
<pdfrwt beam="2">  1       -1 0.17197338E+00 0.25743868E+04</pdfrwt>
<totfact> 0.14139668E+00</totfact>
</mgrwt>
</event>
<event>
12    1  0.1980523E-007  0.4247229E+04  0.7818608E-02  0.7956449E-01
          2   -1    0    0  501    0  0.00000000000E+00  0.00000000000E+00  0.39784994858E+04  0.39784994858E+04  0.00000000000E+00 0. -1.
         -2   -1    0    0    0  501 -0.00000000000E+00 -0.00000000000E+00 -0.11335274249E+04  0.11335274249E+04  0.00000000000E+00 0.  1.
         23    2    1    2    0    0  0.18969573178E+04 -0.69143484000E+03  0.15839435391E+04  0.25678287654E+04  0.91313909134E+02 0.  0.
        254    2    1    2    0    0 -0.18969573178E+04  0.69143484000E+03  0.12610285219E+04  0.25441981453E+04  0.89789869475E+03 0.  0.
        -24    2    4    4    0    0 -0.19710790301E+04  0.63004813831E+03  0.11138009632E+04  0.23514235246E+04  0.80788654901E+02 0.  0.
         24    2    4    4    0    0  0.74121712349E+02  0.61386701691E+02  0.14722755869E+03  0.19277462070E+03  0.78890715310E+02 0.  0.
         11    1    3    3    0    0  0.39317937697E+03 -0.13207165236E+03  0.28130346127E+03  0.50116322805E+03  0.00000000000E+00 0.  1.
        -11    1    3    3    0    0  0.15037779408E+04 -0.55936318763E+03  0.13026400778E+04  0.20666655374E+04  0.00000000000E+00 0. -1.
          4    1    6    6  502    0  0.62448377233E+02  0.80416899614E+02  0.12567835531E+03  0.16174587029E+03  0.00000000000E+00 0. -1.
          3    1    5    5  503    0 -0.71858141754E+03  0.26135268839E+03  0.38339898526E+03  0.85537083377E+03  0.00000000000E+00 0. -1.
         -4    1    5    5    0  503 -0.12524976126E+04  0.36869544992E+03  0.73040197795E+03  0.14960526908E+04  0.00000000000E+00 0.  1.
         -3    1    6    6    0  502  0.11673335117E+02 -0.19030197922E+02  0.21549203385E+02  0.31028750414E+02  0.00000000000E+00 0.  1.
<mgrwt>
<rscale>  0 0.42472289E+04</rscale>
<asrwt>0</asrwt>
<pdfrwt beam="1">  1        2 0.61207684E+00 0.42472289E+04</pdfrwt>
<pdfrwt beam="2">  1       -2 0.17438884E+00 0.42472289E+04</pdfrwt>
<totfact> 0.54430707E-02</totfact>
</mgrwt>
</event>
<event>
12    1  0.1980523E-007  0.1996574E+04  0.7818608E-02  0.8608224E-01
         -2   -1    0    0    0  501 -0.00000000000E+00  0.00000000000E+00  0.33630320756E+03  0.33630320756E+03  0.00000000000E+00 0.  1.
          2   -1    0    0  501    0  0.00000000000E+00 -0.00000000000E+00 -0.29633299273E+04  0.29633299273E+04  0.00000000000E+00 0. -1.
         23    2    1    2    0    0 -0.73726970888E+03  0.22960016512E+03 -0.74154839232E+03  0.10741717610E+04  0.87567656707E+02 0.  0.
        254    2    1    2    0    0  0.73726970888E+03 -0.22960016512E+03 -0.18854783274E+04  0.22254613738E+04  0.89519100977E+03 0.  0.
        -24    2    4    4    0    0  0.67489465488E+03  0.13312139918E+03 -0.71200769751E+03  0.99308302988E+03  0.77812857615E+02 0.  0.
         24    2    4    4    0    0  0.62375053997E+02 -0.36272156430E+03 -0.11734706299E+04  0.12323783440E+04  0.79154803524E+02 0.  0.
         13    1    3    3    0    0 -0.54987094817E+03  0.19687481449E+03 -0.51832047506E+03  0.78088018740E+03  0.00000000000E+00 0.  1.
        -13    1    3    3    0    0 -0.18739876071E+03  0.32725350634E+02 -0.22322791726E+03  0.29329157358E+03  0.00000000000E+00 0. -1.
          2    1    6    6  502    0  0.43644646039E+02 -0.10854301078E+03 -0.28506976263E+03  0.30814154196E+03  0.00000000000E+00 0. -1.
          1    1    5    5  503    0  0.38224452040E+03  0.83529296282E+02 -0.35018421500E+03  0.52508761283E+03  0.00000000000E+00 0. -1.
         -2    1    5    5    0  503  0.29265013448E+03  0.49592102900E+02 -0.36182348250E+03  0.46799541704E+03  0.00000000000E+00 0.  1.
         -1    1    6    6    0  502  0.18730407958E+02 -0.25417855353E+03 -0.88840086724E+03  0.92423680199E+03  0.00000000000E+00 0.  1.
<mgrwt>
<rscale>  0 0.19965744E+04</rscale>
<asrwt>0</asrwt>
<pdfrwt beam="1">  1        2 0.45589689E+00 0.19965744E+04</pdfrwt>
<pdfrwt beam="2">  1       -2 0.51738957E-01 0.19965744E+04</pdfrwt>
<totfact> 0.60317242E+00</totfact>
</mgrwt>
</event>
<event>
12    1  0.2510859E-007  0.2831725E+04  0.7818608E-02  0.8293486E-01
          3   -1    0    0  501    0  0.00000000000E+00  0.00000000000E+00  0.28654043328E+04  0.28654043328E+04  0.00000000000E+00 0. -1.
         -3   -1    0    0    0  501 -0.00000000000E+00 -0.00000000000E+00 -0.69961042651E+03  0.69961042651E+03  0.00000000000E+00 0.  1.
         23    2    1    2    0    0  0.60315973373E+03 -0.95356721403E+03  0.17105757124E+04  0.20513098537E+04  0.93331410037E+02 0.  0.
        254    2    1    2    0    0 -0.60315973373E+03  0.95356721403E+03  0.45521819386E+03  0.15137049055E+04  0.90054807810E+03 0.  0.
        -24    2    4    4    0    0 -0.69368541966E+03  0.87545462593E+03  0.92063625083E+02  0.11235558727E+04  0.79257962121E+02 0.  0.
         24    2    4    4    0    0  0.90525685936E+02  0.78112588101E+02  0.36315456878E+03  0.39014903281E+03  0.77708112495E+02 0.  0.
         13    1    3    3    0    0  0.25953143615E+03 -0.36430607198E+03  0.74799176842E+03  0.87153150606E+03  0.00000000000E+00 0. -1.
        -13    1    3    3    0    0  0.34362829757E+03 -0.58926114205E+03  0.96258394398E+03  0.11797783477E+04  0.00000000000E+00 0.  1.
          4    1    6    6  502    0  0.32456372067E+02  0.15080494754E+02  0.31751346825E+02  0.47843342640E+02  0.00000000000E+00 0. -1.
          3    1    5    5  503    0 -0.20731800892E+03  0.25770624342E+03  0.63595815382E+02  0.33680512534E+03  0.00000000000E+00 0. -1.
         -4    1    5    5    0  503 -0.48636741075E+03  0.61774838250E+03  0.28467809701E+02  0.78675074739E+03  0.00000000000E+00 0.  1.
         -3    1    6    6    0  502  0.58069313869E+02  0.63032093346E+02  0.33140322195E+03  0.34230569017E+03  0.00000000000E+00 0.  1.
<mgrwt>
<rscale>  0 0.28317251E+04</rscale>
<asrwt>0</asrwt>
<pdfrwt beam="1">  1        3 0.44083143E+00 0.28317251E+04</pdfrwt>
<pdfrwt beam="2">  1       -3 0.10763237E+00 0.28317251E+04</pdfrwt>
<totfact> 0.11270376E-02</totfact>
</mgrwt>
</event>
<event>
12    1  0.1980523E-007  0.2429545E+04  0.7818608E-02  0.8428524E-01
         -1   -1    0    0    0  501 -0.00000000000E+00  0.00000000000E+00  0.49573223980E+03  0.49573223980E+03  0.00000000000E+00 0.  1.
          1   -1    0    0  501    0  0.00000000000E+00 -0.00000000000E+00 -0.29767532878E+04  0.29767532878E+04  0.00000000000E+00 0. -1.
         23    2    1    2    0    0  0.67536697396E+03 -0.31392731359E+02  0.68653673471E+02  0.68526144603E+03  0.88112822174E+02 0.  0.
        254    2    1    2    0    0 -0.67536697396E+03  0.31392731359E+02 -0.25496747215E+04  0.27872240816E+04  0.90037261314E+03 0.  0.
        -24    2    4    4    0    0 -0.87258607954E+03  0.38319989373E+02 -0.22863677196E+04  0.24488190881E+04  0.79766465856E+02 0.  0.
         24    2    4    4    0    0  0.19721910558E+03 -0.69272580139E+01 -0.26330700185E+03  0.33840499348E+03  0.79018984323E+02 0.  0.
         13    1    3    3    0    0  0.36513405014E+03 -0.58635770723E+02  0.51277730567E+02  0.37335028302E+03  0.00000000000E+00 0. -1.
        -13    1    3    3    0    0  0.31023292382E+03  0.27243039364E+02  0.17375942905E+02  0.31191116301E+03  0.00000000000E+00 0.  1.
          4    1    6    6  502    0  0.70842486533E+02  0.21171176955E+01 -0.15975838925E+03  0.17477380531E+03  0.00000000000E+00 0. -1.
          3    1    5    5  503    0 -0.10250173980E+03  0.22562215289E+02 -0.32981375511E+03  0.34611092627E+03  0.00000000000E+00 0. -1.
         -4    1    5    5    0  503 -0.77008433974E+03  0.15757774084E+02 -0.19565539645E+04  0.21027081618E+04  0.00000000000E+00 0.  1.
         -3    1    6    6    0  502  0.12637661904E+03 -0.90443757095E+01 -0.10354861260E+03  0.16363118817E+03  0.00000000000E+00 0.  1.
<mgrwt>
<rscale>  0 0.24295453E+04</rscale>
<asrwt>0</asrwt>
<pdfrwt beam="1">  1        1 0.45796204E+00 0.24295453E+04</pdfrwt>
<pdfrwt beam="2">  1       -1 0.76266499E-01 0.24295453E+04</pdfrwt>
<totfact> 0.95908422E-01</totfact>
</mgrwt>
</event>
<event>
12    1  0.1980523E-007  0.2186945E+04  0.7818608E-02  0.8523881E-01
          1   -1    0    0  501    0  0.00000000000E+00  0.00000000000E+00  0.14592992954E+04  0.14592992954E+04  0.00000000000E+00 0. -1.
         -1   -1    0    0    0  501 -0.00000000000E+00 -0.00000000000E+00 -0.81935394307E+03  0.81935394307E+03  0.00000000000E+00 0.  1.
         23    2    1    2    0    0  0.67666989623E+03  0.59830794475E+03  0.20060679365E+03  0.92998541843E+03  0.93676291715E+02 0.  0.
        254    2    1    2    0    0 -0.67666989623E+03 -0.59830794475E+03  0.43933855872E+03  0.13486678201E+04  0.90001776344E+03 0.  0.
        -24    2    4    4    0    0 -0.81000059642E+03 -0.39920340088E+03  0.56242683919E+03  0.10670794912E+04  0.82887693279E+02 0.  0.
         24    2    4    4    0    0  0.13333070019E+03 -0.19910454386E+03 -0.12308828047E+03  0.28158832884E+03  0.81985164197E+02 0.  0.
         11    1    3    3    0    0  0.54052986745E+02  0.85437701389E+02  0.14407750293E+02  0.10212203221E+03  0.00000000000E+00 0. -1.
        -11    1    3    3    0    0  0.62261690948E+03  0.51287024336E+03  0.18619904335E+03  0.82786338622E+03  0.00000000000E+00 0.  1.
          4    1    6    6  502    0 -0.20793527548E+01  0.63102966230E+01 -0.38038114168E+00  0.66549411088E+01  0.00000000000E+00 0. -1.
          1    1    5    5  503    0 -0.13733526082E+03 -0.94618726041E+02  0.12917639076E+03  0.21095074570E+03  0.00000000000E+00 0. -1.
         -2    1    5    5    0  503 -0.67266533560E+03 -0.30458467484E+03  0.43325044843E+03  0.85612874553E+03  0.00000000000E+00 0.  1.
         -3    1    6    6    0  502  0.13541005295E+03 -0.20541484049E+03 -0.12270789932E+03  0.27493338773E+03  0.00000000000E+00 0.  1.
<mgrwt>
<rscale>  0 0.21869455E+04</rscale>
<asrwt>0</asrwt>
<pdfrwt beam="1">  1        1 0.22450758E+00 0.21869455E+04</pdfrwt>
<pdfrwt beam="2">  1       -1 0.12605445E+00 0.21869455E+04</pdfrwt>
<totfact> 0.34926768E+00</totfact>
</mgrwt>
</event>
<event>
12    1  0.1980523E-007  0.1472820E+04  0.7818608E-02  0.8902731E-01
          2   -1    0    0  501    0  0.00000000000E+00  0.00000000000E+00  0.71016400828E+03  0.71016400828E+03  0.00000000000E+00 0. -1.
         -2   -1    0    0    0  501 -0.00000000000E+00 -0.00000000000E+00 -0.76362573087E+03  0.76362573087E+03  0.00000000000E+00 0.  1.
         23    2    1    2    0    0 -0.17568439268E+03  0.39780545940E+03  0.96903914295E+02  0.45464853463E+03  0.90557893486E+02 0.  0.
        254    2    1    2    0    0  0.17568439268E+03 -0.39780545940E+03 -0.15036563688E+03  0.10191412045E+04  0.90935404582E+03 0.  0.
        -24    2    4    4    0    0  0.19163491616E+03 -0.65716401485E+03  0.35309528518E+02  0.68999409281E+03  0.79098683913E+02 0.  0.
         24    2    4    4    0    0 -0.15950523478E+02  0.25935855545E+03 -0.18567516540E+03  0.32914711172E+03  0.79632120522E+02 0.  0.
         13    1    3    3    0    0 -0.68812445752E+02  0.26344460791E+03  0.66649188912E+02  0.28032183024E+03  0.00000000000E+00 0. -1.
        -13    1    3    3    0    0 -0.10687194693E+03  0.13436085149E+03  0.30254725384E+02  0.17432670438E+03  0.00000000000E+00 0.  1.
          4    1    6    6  502    0  0.13569258347E+02  0.32458236272E+02 -0.56028215973E+02  0.66157560861E+02  0.00000000000E+00 0. -1.
          3    1    5    5  503    0  0.36052729826E+02 -0.12772019196E+03  0.38400779995E+02  0.13815522670E+03  0.00000000000E+00 0. -1.
         -4    1    5    5    0  503  0.15558218634E+03 -0.52944382289E+03 -0.30912514777E+01  0.55183886610E+03  0.00000000000E+00 0.  1.
         -3    1    6    6    0  502 -0.29519781825E+02  0.22690031918E+03 -0.12964694943E+03  0.26298955086E+03  0.00000000000E+00 0.  1.
<mgrwt>
<rscale>  0 0.14728198E+04</rscale>
<asrwt>0</asrwt>
<pdfrwt beam="1">  1        2 0.10925600E+00 0.14728198E+04</pdfrwt>
<pdfrwt beam="2">  1       -2 0.11748088E+00 0.14728198E+04</pdfrwt>
<totfact> 0.21793950E+01</totfact>
</mgrwt>
</event>
<event>
12    1  0.1980523E-007  0.3031193E+04  0.7818608E-02  0.8234879E-01
          2   -1    0    0  501    0  0.00000000000E+00  0.00000000000E+00  0.15689519802E+04  0.15689519802E+04  0.00000000000E+00 0. -1.
         -2   -1    0    0    0  501 -0.00000000000E+00 -0.00000000000E+00 -0.14640559244E+04  0.14640559244E+04  0.00000000000E+00 0.  1.
         23    2    1    2    0    0 -0.13549061941E+04 -0.10812202446E+03 -0.19112280001E+03  0.13756552339E+04  0.91859843051E+02 0.  0.
        254    2    1    2    0    0  0.13549061941E+04  0.10812202446E+03  0.29601885581E+03  0.16573526706E+04  0.90096034588E+03 0.  0.
        -24    2    4    4    0    0  0.11643844745E+04  0.41610023929E+03  0.33452106646E+03  0.12833763306E+04  0.78866014621E+02 0.  0.
         24    2    4    4    0    0  0.19052171959E+03 -0.30797821483E+03 -0.38502210649E+02  0.37397634009E+03  0.85010448036E+02 0.  0.
         11    1    3    3    0    0 -0.40594264062E+03 -0.59086717538E+01 -0.90171954114E+02  0.41587897420E+03  0.00000000000E+00 0.  1.
        -11    1    3    3    0    0 -0.94896355350E+03 -0.10221335270E+03 -0.10095084590E+03  0.95977625967E+03  0.00000000000E+00 0. -1.
          4    1    6    6  502    0  0.56969096603E+01 -0.64221715718E+02 -0.20035210610E+02  0.67515133220E+02  0.00000000000E+00 0. -1.
          1    1    5    5  503    0  0.15954571995E+03  0.37206768718E+02  0.24704179729E+02  0.16567883657E+03  0.00000000000E+00 0. -1.
         -2    1    5    5    0  503  0.10048387546E+04  0.37889347057E+03  0.30981688673E+03  0.11176974940E+04  0.00000000000E+00 0.  1.
         -3    1    6    6    0  502  0.18482480993E+03 -0.24375649911E+03 -0.18467000039E+02  0.30646120687E+03  0.00000000000E+00 0.  1.
<mgrwt>
<rscale>  0 0.30311935E+04</rscale>
<asrwt>0</asrwt>
<pdfrwt beam="1">  1        2 0.24137723E+00 0.30311935E+04</pdfrwt>
<pdfrwt beam="2">  1       -2 0.22523937E+00 0.30311935E+04</pdfrwt>
<totfact> 0.90779101E-01</totfact>
</mgrwt>
</event>
<event>
12    1  0.1980523E-007  0.1773627E+04  0.7818608E-02  0.8720451E-01
          2   -1    0    0  501    0  0.00000000000E+00  0.00000000000E+00  0.92030476412E+03  0.92030476412E+03  0.00000000000E+00 0. -1.
         -2   -1    0    0    0  501 -0.00000000000E+00 -0.00000000000E+00 -0.85454146364E+03  0.85454146364E+03  0.00000000000E+00 0.  1.
         23    2    1    2    0    0 -0.21293179256E+03  0.60117852455E+03 -0.12593378147E+03  0.65628992532E+03  0.90008789037E+02 0.  0.
        254    2    1    2    0    0  0.21293179256E+03 -0.60117852455E+03  0.19169708195E+03  0.11185563024E+04  0.89870176579E+03 0.  0.
        -24    2    4    4    0    0 -0.75318324917E+02 -0.74379711897E+03  0.36237912353E+02  0.75239248789E+03  0.76643755725E+02 0.  0.
         24    2    4    4    0    0  0.28825011748E+03  0.14261859442E+03  0.15545916960E+03  0.36616381455E+03  0.80499639576E+02 0.  0.
         13    1    3    3    0    0 -0.17992693492E+03  0.38018753650E+03 -0.85629262847E+02  0.42924193117E+03  0.00000000000E+00 0.  1.
        -13    1    3    3    0    0 -0.33004857635E+02  0.22099098805E+03 -0.40304518623E+02  0.22704799415E+03  0.00000000000E+00 0. -1.
          4    1    6    6  502    0  0.13117957922E+03  0.22552816653E+02  0.50820414528E+02  0.14247605440E+03  0.00000000000E+00 0. -1.
          3    1    5    5  503    0 -0.62603684437E+02 -0.34558229348E+03  0.43626527443E+02  0.35390622595E+03  0.00000000000E+00 0. -1.
         -4    1    5    5    0  503 -0.12714640480E+02 -0.39821482549E+03 -0.73886150903E+01  0.39848626194E+03  0.00000000000E+00 0.  1.
         -3    1    6    6    0  502  0.15707053826E+03  0.12006577776E+03  0.10463875507E+03  0.22368776015E+03  0.00000000000E+00 0.  1.
<mgrwt>
<rscale>  0 0.17736274E+04</rscale>
<asrwt>0</asrwt>
<pdfrwt beam="1">  1        2 0.14158535E+00 0.17736274E+04</pdfrwt>
<pdfrwt beam="2">  1       -2 0.13146792E+00 0.17736274E+04</pdfrwt>
<totfact> 0.11344890E+01</totfact>
</mgrwt>
</event>
<event>
12    1  0.1980523E-007  0.1428264E+04  0.7818608E-02  0.8933610E-01
          2   -1    0    0  501    0  0.00000000000E+00  0.00000000000E+00  0.38552103880E+03  0.38552103880E+03  0.00000000000E+00 0.  1.
         -2   -1    0    0    0  501 -0.00000000000E+00 -0.00000000000E+00 -0.13228443505E+04  0.13228443505E+04  0.00000000000E+00 0. -1.
         23    2    1    2    0    0  0.27620952591E+03  0.31959990643E+03 -0.23070578517E+03  0.48917739060E+03  0.87370233906E+02 0.  0.
        254    2    1    2    0    0 -0.27620952591E+03 -0.31959990643E+03 -0.70661752651E+03  0.12191879987E+04  0.89926372379E+03 0.  0.
        -24    2    4    4    0    0 -0.52609962617E+03  0.41628859623E+02 -0.28145590022E+03  0.60261606869E+03  0.73586166217E+02 0.  0.
         24    2    4    4    0    0  0.24989010026E+03 -0.36122876606E+03 -0.42516162628E+03  0.61657192998E+03  0.80419231139E+02 0.  0.
         13    1    3    3    0    0  0.69094376722E+02  0.10741540057E+03 -0.11170880339E+03  0.16967898494E+03  0.00000000000E+00 0.  1.
        -13    1    3    3    0    0  0.20711514918E+03  0.21218450586E+03 -0.11899698178E+03  0.31949840566E+03  0.00000000000E+00 0. -1.
          4    1    6    6  502    0  0.55452312789E+02 -0.63791789497E+02 -0.12776507475E+03  0.15319355642E+03  0.00000000000E+00 0. -1.
          3    1    5    5  503    0 -0.46377533602E+03  0.39266491548E+02 -0.21911388985E+03  0.51443203282E+03  0.00000000000E+00 0. -1.
         -4    1    5    5    0  503 -0.62324290149E+02  0.23623680746E+01 -0.62342010370E+02  0.88184035870E+02  0.00000000000E+00 0.  1.
         -3    1    6    6    0  502  0.19443778747E+03 -0.29743697656E+03 -0.29739655153E+03  0.46337837356E+03  0.00000000000E+00 0.  1.
<mgrwt>
<rscale>  0 0.14282637E+04</rscale>
<asrwt>0</asrwt>
<pdfrwt beam="1">  1        2 0.59310929E-01 0.14282637E+04</pdfrwt>
<pdfrwt beam="2">  1       -2 0.20351452E+00 0.14282637E+04</pdfrwt>
<totfact> 0.10147232E+01</totfact>
</mgrwt>
</event>
<event>
12    1  0.1980523E-007  0.2513503E+04  0.7818608E-02  0.8398191E-01
         -1   -1    0    0    0  501 -0.00000000000E+00  0.00000000000E+00  0.96065003876E+03  0.96065003876E+03  0.00000000000E+00 0.  1.
          1   -1    0    0  501    0  0.00000000000E+00 -0.00000000000E+00 -0.16441210017E+04  0.16441210017E+04  0.00000000000E+00 0. -1.
         23    2    1    2    0    0 -0.12032242469E+03  0.91789642425E+03  0.30563607660E+03  0.97916876832E+03  0.91360461921E+02 0.  0.
        254    2    1    2    0    0  0.12032242469E+03 -0.91789642425E+03 -0.98910703959E+03  0.16256022722E+04  0.89846462370E+03 0.  0.
        -24    2    4    4    0    0 -0.37986914534E+02 -0.92946569299E+03 -0.40952888974E+03  0.10194328801E+04  0.78613010605E+02 0.  0.
         24    2    4    4    0    0  0.15830933922E+03  0.11569268740E+02 -0.57957814985E+03  0.60616939205E+03  0.79591489611E+02 0.  0.
         13    1    3    3    0    0 -0.49431320602E+02  0.24349694062E+03  0.43994214561E+02  0.25232856846E+03  0.00000000000E+00 0. -1.
        -13    1    3    3    0    0 -0.70891104086E+02  0.67439948363E+03  0.26164186203E+03  0.72684019985E+03  0.00000000000E+00 0.  1.
          2    1    6    6  502    0  0.14773096368E+03  0.18612918297E+02 -0.57265658985E+03  0.59169793667E+03  0.00000000000E+00 0. -1.
          3    1    5    5  503    0 -0.43269621937E+02 -0.41840061771E+03 -0.21673746009E+03  0.47318755657E+03  0.00000000000E+00 0. -1.
         -4    1    5    5    0  503  0.52827074028E+01 -0.51106507528E+03 -0.19279142965E+03  0.54624532356E+03  0.00000000000E+00 0.  1.
         -1    1    6    6    0  502  0.10578375544E+02 -0.70436495568E+01 -0.69215599968E+01  0.14471455387E+02  0.00000000000E+00 0.  1.
<mgrwt>
<rscale>  0 0.25135035E+04</rscale>
<asrwt>0</asrwt>
<pdfrwt beam="1">  1        1 0.25294169E+00 0.25135035E+04</pdfrwt>
<pdfrwt beam="2">  1       -1 0.14779231E+00 0.25135035E+04</pdfrwt>
<totfact> 0.16768853E+00</totfact>
</mgrwt>
</event>
<event>
12    1  0.1980523E-007  0.1849456E+04  0.7818608E-02  0.8680433E-01
         -2   -1    0    0    0  501 -0.00000000000E+00  0.00000000000E+00  0.41797126797E+03  0.41797126797E+03  0.00000000000E+00 0.  1.
          2   -1    0    0  501    0  0.00000000000E+00 -0.00000000000E+00 -0.20458860858E+04  0.20458860858E+04  0.00000000000E+00 0. -1.
         23    2    1    2    0    0 -0.13391043469E+03 -0.37762057175E+03  0.14501487560E+03  0.43518467475E+03  0.88470821520E+02 0.  0.
        254    2    1    2    0    0  0.13391043469E+03  0.37762057175E+03 -0.17729296934E+04  0.20286726790E+04  0.90094608054E+03 0.  0.
        -24    2    4    4    0    0  0.40200533223E+03  0.22844245178E+03 -0.38955171283E+03  0.60983604545E+03  0.79719661648E+02 0.  0.
         24    2    4    4    0    0 -0.26809489753E+03  0.14917811997E+03 -0.13833779806E+04  0.14188366336E+04  0.72344799334E+02 0.  0.
         13    1    3    3    0    0 -0.78060321735E+02 -0.22751699379E+03  0.13231134741E+03  0.27452447786E+03  0.00000000000E+00 0.  1.
        -13    1    3    3    0    0 -0.55850112956E+02 -0.15010357796E+03  0.12703528189E+02  0.16066019688E+03  0.00000000000E+00 0. -1.
          4    1    6    6  502    0 -0.26850620359E+03  0.14941879723E+03 -0.13841944131E+04  0.14178912975E+04  0.00000000000E+00 0. -1.
          3    1    5    5  503    0  0.38635981153E+03  0.20340979463E+03 -0.34543389253E+03  0.55675310742E+03  0.00000000000E+00 0. -1.
         -4    1    5    5    0  503  0.15645520694E+02  0.25032657150E+02 -0.44117820303E+02  0.53082938032E+02  0.00000000000E+00 0.  1.
         -1    1    6    6    0  502  0.41130605333E+00 -0.24067725497E+00  0.81643250236E+00  0.94533604685E+00  0.00000000000E+00 0.  1.
<mgrwt>
<rscale>  0 0.18494557E+04</rscale>
<asrwt>0</asrwt>
<pdfrwt beam="1">  1        2 0.31475170E+00 0.18494557E+04</pdfrwt>
<pdfrwt beam="2">  1       -2 0.64303274E-01 0.18494557E+04</pdfrwt>
<totfact> 0.13234975E+01</totfact>
</mgrwt>
</event>
<event>
12    1  0.1980523E-007  0.2185220E+04  0.7818608E-02  0.8524605E-01
         -2   -1    0    0    0  501 -0.00000000000E+00  0.00000000000E+00  0.54821697549E+03  0.54821697549E+03  0.00000000000E+00 0. -1.
          2   -1    0    0  501    0  0.00000000000E+00 -0.00000000000E+00 -0.21775989446E+04  0.21775989446E+04  0.00000000000E+00 0.  1.
         23    2    1    2    0    0 -0.28855497959E+03 -0.26117504934E+03  0.34164669557E+03  0.52613606168E+03  0.92845614668E+02 0.  0.
        254    2    1    2    0    0  0.28855497959E+03  0.26117504934E+03 -0.19710286647E+04  0.21996798584E+04  0.89563446774E+03 0.  0.
        -24    2    4    4    0    0 -0.59611375756E+01  0.30768311204E+03 -0.14804345107E+03  0.35086491203E+03  0.80528817795E+02 0.  0.
         24    2    4    4    0    0  0.29451611716E+03 -0.46508062695E+02 -0.18229852136E+04  0.18488149463E+04  0.77064088340E+02 0.  0.
         11    1    3    3    0    0 -0.18046095105E+03 -0.20182163951E+03  0.27523462947E+03  0.38607283029E+03  0.00000000000E+00 0. -1.
        -11    1    3    3    0    0 -0.10809402853E+03 -0.59353409837E+02  0.66412066098E+02  0.14006323139E+03  0.00000000000E+00 0.  1.
          2    1    6    6  502    0  0.29143788949E+03 -0.36482241214E+02 -0.17960981141E+04  0.18199547886E+04  0.00000000000E+00 0. -1.
          3    1    5    5  503    0 -0.16301254782E+02  0.16819457690E+03 -0.38779641574E+02  0.17337533622E+03  0.00000000000E+00 0. -1.
         -4    1    5    5    0  503  0.10340117206E+02  0.13948853513E+03 -0.10926380950E+03  0.17748957582E+03  0.00000000000E+00 0.  1.
         -1    1    6    6    0  502  0.30782276707E+01 -0.10025821481E+02 -0.26887099521E+02  0.28860157703E+02  0.00000000000E+00 0.  1.
<mgrwt>
<rscale>  0 0.21852201E+04</rscale>
<asrwt>0</asrwt>
<pdfrwt beam="1">  1        2 0.33501521E+00 0.21852201E+04</pdfrwt>
<pdfrwt beam="2">  1       -2 0.84341076E-01 0.21852201E+04</pdfrwt>
<totfact> 0.59657794E+00</totfact>
</mgrwt>
</event>
<event>
12    1  0.1980523E-007  0.1402564E+04  0.7818608E-02  0.8951964E-01
          1   -1    0    0  501    0  0.00000000000E+00  0.00000000000E+00  0.89148092141E+03  0.89148092141E+03  0.00000000000E+00 0. -1.
         -1   -1    0    0    0  501 -0.00000000000E+00 -0.00000000000E+00 -0.55166259124E+03  0.55166259124E+03  0.00000000000E+00 0.  1.
         23    2    1    2    0    0  0.34696154786E+03 -0.12067290184E+03  0.27436781940E+03  0.46790346514E+03  0.93336420768E+02 0.  0.
        254    2    1    2    0    0 -0.34696154786E+03  0.12067290184E+03  0.65450510777E+02  0.97524004751E+03  0.90103557975E+03 0.  0.
        -24    2    4    4    0    0  0.12590029186E+03  0.13017598656E+03 -0.30895183092E+03  0.36666199021E+03  0.78696316754E+02 0.  0.
         24    2    4    4    0    0 -0.47286183972E+03 -0.95030847230E+01  0.37440234170E+03  0.60857805729E+03  0.80631943245E+02 0.  0.
         11    1    3    3    0    0  0.18112169323E+03 -0.89521234277E+02  0.19730955538E+03  0.28240074325E+03  0.00000000000E+00 0. -1.
        -11    1    3    3    0    0  0.16583985463E+03 -0.31151667564E+02  0.77058264011E+02  0.18550272189E+03  0.00000000000E+00 0.  1.
          2    1    6    6  502    0 -0.33458825921E+03 -0.41912376819E+02  0.24987511043E+03  0.41969455720E+03  0.00000000000E+00 0. -1.
          1    1    5    5  503    0  0.90492397419E+02  0.11399226595E+03 -0.17736691875E+03  0.22943873813E+03  0.00000000000E+00 0. -1.
         -2    1    5    5    0  503  0.35407894437E+02  0.16183720609E+02 -0.13158491217E+03  0.13722325208E+03  0.00000000000E+00 0.  1.
         -1    1    6    6    0  502 -0.13827358051E+03  0.32409292096E+02  0.12452723126E+03  0.18888350009E+03  0.00000000000E+00 0.  1.
<mgrwt>
<rscale>  0 0.14025643E+04</rscale>
<asrwt>0</asrwt>
<pdfrwt beam="1">  1        1 0.13715091E+00 0.14025643E+04</pdfrwt>
<pdfrwt beam="2">  1       -1 0.84871168E-01 0.14025643E+04</pdfrwt>
<totfact> 0.24771862E+01</totfact>
</mgrwt>
</event>
<event>
12    1  0.1980523E-007  0.1280877E+04  0.7818608E-02  0.9044869E-01
          1   -1    0    0  501    0  0.00000000000E+00  0.00000000000E+00  0.13281728554E+04  0.13281728554E+04  0.00000000000E+00 0. -1.
         -1   -1    0    0    0  501 -0.00000000000E+00 -0.00000000000E+00 -0.30881640346E+03  0.30881640346E+03  0.00000000000E+00 0.  1.
         23    2    1    2    0    0  0.19123870423E+03  0.23305842598E+03  0.37905772866E+03  0.49250924989E+03  0.89398700512E+02 0.  0.
        254    2    1    2    0    0 -0.19123870423E+03 -0.23305842598E+03  0.64029872323E+03  0.11444800089E+04  0.89942401789E+03 0.  0.
        -24    2    4    4    0    0  0.25136578622E+03 -0.12233172468E+03  0.61438748828E+03  0.68007697197E+03  0.82963200856E+02 0.  0.
         24    2    4    4    0    0 -0.44260449045E+03 -0.11072670130E+03  0.25911234948E+02  0.46440303696E+03  0.82702184360E+02 0.  0.
         13    1    3    3    0    0  0.66883217234E+02  0.12991446568E+03  0.23117745536E+03  0.27348518974E+03  0.00000000000E+00 0. -1.
        -13    1    3    3    0    0  0.12435548700E+03  0.10314396030E+03  0.14788027330E+03  0.21902406015E+03  0.00000000000E+00 0.  1.
          4    1    6    6  502    0 -0.28552900763E+03 -0.10670450805E+03 -0.19666928910E+01  0.30482213521E+03  0.00000000000E+00 0. -1.
          3    1    5    5  503    0  0.21582410116E+03 -0.12884899976E+03  0.56911085437E+03  0.62214891461E+03  0.00000000000E+00 0. -1.
         -4    1    5    5    0  503  0.35541685060E+02  0.65172750804E+01  0.45276633910E+02  0.57928057361E+02  0.00000000000E+00 0.  1.
         -3    1    6    6    0  502 -0.15707548283E+03 -0.40221932421E+01  0.27877927839E+02  0.15958090175E+03  0.00000000000E+00 0.  1.
<mgrwt>
<rscale>  0 0.12808771E+04</rscale>
<asrwt>0</asrwt>
<pdfrwt beam="1">  1        1 0.20433428E+00 0.12808771E+04</pdfrwt>
<pdfrwt beam="2">  1       -1 0.47510217E-01 0.12808771E+04</pdfrwt>
<totfact> 0.37570204E+01</totfact>
</mgrwt>
</event>
<event>
12    1  0.1980523E-007  0.1561396E+04  0.7818608E-02  0.8844621E-01
         -2   -1    0    0    0  501 -0.00000000000E+00  0.00000000000E+00  0.31386477689E+03  0.31386477689E+03  0.00000000000E+00 0.  1.
          2   -1    0    0  501    0  0.00000000000E+00 -0.00000000000E+00 -0.19418857357E+04  0.19418857357E+04  0.00000000000E+00 0. -1.
         23    2    1    2    0    0 -0.51140768750E+03  0.21695370332E+02 -0.41428902679E+03  0.66487635986E+03  0.91742379854E+02 0.  0.
        254    2    1    2    0    0  0.51140768750E+03 -0.21695370332E+02 -0.12137319320E+04  0.15908741527E+04  0.89203523195E+03 0.  0.
        -24    2    4    4    0    0  0.69570737874E+03  0.19302382003E+03 -0.94715494454E+03  0.11936241176E+04  0.79806599513E+02 0.  0.
         24    2    4    4    0    0 -0.18429969124E+03 -0.21471919036E+03 -0.26657698749E+03  0.39725003507E+03  0.81692063309E+02 0.  0.
         11    1    3    3    0    0 -0.16172540574E+03 -0.96757330412E+01 -0.18319701500E+03  0.24456057118E+03  0.00000000000E+00 0.  1.
        -11    1    3    3    0    0 -0.34968228177E+03  0.31371103373E+02 -0.23109201179E+03  0.42031578869E+03  0.00000000000E+00 0. -1.
          2    1    6    6  502    0 -0.14142513777E+03 -0.19858892630E+03 -0.24814767931E+03  0.34787339937E+03  0.00000000000E+00 0. -1.
          3    1    5    5  503    0  0.38737701399E+03  0.14174004566E+03 -0.50291223166E+03  0.65043977758E+03  0.00000000000E+00 0. -1.
         -4    1    5    5    0  503  0.30833036475E+03  0.51283774377E+02 -0.44424271288E+03  0.54318434006E+03  0.00000000000E+00 0.  1.
         -1    1    6    6    0  502 -0.42874553462E+02 -0.16130264061E+02 -0.18429308180E+02  0.49376635702E+02  0.00000000000E+00 0.  1.
<mgrwt>
<rscale>  0 0.15613962E+04</rscale>
<asrwt>0</asrwt>
<pdfrwt beam="1">  1        2 0.29875165E+00 0.15613962E+04</pdfrwt>
<pdfrwt beam="2">  1       -2 0.48286889E-01 0.15613962E+04</pdfrwt>
<totfact> 0.28126406E+01</totfact>
</mgrwt>
</event>
<event>
12    1  0.1980523E-007  0.2790471E+04  0.7818608E-02  0.8306233E-01
          2   -1    0    0  501    0  0.00000000000E+00  0.00000000000E+00  0.14953949490E+04  0.14953949490E+04  0.00000000000E+00 0. -1.
         -2   -1    0    0    0  501 -0.00000000000E+00 -0.00000000000E+00 -0.13017846732E+04  0.13017846732E+04  0.00000000000E+00 0.  1.
         23    2    1    2    0    0  0.33364428736E+03 -0.10768772105E+04 -0.45004303436E+03  0.12172457111E+04  0.90362335114E+02 0.  0.
        254    2    1    2    0    0 -0.33364428736E+03  0.10768772105E+04  0.64365331020E+03  0.15799339111E+04  0.90051015692E+03 0.  0.
        -24    2    4    4    0    0 -0.36161917293E+03  0.10729886942E+04  0.23053761193E+03  0.11582561405E+04  0.79602338989E+02 0.  0.
         24    2    4    4    0    0  0.27974885572E+02  0.38885162673E+01  0.41311569827E+03  0.42167777058E+03  0.79685928857E+02 0.  0.
         11    1    3    3    0    0  0.26543652184E+03 -0.75291960891E+03 -0.34729095481E+03  0.87060639321E+03  0.00000000000E+00 0. -1.
        -11    1    3    3    0    0  0.68207765525E+02 -0.32395760155E+03 -0.10275207954E+03  0.34663931793E+03  0.00000000000E+00 0.  1.
          4    1    6    6  502    0  0.52203041314E+02  0.80983576778E+01  0.18988143280E+03  0.19709312378E+03  0.00000000000E+00 0. -1.
          3    1    5    5  503    0 -0.55663876908E+02  0.14024419846E+03  0.57543959054E+02  0.16148749059E+03  0.00000000000E+00 0. -1.
         -4    1    5    5    0  503 -0.30595529603E+03  0.93274449574E+03  0.17299365287E+03  0.99676864990E+03  0.00000000000E+00 0.  1.
         -3    1    6    6    0  502 -0.24228155742E+02 -0.42098414105E+01  0.22323426547E+03  0.22458464679E+03  0.00000000000E+00 0.  1.
<mgrwt>
<rscale>  0 0.27904711E+04</rscale>
<asrwt>0</asrwt>
<pdfrwt beam="1">  1        2 0.23006076E+00 0.27904711E+04</pdfrwt>
<pdfrwt beam="2">  1       -2 0.20027457E+00 0.27904711E+04</pdfrwt>
<totfact> 0.14730736E+00</totfact>
</mgrwt>
</event>
<event>
12    1  0.1980523E-007  0.1936182E+04  0.7818608E-02  0.8637053E-01
         -1   -1    0    0    0  501 -0.00000000000E+00  0.00000000000E+00  0.13261103729E+04  0.13261103729E+04  0.00000000000E+00 0.  1.
          1   -1    0    0  501    0  0.00000000000E+00 -0.00000000000E+00 -0.70672868899E+03  0.70672868899E+03  0.00000000000E+00 0. -1.
         23    2    1    2    0    0  0.56840899415E+03 -0.40649711894E+03  0.54477484765E+03  0.89082861545E+03  0.92017906565E+02 0.  0.
        254    2    1    2    0    0 -0.56840899415E+03  0.40649711894E+03  0.74606836236E+02  0.11420104464E+04  0.90016275605E+03 0.  0.
        -24    2    4    4    0    0  0.75169071535E+02  0.31207493265E+03 -0.24433105695E+03  0.41326350285E+03  0.89710113652E+02 0.  0.
         24    2    4    4    0    0 -0.64357806568E+03  0.94422186290E+02  0.31893789319E+03  0.72874694357E+03  0.79009190355E+02 0.  0.
         13    1    3    3    0    0  0.16498206363E+02 -0.29345137053E+02  0.11065122868E+02  0.35436772228E+02  0.00000000000E+00 0. -1.
        -13    1    3    3    0    0  0.55191078778E+03 -0.37715198189E+03  0.53370972478E+03  0.85539184322E+03  0.00000000000E+00 0.  1.
          4    1    6    6  502    0 -0.61882064785E+03  0.10609929364E+03  0.30432364848E+03  0.69771694643E+03  0.00000000000E+00 0. -1.
          3    1    5    5  503    0  0.45690373090E+02  0.97633837694E+02 -0.12862122354E+03  0.16781953284E+03  0.00000000000E+00 0. -1.
         -4    1    5    5    0  503  0.29478698445E+02  0.21444109495E+03 -0.11570983341E+03  0.24544397001E+03  0.00000000000E+00 0.  1.
         -3    1    6    6    0  502 -0.24757417834E+02 -0.11677107354E+02  0.14614244708E+02  0.31029997137E+02  0.00000000000E+00 0.  1.
<mgrwt>
<rscale>  0 0.19361821E+04</rscale>
<asrwt>0</asrwt>
<pdfrwt beam="1">  1        1 0.10872749E+00 0.19361821E+04</pdfrwt>
<pdfrwt beam="2">  1       -1 0.20401698E+00 0.19361821E+04</pdfrwt>
<totfact> 0.35362161E+00</totfact>
</mgrwt>
</event>
<event>
12    1  0.1980523E-007  0.2639857E+04  0.7818608E-02  0.8354787E-01
         -1   -1    0    0    0  501 -0.00000000000E+00  0.00000000000E+00  0.71506906624E+03  0.71506906624E+03  0.00000000000E+00 0.  1.
          1   -1    0    0  501    0  0.00000000000E+00 -0.00000000000E+00 -0.24364234192E+04  0.24364234192E+04  0.00000000000E+00 0. -1.
         23    2    1    2    0    0 -0.10578053199E+04 -0.11585637293E+03 -0.20117269527E+03  0.10869584233E+04  0.92915911933E+02 0.  0.
        254    2    1    2    0    0  0.10578053199E+04  0.11585637293E+03 -0.15201816577E+04  0.20645340621E+04  0.90497172741E+03 0.  0.
        -24    2    4    4    0    0  0.20231429084E+03 -0.19682956213E+03 -0.93292828809E+03  0.97766458426E+03  0.76157073273E+02 0.  0.
         24    2    4    4    0    0  0.85549102905E+03  0.31268593506E+03 -0.58725336957E+03  0.10868694778E+04  0.82348934634E+02 0.  0.
         13    1    3    3    0    0 -0.38409603116E+03 -0.86857328388E+02 -0.79365190871E+02  0.40171232265E+03  0.00000000000E+00 0. -1.
        -13    1    3    3    0    0 -0.67370928874E+03 -0.28999044545E+02 -0.12180750440E+03  0.68524610064E+03  0.00000000000E+00 0.  1.
          4    1    6    6  502    0  0.22420053080E+03  0.65324515081E+02 -0.18990490191E+03  0.30099342526E+03  0.00000000000E+00 0. -1.
          3    1    5    5  503    0  0.48794075947E+02 -0.89473336345E+01 -0.14801420776E+03  0.15610612520E+03  0.00000000000E+00 0. -1.
         -4    1    5    5    0  503  0.15352021490E+03 -0.18788222849E+03 -0.78491408033E+03  0.82155845907E+03  0.00000000000E+00 0.  1.
         -3    1    6    6    0  502  0.63129049825E+03  0.24736141998E+03 -0.39734846766E+03  0.78587605259E+03  0.00000000000E+00 0.  1.
<mgrwt>
<rscale>  0 0.26398568E+04</rscale>
<asrwt>0</asrwt>
<pdfrwt beam="1">  1        1 0.37483437E+00 0.26398568E+04</pdfrwt>
<pdfrwt beam="2">  1       -1 0.11001063E+00 0.26398568E+04</pdfrwt>
<totfact> 0.10036910E+00</totfact>
</mgrwt>
</event>
<event>
12    1  0.1980523E-007  0.2522380E+04  0.7818608E-02  0.8395056E-01
         -2   -1    0    0    0  501 -0.00000000000E+00  0.00000000000E+00  0.85625913957E+03  0.85625913957E+03  0.00000000000E+00 0. -1.
          2   -1    0    0  501    0  0.00000000000E+00 -0.00000000000E+00 -0.18576151130E+04  0.18576151130E+04  0.00000000000E+00 0.  1.
         23    2    1    2    0    0  0.21263476011E+03 -0.59620354102E+03 -0.14034141878E+04  0.15427058340E+04  0.98476921337E+02 0.  0.
        254    2    1    2    0    0 -0.21263476011E+03  0.59620354102E+03  0.40205821445E+03  0.11711684186E+04  0.89961794851E+03 0.  0.
        -24    2    4    4    0    0 -0.84123422552E+02  0.66329691779E+03 -0.63977290655E+02  0.67663328922E+03  0.81853301683E+02 0.  0.
         24    2    4    4    0    0 -0.12851133756E+03 -0.67093376771E+02  0.46603550510E+03  0.49453512933E+03  0.79744699128E+02 0.  0.
         13    1    3    3    0    0  0.18548442246E+03 -0.42345601261E+03 -0.10861591278E+04  0.11804495400E+04  0.00000000000E+00 0.  1.
        -13    1    3    3    0    0  0.27150337654E+02 -0.17274752841E+03 -0.31725506006E+03  0.36225629400E+03  0.00000000000E+00 0. -1.
          4    1    6    6  502    0 -0.44674344031E+02 -0.22310666918E+02  0.62718439705E+02  0.80169604914E+02  0.00000000000E+00 0. -1.
          3    1    5    5  503    0 -0.39696523930E+02  0.11322847466E+03 -0.30272283362E+02  0.12374535396E+03  0.00000000000E+00 0. -1.
         -4    1    5    5    0  503 -0.44426898622E+02  0.55006844313E+03 -0.33705007293E+02  0.55288793527E+03  0.00000000000E+00 0.  1.
         -3    1    6    6    0  502 -0.83836993529E+02 -0.44782709853E+02  0.40331706540E+03  0.41436552442E+03  0.00000000000E+00 0.  1.
<mgrwt>
<rscale>  0 0.25223798E+04</rscale>
<asrwt>0</asrwt>
<pdfrwt beam="1">  1        2 0.28578694E+00 0.25223798E+04</pdfrwt>
<pdfrwt beam="2">  1       -2 0.13173218E+00 0.25223798E+04</pdfrwt>
<totfact> 0.29971776E+00</totfact>
</mgrwt>
</event>
<event>
12    1  0.1980523E-007  0.1836563E+04  0.7818608E-02  0.8687094E-01
          2   -1    0    0  501    0  0.00000000000E+00  0.00000000000E+00  0.95561081668E+03  0.95561081668E+03  0.00000000000E+00 0. -1.
         -2   -1    0    0    0  501 -0.00000000000E+00 -0.00000000000E+00 -0.88241033004E+03  0.88241033004E+03  0.00000000000E+00 0.  1.
         23    2    1    2    0    0 -0.32372249689E+03 -0.61401423077E+03 -0.23551644151E+02  0.70037461709E+03  0.90333790726E+02 0.  0.
        254    2    1    2    0    0  0.32372249689E+03  0.61401423077E+03  0.96752130795E+02  0.11376465296E+04  0.89614112782E+03 0.  0.
        -24    2    4    4    0    0  0.45131131470E+03  0.48535417894E+03 -0.27099543042E+03  0.71996002218E+03  0.75188619029E+02 0.  0.
         24    2    4    4    0    0 -0.12758881782E+03  0.12866005183E+03  0.36774756122E+03  0.41768650745E+03  0.79946446769E+02 0.  0.
         13    1    3    3    0    0 -0.18696750259E+03 -0.29639489392E+03  0.24255988728E+02  0.35127643410E+03  0.00000000000E+00 0. -1.
        -13    1    3    3    0    0 -0.13675499430E+03 -0.31761933684E+03 -0.47807632879E+02  0.34909818299E+03  0.00000000000E+00 0.  1.
          4    1    6    6  502    0 -0.12182493727E+03  0.97034775036E+02  0.34432849001E+03  0.37791423887E+03  0.00000000000E+00 0. -1.
          1    1    5    5  503    0  0.42389477604E+03  0.47736477553E+03 -0.25764519461E+03  0.68843660302E+03  0.00000000000E+00 0. -1.
         -2    1    5    5    0  503  0.27416538666E+02  0.79894034071E+01 -0.13350235814E+02  0.31523419159E+02  0.00000000000E+00 0.  1.
         -3    1    6    6    0  502 -0.57638805451E+01  0.31625276797E+02  0.23419071206E+02  0.39772268575E+02  0.00000000000E+00 0.  1.
<mgrwt>
<rscale>  0 0.18365629E+04</rscale>
<asrwt>0</asrwt>
<pdfrwt beam="1">  1        2 0.14701705E+00 0.18365629E+04</pdfrwt>
<pdfrwt beam="2">  1       -2 0.13575544E+00 0.18365629E+04</pdfrwt>
<totfact> 0.98545342E+00</totfact>
</mgrwt>
</event>
<event>
12    1  0.1980523E-007  0.1490296E+04  0.7818608E-02  0.8890932E-01
         -2   -1    0    0    0  501 -0.00000000000E+00  0.00000000000E+00  0.68052636190E+03  0.68052636190E+03  0.00000000000E+00 0. -1.
          2   -1    0    0  501    0  0.00000000000E+00 -0.00000000000E+00 -0.81590567164E+03  0.81590567164E+03  0.00000000000E+00 0.  1.
         23    2    1    2    0    0  0.11800453070E+03  0.21908592564E+03 -0.44380703205E+03  0.51705270378E+03  0.91951643361E+02 0.  0.
        254    2    1    2    0    0 -0.11800453070E+03 -0.21908592564E+03  0.30842772231E+03  0.97937932976E+03  0.89561850115E+03 0.  0.
        -24    2    4    4    0    0 -0.24096626865E+03 -0.13830119384E+03  0.58690194716E+03  0.65416111582E+03  0.79252173615E+02 0.  0.
         24    2    4    4    0    0  0.12296173795E+03 -0.80784731791E+02 -0.27847422485E+03  0.32521821395E+03  0.81075464152E+02 0.  0.
         13    1    3    3    0    0  0.94980806460E+01  0.53610379832E+02 -0.17495319516E+03  0.18322911029E+03  0.00000000000E+00 0.  1.
        -13    1    3    3    0    0  0.10850645005E+03  0.16547554580E+03 -0.26885383689E+03  0.33382359350E+03  0.00000000000E+00 0. -1.
          2    1    6    6  502    0  0.35485677276E+02 -0.42990598560E+02 -0.40585403108E+02  0.68953606154E+02  0.00000000000E+00 0. -1.
          3    1    5    5  503    0 -0.81439184217E+02 -0.95858027458E+01  0.20358550204E+03  0.21947957759E+03  0.00000000000E+00 0. -1.
         -4    1    5    5    0  503 -0.15952708444E+03 -0.12871539110E+03  0.38331644512E+03  0.43468153823E+03  0.00000000000E+00 0.  1.
         -1    1    6    6    0  502  0.87476060676E+02 -0.37794133231E+02 -0.23788882174E+03  0.25626460779E+03  0.00000000000E+00 0.  1.
<mgrwt>
<rscale>  0 0.14902957E+04</rscale>
<asrwt>0</asrwt>
<pdfrwt beam="1">  1        2 0.12552395E+00 0.14902957E+04</pdfrwt>
<pdfrwt beam="2">  1       -2 0.10469636E+00 0.14902957E+04</pdfrwt>
<totfact> 0.24016145E+01</totfact>
</mgrwt>
</event>
<event>
12    1  0.1980523E-007  0.2620928E+04  0.7818608E-02  0.8361127E-01
         -1   -1    0    0    0  501 -0.00000000000E+00  0.00000000000E+00  0.12497760855E+04  0.12497760855E+04  0.00000000000E+00 0.  1.
          1   -1    0    0  501    0  0.00000000000E+00 -0.00000000000E+00 -0.13740993490E+04  0.13740993490E+04  0.00000000000E+00 0. -1.
         23    2    1    2    0    0 -0.11138098549E+04  0.23237050462E+03 -0.23660211116E+03  0.11656168491E+04  0.90075720968E+02 0.  0.
        254    2    1    2    0    0  0.11138098549E+04 -0.23237050462E+03  0.11227884772E+03  0.14582585854E+04  0.90517573873E+03 0.  0.
        -24    2    4    4    0    0  0.14556501653E+03  0.25217913792E+03  0.21086807114E+03  0.36828922123E+03  0.79925686793E+02 0.  0.
         24    2    4    4    0    0  0.96824483841E+03 -0.48454964253E+03 -0.98589223424E+02  0.10899693642E+04  0.77633477030E+02 0.  0.
         11    1    3    3    0    0 -0.66130892683E+03  0.10805794238E+03 -0.10508101709E+03  0.67826840982E+03  0.00000000000E+00 0.  1.
        -11    1    3    3    0    0 -0.45250092811E+03  0.12431256224E+03 -0.13152109407E+03  0.48734843927E+03  0.00000000000E+00 0. -1.
          2    1    6    6  502    0  0.38223254468E+03 -0.23377155114E+03 -0.36546682714E+02  0.44954033896E+03  0.00000000000E+00 0. -1.
          3    1    5    5  503    0  0.29376638326E+02  0.52998209442E+02  0.88452335729E+02  0.10721759547E+03  0.00000000000E+00 0. -1.
         -4    1    5    5    0  503  0.11618837821E+03  0.19918092848E+03  0.12241573541E+03  0.26107162576E+03  0.00000000000E+00 0.  1.
         -1    1    6    6    0  502  0.58601229373E+03 -0.25077809139E+03 -0.62042540710E+02  0.64042902525E+03  0.00000000000E+00 0.  1.
<mgrwt>
<rscale>  0 0.26209285E+04</rscale>
<asrwt>0</asrwt>
<pdfrwt beam="1">  1        1 0.21139990E+00 0.26209285E+04</pdfrwt>
<pdfrwt beam="2">  1       -1 0.19227325E+00 0.26209285E+04</pdfrwt>
<totfact> 0.11999126E+00</totfact>
</mgrwt>
</event>
<event>
12    1  0.1980523E-007  0.3107578E+04  0.7818608E-02  0.8213661E-01
          1   -1    0    0  501    0  0.00000000000E+00  0.00000000000E+00  0.42017123152E+04  0.42017123152E+04  0.00000000000E+00 0. -1.
         -1   -1    0    0    0  501 -0.00000000000E+00 -0.00000000000E+00 -0.57458969531E+03  0.57458969531E+03  0.00000000000E+00 0.  1.
         23    2    1    2    0    0 -0.13213747771E+04  0.82677398531E+02  0.86909109603E+03  0.15874187451E+04  0.10822238735E+03 0.  0.
        254    2    1    2    0    0  0.13213747771E+04 -0.82677398531E+02  0.27580315238E+04  0.31888832654E+04  0.89965089906E+03 0.  0.
        -24    2    4    4    0    0  0.10983300102E+04 -0.38988800957E+03  0.23592198371E+04  0.26325766355E+04  0.78740273245E+02 0.  0.
         24    2    4    4    0    0  0.22304476688E+03  0.30721061104E+03  0.39881168675E+03  0.55630662993E+03  0.79366097613E+02 0.  0.
         13    1    3    3    0    0 -0.10859802443E+04  0.10919533687E+03  0.70969097332E+03  0.13018978417E+04  0.00000000000E+00 0.  1.
        -13    1    3    3    0    0 -0.23539453281E+03 -0.26517938341E+02  0.15940012271E+03  0.28552090335E+03  0.00000000000E+00 0. -1.
          2    1    6    6  502    0  0.97452302537E+01  0.58508418632E+02  0.48156501851E+02  0.76401919047E+02  0.00000000000E+00 0. -1.
          1    1    5    5  503    0  0.42859255882E+03 -0.15223563965E+03  0.10084314310E+04  0.11062554960E+04  0.00000000000E+00 0. -1.
         -2    1    5    5    0  503  0.66973745142E+03 -0.23765236992E+03  0.13507884061E+04  0.15263211394E+04  0.00000000000E+00 0.  1.
         -1    1    6    6    0  502  0.21329953663E+03  0.24870219241E+03  0.35065518490E+03  0.47990471088E+03  0.00000000000E+00 0.  1.
<mgrwt>
<rscale>  0 0.31075782E+04</rscale>
<asrwt>0</asrwt>
<pdfrwt beam="1">  1        1 0.64641726E+00 0.31075782E+04</pdfrwt>
<pdfrwt beam="2">  1       -1 0.88398417E-01 0.31075782E+04</pdfrwt>
<totfact> 0.66695858E-02</totfact>
</mgrwt>
</event>
<event>
12    1  0.1980523E-007  0.1440331E+04  0.7818608E-02  0.8925131E-01
          1   -1    0    0  501    0  0.00000000000E+00  0.00000000000E+00  0.38989255002E+03  0.38989255002E+03  0.00000000000E+00 0. -1.
         -1   -1    0    0    0  501 -0.00000000000E+00 -0.00000000000E+00 -0.13302089336E+04  0.13302089336E+04  0.00000000000E+00 0.  1.
         23    2    1    2    0    0 -0.41423923040E+02 -0.42943729932E+03 -0.33851750556E+03  0.55576185591E+03  0.90248564877E+02 0.  0.
        254    2    1    2    0    0  0.41423923040E+02  0.42943729932E+03 -0.60179887799E+03  0.11643396277E+04  0.89855024544E+03 0.  0.
        -24    2    4    4    0    0 -0.22978540824E+03  0.41167911999E+03 -0.71500426924E+03  0.86019302298E+03  0.80124278914E+02 0.  0.
         24    2    4    4    0    0  0.27120933128E+03  0.17758179329E+02  0.11320539125E+03  0.30414660470E+03  0.76287890492E+02 0.  0.
         13    1    3    3    0    0 -0.97972914722E+01 -0.29942814520E+03 -0.18493866409E+03  0.35207316076E+03  0.00000000000E+00 0.  1.
        -13    1    3    3    0    0 -0.31626631568E+02 -0.13000915412E+03 -0.15357884148E+03  0.20368869514E+03  0.00000000000E+00 0. -1.
          4    1    6    6  502    0  0.20617859411E+03 -0.19062532472E+02  0.75061267127E+02  0.22024347127E+03  0.00000000000E+00 0. -1.
          3    1    5    5  503    0 -0.15247397866E+03  0.27326979138E+03 -0.40308559355E+03  0.51029666742E+03  0.00000000000E+00 0. -1.
         -4    1    5    5    0  503 -0.77311429577E+02  0.13840932861E+03 -0.31191867569E+03  0.34989635556E+03  0.00000000000E+00 0.  1.
         -3    1    6    6    0  502  0.65030737168E+02  0.36820711802E+02  0.38144124123E+02  0.83903133430E+02  0.00000000000E+00 0.  1.
<mgrwt>
<rscale>  0 0.14403313E+04</rscale>
<asrwt>0</asrwt>
<pdfrwt beam="1">  1        1 0.59983469E-01 0.14403313E+04</pdfrwt>
<pdfrwt beam="2">  1       -1 0.20464753E+00 0.14403313E+04</pdfrwt>
<totfact> 0.84364139E+00</totfact>
</mgrwt>
</event>
<event>
12    1  0.1980523E-007  0.1979837E+04  0.7818608E-02  0.8616106E-01
          1   -1    0    0  501    0  0.00000000000E+00  0.00000000000E+00  0.81718005075E+03  0.81718005075E+03  0.00000000000E+00 0. -1.
         -1   -1    0    0    0  501 -0.00000000000E+00 -0.00000000000E+00 -0.11991711916E+04  0.11991711916E+04  0.00000000000E+00 0.  1.
         23    2    1    2    0    0 -0.57522726058E+03  0.45792863948E+03  0.11392318016E+03  0.74950553769E+03  0.90526349080E+02 0.  0.
        254    2    1    2    0    0  0.57522726058E+03 -0.45792863948E+03 -0.49591432106E+03  0.12668457047E+04  0.90464467362E+03 0.  0.
        -24    2    4    4    0    0  0.14956151077E+03  0.22033045097E+03 -0.35337404596E+03  0.44947216466E+03  0.78980107082E+02 0.  0.
         24    2    4    4    0    0  0.42566574981E+03 -0.67825909045E+03 -0.14254027510E+03  0.81737354004E+03  0.80963260761E+02 0.  0.
         11    1    3    3    0    0 -0.24000597446E+03  0.17850532257E+03  0.90369259479E+02  0.31246379154E+03  0.00000000000E+00 0. -1.
        -11    1    3    3    0    0 -0.33522128612E+03  0.27942331691E+03  0.23553920684E+02  0.43704174615E+03  0.00000000000E+00 0.  1.
          4    1    6    6  502    0  0.33525378410E+03 -0.49960525209E+03 -0.76358852303E+02  0.60649087544E+03  0.00000000000E+00 0. -1.
          1    1    5    5  503    0  0.14743577910E+03  0.17697888880E+03 -0.26572808810E+03  0.35166781604E+03  0.00000000000E+00 0. -1.
         -2    1    5    5    0  503  0.21257316773E+01  0.43351562171E+02 -0.87645957863E+02  0.97804348613E+02  0.00000000000E+00 0.  1.
         -3    1    6    6    0  502  0.90411965705E+02 -0.17865383836E+03 -0.66181422799E+02  0.21088266460E+03  0.00000000000E+00 0.  1.
<mgrwt>
<rscale>  0 0.19798371E+04</rscale>
<asrwt>0</asrwt>
<pdfrwt beam="1">  1        1 0.12572001E+00 0.19798371E+04</pdfrwt>
<pdfrwt beam="2">  1       -1 0.18448788E+00 0.19798371E+04</pdfrwt>
<totfact> 0.38367860E+00</totfact>
</mgrwt>
</event>
<event>
12    1  0.1980523E-007  0.1369098E+04  0.7818608E-02  0.8976496E-01
         -2   -1    0    0    0  501 -0.00000000000E+00  0.00000000000E+00  0.23650332072E+03  0.23650332072E+03  0.00000000000E+00 0. -1.
          2   -1    0    0  501    0  0.00000000000E+00 -0.00000000000E+00 -0.19813978562E+04  0.19813978562E+04  0.00000000000E+00 0.  1.
         23    2    1    2    0    0  0.20018502898E+03  0.14213958467E+03 -0.27771506153E+02  0.26359572010E+03  0.91835394841E+02 0.  0.
        254    2    1    2    0    0 -0.20018502898E+03 -0.14213958467E+03 -0.17171230293E+04  0.19543054568E+04  0.90028918314E+03 0.  0.
        -24    2    4    4    0    0 -0.50248523483E+03  0.38999116095E+02 -0.64323876262E+03  0.82116917173E+03  0.80934297936E+02 0.  0.
         24    2    4    4    0    0  0.30230020585E+03 -0.18113870076E+03 -0.10738842667E+04  0.11331362850E+04  0.81078843769E+02 0.  0.
         11    1    3    3    0    0  0.11271374271E+03  0.74294409574E+02  0.30642131717E+02  0.13843044219E+03  0.00000000000E+00 0. -1.
        -11    1    3    3    0    0  0.87471286273E+02  0.67845175094E+02 -0.58413637870E+02  0.12516527791E+03  0.00000000000E+00 0.  1.
          4    1    6    6  502    0  0.21672980040E+03 -0.14059272061E+03 -0.66465864065E+03  0.71309832986E+03  0.00000000000E+00 0. -1.
          3    1    5    5  503    0 -0.46897371556E+03  0.19354347039E+02 -0.61231406285E+03  0.77151762663E+03  0.00000000000E+00 0. -1.
         -4    1    5    5    0  503 -0.33511519266E+02  0.19644769056E+02 -0.30924699776E+02  0.49651545102E+02  0.00000000000E+00 0.  1.
         -3    1    6    6    0  502  0.85570405450E+02 -0.40545980152E+02 -0.40922562601E+03  0.42003795517E+03  0.00000000000E+00 0.  1.
<mgrwt>
<rscale>  0 0.13690978E+04</rscale>
<asrwt>0</asrwt>
<pdfrwt beam="1">  1        2 0.30483043E+00 0.13690978E+04</pdfrwt>
<pdfrwt beam="2">  1       -2 0.36385127E-01 0.13690978E+04</pdfrwt>
<totfact> 0.47485455E+01</totfact>
</mgrwt>
</event>
<event>
12    1  0.1980523E-007  0.1525934E+04  0.7818608E-02  0.8867388E-01
         -2   -1    0    0    0  501 -0.00000000000E+00  0.00000000000E+00  0.47672380327E+03  0.47672380327E+03  0.00000000000E+00 0.  1.
          2   -1    0    0  501    0  0.00000000000E+00 -0.00000000000E+00 -0.12210811508E+04  0.12210811508E+04  0.00000000000E+00 0. -1.
         23    2    1    2    0    0  0.46585375457E+02 -0.44972747689E+03 -0.33054632520E+02  0.46234955626E+03  0.90826773409E+02 0.  0.
        254    2    1    2    0    0 -0.46585375457E+02  0.44972747689E+03 -0.71130271497E+03  0.12354553978E+04  0.90331250787E+03 0.  0.
        -24    2    4    4    0    0 -0.90663725245E+02  0.59199644788E+02  0.19902421930E+03  0.24019037752E+03  0.79726210029E+02 0.  0.
         24    2    4    4    0    0  0.44078349787E+02  0.39052783210E+03 -0.91032693427E+03  0.99526502026E+03  0.86037461127E+02 0.  0.
         13    1    3    3    0    0  0.62337927908E+00  0.44316408890E+01  0.10552309225E+01  0.45979946710E+01  0.00000000000E+00 0.  1.
        -13    1    3    3    0    0  0.45961996178E+02 -0.45415911778E+03 -0.34109863443E+02  0.45775156159E+03  0.00000000000E+00 0. -1.
          2    1    6    6  502    0  0.46602123877E+02  0.19950763613E+03 -0.55893020389E+03  0.59529658797E+03  0.00000000000E+00 0. -1.
          3    1    5    5  503    0 -0.66166159107E+02  0.78934110541E+02  0.15365211553E+03  0.18497980166E+03  0.00000000000E+00 0. -1.
         -4    1    5    5    0  503 -0.24497566138E+02 -0.19734465753E+02  0.45372103772E+02  0.55210575852E+02  0.00000000000E+00 0.  1.
         -1    1    6    6    0  502 -0.25237740895E+01  0.19102019597E+03 -0.35139673038E+03  0.39996843229E+03  0.00000000000E+00 0.  1.
<mgrwt>
<rscale>  0 0.15259337E+04</rscale>
<asrwt>0</asrwt>
<pdfrwt beam="1">  1        2 0.18785864E+00 0.15259337E+04</pdfrwt>
<pdfrwt beam="2">  1       -2 0.73342125E-01 0.15259337E+04</pdfrwt>
<totfact> 0.29772980E+01</totfact>
</mgrwt>
</event>
<event>
12    1  0.1980523E-007  0.2266844E+04  0.7818608E-02  0.8491110E-01
         -2   -1    0    0    0  501 -0.00000000000E+00  0.00000000000E+00  0.44146787804E+03  0.44146787804E+03  0.00000000000E+00 0.  1.
          2   -1    0    0  501    0  0.00000000000E+00 -0.00000000000E+00 -0.29099404697E+04  0.29099404697E+04  0.00000000000E+00 0. -1.
         23    2    1    2    0    0  0.27126455470E+03 -0.50988652865E+03  0.77640085053E+02  0.58992283097E+03  0.91718225892E+02 0.  0.
        254    2    1    2    0    0 -0.27126455470E+03  0.50988652865E+03 -0.25461126767E+04  0.27614855167E+04  0.89974650098E+03 0.  0.
        -24    2    4    4    0    0  0.81212407359E+02 -0.14218996137E+03 -0.10998658043E+03  0.21380246130E+03  0.82468202107E+02 0.  0.
         24    2    4    4    0    0 -0.35247696206E+03  0.65207649002E+03 -0.24361260963E+04  0.25476830554E+04  0.80838335381E+02 0.  0.
         11    1    3    3    0    0  0.57471014475E+02 -0.11681841298E+03 -0.20618331663E+02  0.13181265006E+03  0.00000000000E+00 0. -1.
        -11    1    3    3    0    0  0.21379354022E+03 -0.39306811567E+03  0.98258416715E+02  0.45811018091E+03  0.00000000000E+00 0.  1.
          2    1    6    6  502    0 -0.26629394910E+03  0.54115652282E+03 -0.20457366421E+04  0.21327918929E+04  0.00000000000E+00 0. -1.
          3    1    5    5  503    0 -0.16464670639E+01 -0.25980867024E+02  0.94519264853E+01  0.27695761758E+02  0.00000000000E+00 0. -1.
         -4    1    5    5    0  503  0.82858874423E+02 -0.11620909435E+03 -0.11943850691E+03  0.18610669954E+03  0.00000000000E+00 0.  1.
         -1    1    6    6    0  502 -0.86183012959E+02  0.11091996720E+03 -0.39038945414E+03  0.41489116254E+03  0.00000000000E+00 0.  1.
<mgrwt>
<rscale>  0 0.22668438E+04</rscale>
<asrwt>0</asrwt>
<pdfrwt beam="1">  1        2 0.44768315E+00 0.22668438E+04</pdfrwt>
<pdfrwt beam="2">  1       -2 0.67918135E-01 0.22668438E+04</pdfrwt>
<totfact> 0.35776977E+00</totfact>
</mgrwt>
</event>
<event>
12    1  0.1980523E-007  0.3304427E+04  0.7818608E-02  0.8161770E-01
          2   -1    0    0  501    0  0.00000000000E+00  0.00000000000E+00  0.30340156616E+04  0.30340156616E+04  0.00000000000E+00 0. -1.
         -2   -1    0    0    0  501 -0.00000000000E+00 -0.00000000000E+00 -0.89973456732E+03  0.89973456732E+03  0.00000000000E+00 0.  1.
         23    2    1    2    0    0  0.82449848999E+03  0.10533092328E+04  0.18679834998E+04  0.22994286523E+04  0.93550369400E+02 0.  0.
        254    2    1    2    0    0 -0.82449848999E+03 -0.10533092328E+04  0.26629759451E+03  0.16343215767E+04  0.90046349581E+03 0.  0.
        -24    2    4    4    0    0 -0.74146330958E+03 -0.84503105101E+03 -0.16763162021E+03  0.11395033326E+04  0.80759942916E+02 0.  0.
         24    2    4    4    0    0 -0.83035180412E+02 -0.20827818175E+03  0.43392921471E+03  0.49481824402E+03  0.79220509068E+02 0.  0.
         13    1    3    3    0    0  0.93778560880E+02  0.90923396965E+02  0.22094245079E+03  0.25666524727E+03  0.00000000000E+00 0. -1.
        -13    1    3    3    0    0  0.73071992911E+03  0.96238583579E+03  0.16470410490E+04  0.20427634050E+04  0.00000000000E+00 0.  1.
          2    1    6    6  502    0  0.39704832193E+00  0.37107878197E+01  0.36765498038E+02  0.36954423817E+02  0.00000000000E+00 0. -1.
          3    1    5    5  503    0 -0.34265727471E+03 -0.40960783018E+03 -0.40894322905E+02  0.53559772974E+03  0.00000000000E+00 0. -1.
         -4    1    5    5    0  503 -0.39880603487E+03 -0.43542322083E+03 -0.12673729730E+03  0.60390560290E+03  0.00000000000E+00 0.  1.
         -1    1    6    6    0  502 -0.83432228734E+02 -0.21198896957E+03  0.39716371668E+03  0.45786382021E+03  0.00000000000E+00 0.  1.
<mgrwt>
<rscale>  0 0.33044266E+04</rscale>
<asrwt>0</asrwt>
<pdfrwt beam="1">  1        2 0.46677164E+00 0.33044266E+04</pdfrwt>
<pdfrwt beam="2">  1       -2 0.13842070E+00 0.33044266E+04</pdfrwt>
<totfact> 0.51146365E-01</totfact>
</mgrwt>
</event>
<event>
12    1  0.1980523E-007  0.1791534E+04  0.7818608E-02  0.8710814E-01
          2   -1    0    0  501    0  0.00000000000E+00  0.00000000000E+00  0.69744033821E+03  0.69744033821E+03  0.00000000000E+00 0. -1.
         -2   -1    0    0    0  501 -0.00000000000E+00 -0.00000000000E+00 -0.11504910910E+04  0.11504910910E+04  0.00000000000E+00 0.  1.
         23    2    1    2    0    0 -0.65293920440E+03 -0.11987854870E+03 -0.10842907170E+03  0.67860603588E+03  0.89715200828E+02 0.  0.
        254    2    1    2    0    0  0.65293920440E+03  0.11987854870E+03 -0.34462168111E+03  0.11693253934E+04  0.89880882360E+03 0.  0.
        -24    2    4    4    0    0  0.73704035704E+03 -0.16239251389E+03 -0.40376421690E+03  0.85875532931E+03  0.69536726202E+02 0.  0.
         24    2    4    4    0    0 -0.84101152636E+02  0.28227106260E+03  0.59142535789E+02  0.31057006405E+03  0.78777969589E+02 0.  0.
         13    1    3    3    0    0 -0.32204975011E+03 -0.89685817281E+02 -0.20646177577E+02  0.33494156508E+03  0.00000000000E+00 0.  1.
        -13    1    3    3    0    0 -0.33088945429E+03 -0.30192731424E+02 -0.87782894127E+02  0.34366447080E+03  0.00000000000E+00 0. -1.
          2    1    6    6  502    0  0.95300247676E+01  0.32522376258E+02 -0.94219546758E+01  0.35175269145E+02  0.00000000000E+00 0. -1.
          3    1    5    5  503    0  0.12273349587E+03 -0.39670012002E+02 -0.96018064854E+02  0.16080015435E+03  0.00000000000E+00 0. -1.
         -4    1    5    5    0  503  0.61430686117E+03 -0.12272250189E+03 -0.30774615205E+03  0.69795517496E+03  0.00000000000E+00 0.  1.
         -1    1    6    6    0  502 -0.93631177403E+02  0.24974868634E+03  0.68564490465E+02  0.27539479491E+03  0.00000000000E+00 0.  1.
<mgrwt>
<rscale>  0 0.17915344E+04</rscale>
<asrwt>0</asrwt>
<pdfrwt beam="1">  1        2 0.10729852E+00 0.17915344E+04</pdfrwt>
<pdfrwt beam="2">  1       -2 0.17699863E+00 0.17915344E+04</pdfrwt>
<totfact> 0.73929294E+00</totfact>
</mgrwt>
</event>
<event>
12    1  0.1980523E-007  0.1407985E+04  0.7818608E-02  0.8948059E-01
          2   -1    0    0  501    0  0.00000000000E+00  0.00000000000E+00  0.38935061700E+04  0.38935061700E+04  0.00000000000E+00 0. -1.
         -2   -1    0    0    0  501 -0.00000000000E+00 -0.00000000000E+00 -0.12729030126E+03  0.12729030126E+03  0.00000000000E+00 0.  1.
         23    2    1    2    0    0  0.85402435772E+02 -0.32587836303E+03  0.45906489351E+03  0.57662881182E+03  0.90939137021E+02 0.  0.
        254    2    1    2    0    0 -0.85402435772E+02  0.32587836303E+03  0.33071509752E+04  0.34441676594E+04  0.90086237006E+03 0.  0.
        -24    2    4    4    0    0  0.13926639608E+03  0.63823243082E+02  0.28975717783E+04  0.29026465047E+04  0.77239790158E+02 0.  0.
         24    2    4    4    0    0 -0.22466883186E+03  0.26205511995E+03  0.40957919693E+03  0.54152115477E+03  0.79630852110E+02 0.  0.
         13    1    3    3    0    0  0.49400473598E+02 -0.30045828974E+03  0.39172774461E+03  0.49615140488E+03  0.00000000000E+00 0.  1.
        -13    1    3    3    0    0  0.36001962174E+02 -0.25420073291E+02  0.67337148895E+02  0.80477406940E+02  0.00000000000E+00 0. -1.
          4    1    6    6  502    0 -0.20488167199E+03  0.24322650482E+03  0.33412585873E+03  0.46127618802E+03  0.00000000000E+00 0. -1.
          3    1    5    5  503    0  0.85780297745E+02  0.19387620905E+02  0.10189060625E+04  0.10226943354E+04  0.00000000000E+00 0. -1.
         -4    1    5    5    0  503  0.53486098339E+02  0.44435622177E+02  0.18786657158E+04  0.18799521693E+04  0.00000000000E+00 0.  1.
         -3    1    6    6    0  502 -0.19787159867E+02  0.18828615131E+02  0.75453338197E+02  0.80244966748E+02  0.00000000000E+00 0.  1.
<mgrwt>
<rscale>  0 0.14079852E+04</rscale>
<asrwt>0</asrwt>
<pdfrwt beam="1">  1        2 0.59900086E+00 0.14079852E+04</pdfrwt>
<pdfrwt beam="2">  1       -2 0.19583126E-01 0.14079852E+04</pdfrwt>
<totfact> 0.92036068E+00</totfact>
</mgrwt>
</event>
<event>
12    1  0.1980523E-007  0.2088458E+04  0.7818608E-02  0.8566345E-01
         -1   -1    0    0    0  501 -0.00000000000E+00  0.00000000000E+00  0.45378226727E+03  0.45378226727E+03  0.00000000000E+00 0.  1.
          1   -1    0    0  501    0  0.00000000000E+00 -0.00000000000E+00 -0.24029463435E+04  0.24029463435E+04  0.00000000000E+00 0. -1.
         23    2    1    2    0    0  0.11121097394E+03 -0.80689619134E+03 -0.11092549776E+04  0.13792125356E+04  0.91275783862E+02 0.  0.
        254    2    1    2    0    0 -0.11121097394E+03  0.80689619134E+03 -0.83990909862E+03  0.14775160752E+04  0.90230655215E+03 0.  0.
        -24    2    4    4    0    0 -0.11323804799E+03  0.21419358660E+03  0.16821220900E+03  0.30539207079E+03  0.79165785494E+02 0.  0.
         24    2    4    4    0    0  0.20270740572E+01  0.59270260475E+03 -0.10081213076E+04  0.11721240044E+04  0.79155694785E+02 0.  0.
         11    1    3    3    0    0  0.50325017142E+02 -0.15206628750E+03 -0.25493332289E+03  0.30107766816E+03  0.00000000000E+00 0. -1.
        -11    1    3    3    0    0  0.60885956794E+02 -0.65482990384E+03 -0.85432165469E+03  0.10781348674E+04  0.00000000000E+00 0.  1.
          4    1    6    6  502    0 -0.36680037279E+02  0.30712121664E+03 -0.54510628811E+03  0.62674534875E+03  0.00000000000E+00 0. -1.
          1    1    5    5  503    0  0.10178351257E+02  0.40813947755E+02  0.28586899651E+02  0.50858509586E+02  0.00000000000E+00 0. -1.
         -4    1    5    5    0  503 -0.12341639925E+03  0.17337963884E+03  0.13962530935E+03  0.25453356121E+03  0.00000000000E+00 0.  1.
         -3    1    6    6    0  502  0.38707111336E+02  0.28558138811E+03 -0.46301501951E+03  0.54537865561E+03  0.00000000000E+00 0.  1.
<mgrwt>
<rscale>  0 0.20884582E+04</rscale>
<asrwt>0</asrwt>
<pdfrwt beam="1">  1        1 0.36968405E+00 0.20884582E+04</pdfrwt>
<pdfrwt beam="2">  1       -1 0.69812657E-01 0.20884582E+04</pdfrwt>
<totfact> 0.30205209E+00</totfact>
</mgrwt>
</event>
<event>
12    1  0.1980523E-007  0.2481339E+04  0.7818608E-02  0.8409664E-01
         -2   -1    0    0    0  501 -0.00000000000E+00  0.00000000000E+00  0.61434996684E+03  0.61434996684E+03  0.00000000000E+00 0.  1.
          2   -1    0    0  501    0  0.00000000000E+00 -0.00000000000E+00 -0.25055118596E+04  0.25055118596E+04  0.00000000000E+00 0. -1.
         23    2    1    2    0    0  0.59245604303E+03 -0.56666480111E+03 -0.16972471950E+04  0.18870949069E+04  0.91465769347E+02 0.  0.
        254    2    1    2    0    0 -0.59245604303E+03  0.56666480111E+03 -0.19391469770E+03  0.12327669195E+04  0.89999900448E+03 0.  0.
        -24    2    4    4    0    0  0.12045762949E+03  0.30211786690E+03 -0.31395885682E+03  0.45889325040E+03  0.78915179063E+02 0.  0.
         24    2    4    4    0    0 -0.71291367252E+03  0.26454693421E+03  0.12004415911E+03  0.77387366909E+03  0.78986522303E+02 0.  0.
         13    1    3    3    0    0  0.27279487718E+03 -0.22583684919E+03 -0.81861129163E+03  0.89193260635E+03  0.00000000000E+00 0. -1.
        -13    1    3    3    0    0  0.31966116585E+03 -0.34082795191E+03 -0.87863590341E+03  0.99516230059E+03  0.00000000000E+00 0.  1.
          4    1    6    6  502    0 -0.19667681853E+03  0.10443521145E+03  0.55825968651E+02  0.22957574592E+03  0.00000000000E+00 0. -1.
          1    1    5    5  503    0  0.45485860685E+02  0.73744226767E+02 -0.12992730242E+03  0.15616746914E+03  0.00000000000E+00 0. -1.
         -2    1    5    5    0  503  0.74971768808E+02  0.22837364013E+03 -0.18403155440E+03  0.30272578126E+03  0.00000000000E+00 0.  1.
         -3    1    6    6    0  502 -0.51623685399E+03  0.16011172276E+03  0.64218190461E+02  0.54429792317E+03  0.00000000000E+00 0.  1.
<mgrwt>
<rscale>  0 0.24813393E+04</rscale>
<asrwt>0</asrwt>
<pdfrwt beam="1">  1        2 0.38546337E+00 0.24813393E+04</pdfrwt>
<pdfrwt beam="2">  1       -2 0.94515378E-01 0.24813393E+04</pdfrwt>
<totfact> 0.29109468E+00</totfact>
</mgrwt>
</event>
<event>
12    1  0.1980523E-007  0.3160791E+04  0.7818608E-02  0.8199250E-01
          2   -1    0    0  501    0  0.00000000000E+00  0.00000000000E+00  0.18975130192E+04  0.18975130192E+04  0.00000000000E+00 0. -1.
         -2   -1    0    0    0  501 -0.00000000000E+00 -0.00000000000E+00 -0.13162752485E+04  0.13162752485E+04  0.00000000000E+00 0.  1.
         23    2    1    2    0    0 -0.83997419336E+03 -0.11425831252E+04  0.57928865828E+03  0.15342997579E+04  0.86299212609E+02 0.  0.
        254    2    1    2    0    0  0.83997419336E+03  0.11425831252E+04  0.19491123514E+01  0.16794885098E+04  0.89979164930E+03 0.  0.
        -24    2    4    4    0    0  0.17492520963E+03  0.96387778893E+03 -0.50228187621E+02  0.98434060396E+03  0.82123887052E+02 0.  0.
         24    2    4    4    0    0  0.66504898373E+03  0.17870533623E+03  0.52177299972E+02  0.69514790585E+03  0.79261544401E+02 0.  0.
         13    1    3    3    0    0 -0.38346510373E+03 -0.57456019035E+03  0.24993110189E+03  0.73459543546E+03  0.00000000000E+00 0.  1.
        -13    1    3    3    0    0 -0.45650908963E+03 -0.56802293481E+03  0.32935755639E+03  0.79970432244E+03  0.00000000000E+00 0. -1.
          4    1    6    6  502    0  0.28047487654E+03  0.10173440621E+03  0.52541115681E+02  0.30294655405E+03  0.00000000000E+00 0. -1.
          1    1    5    5  503    0  0.12647088631E+03  0.79687652420E+03 -0.67100070702E+02  0.80963541140E+03  0.00000000000E+00 0. -1.
         -2    1    5    5    0  503  0.48454323325E+02  0.16700126472E+03  0.16871883082E+02  0.17470519256E+03  0.00000000000E+00 0.  1.
         -3    1    6    6    0  502  0.38457410719E+03  0.76970930019E+02 -0.36381570903E+00  0.39220135180E+03  0.00000000000E+00 0.  1.
<mgrwt>
<rscale>  0 0.31607907E+04</rscale>
<asrwt>0</asrwt>
<pdfrwt beam="1">  1        2 0.29192508E+00 0.31607907E+04</pdfrwt>
<pdfrwt beam="2">  1       -2 0.20250388E+00 0.31607907E+04</pdfrwt>
<totfact> 0.82422910E-01</totfact>
</mgrwt>
</event>
<event>
12    1  0.1980523E-007  0.1716094E+04  0.7818608E-02  0.8752238E-01
         -1   -1    0    0    0  501 -0.00000000000E+00  0.00000000000E+00  0.13715416891E+04  0.13715416891E+04  0.00000000000E+00 0.  1.
          1   -1    0    0  501    0  0.00000000000E+00 -0.00000000000E+00 -0.53680097207E+03  0.53680097207E+03  0.00000000000E+00 0. -1.
         23    2    1    2    0    0  0.13721701719E+03 -0.59524029030E+03  0.21236320159E+03  0.65306348308E+03  0.90853016137E+02 0.  0.
        254    2    1    2    0    0 -0.13721701719E+03  0.59524029030E+03  0.62237751545E+03  0.12552791781E+04  0.90290228166E+03 0.  0.
        -24    2    4    4    0    0  0.46248599030E+02  0.36461518849E+03 -0.16485722373E+03  0.41085787813E+03  0.80889574189E+02 0.  0.
         24    2    4    4    0    0 -0.18346561622E+03  0.23062510181E+03  0.78723473918E+03  0.84442129997E+03  0.80381760120E+02 0.  0.
         13    1    3    3    0    0  0.53287402206E+02 -0.39566675335E+03  0.16149076077E+03  0.43066343327E+03  0.00000000000E+00 0. -1.
        -13    1    3    3    0    0  0.83929614981E+02 -0.19957353695E+03  0.50872440825E+02  0.22240004982E+03  0.00000000000E+00 0.  1.
          2    1    6    6  502    0 -0.14498992558E+03  0.15367229172E+03  0.63907446527E+03  0.67309243341E+03  0.00000000000E+00 0. -1.
          3    1    5    5  503    0  0.30075025746E+02  0.34018045352E+03 -0.13022884804E+03  0.36549528177E+03  0.00000000000E+00 0. -1.
         -4    1    5    5    0  503  0.16173573284E+02  0.24434734972E+02 -0.34628375688E+02  0.45362596362E+02  0.00000000000E+00 0.  1.
         -1    1    6    6    0  502 -0.38475690637E+02  0.76952810093E+02  0.14816027391E+03  0.17132886656E+03  0.00000000000E+00 0.  1.
<mgrwt>
<rscale>  0 0.17160943E+04</rscale>
<asrwt>0</asrwt>
<pdfrwt beam="1">  1        1 0.82584765E-01 0.17160943E+04</pdfrwt>
<pdfrwt beam="2">  1       -1 0.21100641E+00 0.17160943E+04</pdfrwt>
<totfact> 0.48270479E+00</totfact>
</mgrwt>
</event>
<event>
12    1  0.1980523E-007  0.1872003E+04  0.7818608E-02  0.8668919E-01
         -1   -1    0    0    0  501 -0.00000000000E+00  0.00000000000E+00  0.94121418145E+03  0.94121418145E+03  0.00000000000E+00 0.  1.
          1   -1    0    0  501    0  0.00000000000E+00 -0.00000000000E+00 -0.93081765623E+03  0.93081765623E+03  0.00000000000E+00 0. -1.
         23    2    1    2    0    0  0.17628403151E+03  0.11757822526E+03  0.68743700732E+03  0.72485160056E+03  0.89103899854E+02 0.  0.
        254    2    1    2    0    0 -0.17628403151E+03 -0.11757822526E+03 -0.67704048210E+03  0.11471802371E+04  0.90151981854E+03 0.  0.
        -24    2    4    4    0    0 -0.31884644323E+03 -0.21599545295E+03  0.50714783713E+02  0.39462150565E+03  0.69548927942E+02 0.  0.
         24    2    4    4    0    0  0.14256241172E+03  0.98417227685E+02 -0.72775526582E+03  0.75255873148E+03  0.81895820818E+02 0.  0.
         11    1    3    3    0    0  0.11333451617E+03  0.10599455129E+03  0.37343552125E+03  0.40439293514E+03  0.00000000000E+00 0. -1.
        -11    1    3    3    0    0  0.62949515343E+02  0.11583673967E+02  0.31400148607E+03  0.32045866541E+03  0.00000000000E+00 0.  1.
          2    1    6    6  502    0  0.54683869432E+02  0.51426678683E+02 -0.47452447714E+03  0.48042534099E+03  0.00000000000E+00 0. -1.
          3    1    5    5  503    0 -0.14448978933E+03 -0.10195586541E+03  0.58134082638E+02  0.18615012564E+03  0.00000000000E+00 0. -1.
         -4    1    5    5    0  503 -0.17435665390E+03 -0.11403958754E+03 -0.74192989253E+01  0.20847138001E+03  0.00000000000E+00 0.  1.
         -1    1    6    6    0  502  0.87878542283E+02  0.46990549002E+02 -0.25323078867E+03  0.27213339049E+03  0.00000000000E+00 0.  1.
<mgrwt>
<rscale>  0 0.18720030E+04</rscale>
<asrwt>0</asrwt>
<pdfrwt beam="1">  1        1 0.14320272E+00 0.18720030E+04</pdfrwt>
<pdfrwt beam="2">  1       -1 0.14480218E+00 0.18720030E+04</pdfrwt>
<totfact> 0.61771386E+00</totfact>
</mgrwt>
</event>
<event>
12    1  0.1980523E-007  0.1696253E+04  0.7818608E-02  0.8763504E-01
          1   -1    0    0  501    0  0.00000000000E+00  0.00000000000E+00  0.26720624406E+04  0.26720624406E+04  0.00000000000E+00 0. -1.
         -1   -1    0    0    0  501 -0.00000000000E+00 -0.00000000000E+00 -0.26919973874E+03  0.26919973874E+03  0.00000000000E+00 0.  1.
         23    2    1    2    0    0  0.32706613141E+03 -0.47350280370E+03  0.11914635093E+04  0.13263445081E+04  0.91800330578E+02 0.  0.
        254    2    1    2    0    0 -0.32706613141E+03  0.47350280370E+03  0.12113991925E+04  0.16149176712E+04  0.89960764877E+03 0.  0.
        -24    2    4    4    0    0 -0.14085763588E+03  0.65365558437E+03  0.11586932373E+04  0.13401630448E+04  0.79752568147E+02 0.  0.
         24    2    4    4    0    0 -0.18620849553E+03 -0.18015278066E+03  0.52705955268E+02  0.27475462638E+03  0.74723214636E+02 0.  0.
         13    1    3    3    0    0  0.23126931149E+02 -0.36879793093E+02  0.45793523574E+02  0.63182441265E+02  0.00000000000E+00 0.  1.
        -13    1    3    3    0    0  0.30393920026E+03 -0.43662301061E+03  0.11456699857E+04  0.12631620668E+04  0.00000000000E+00 0. -1.
          4    1    6    6  502    0 -0.14680869196E+03 -0.93806267879E+02  0.25924989142E+02  0.17613776708E+03  0.00000000000E+00 0. -1.
          3    1    5    5  503    0 -0.79721185404E+02  0.46701991081E+03  0.87657791060E+03  0.99641953908E+03  0.00000000000E+00 0. -1.
         -4    1    5    5    0  503 -0.61136450473E+02  0.18663567356E+03  0.28211532665E+03  0.34374350576E+03  0.00000000000E+00 0.  1.
         -3    1    6    6    0  502 -0.39399803571E+02 -0.86346512785E+02  0.26780966126E+02  0.98616859300E+02  0.00000000000E+00 0.  1.
<mgrwt>
<rscale>  0 0.16962529E+04</rscale>
<asrwt>0</asrwt>
<pdfrwt beam="1">  1        1 0.41108651E+00 0.16962529E+04</pdfrwt>
<pdfrwt beam="2">  1       -1 0.41415346E-01 0.16962529E+04</pdfrwt>
<totfact> 0.55980765E+00</totfact>
</mgrwt>
</event>
<event>
12    1  0.1980523E-007  0.1072869E+04  0.7818608E-02  0.9232047E-01
         -2   -1    0    0    0  501 -0.00000000000E+00  0.00000000000E+00  0.23727599669E+03  0.23727599669E+03  0.00000000000E+00 0.  1.
          2   -1    0    0  501    0  0.00000000000E+00 -0.00000000000E+00 -0.12127722944E+04  0.12127722944E+04  0.00000000000E+00 0. -1.
         23    2    1    2    0    0 -0.12787566062E+03 -0.25046984150E+02 -0.12773712831E+03  0.20607941420E+03  0.95772725822E+02 0.  0.
        254    2    1    2    0    0  0.12787566062E+03  0.25046984150E+02 -0.84775916937E+03  0.12439688769E+04  0.90099024488E+03 0.  0.
        -24    2    4    4    0    0 -0.40621081038E+02  0.29784594911E+03 -0.85696246184E+03  0.91170757986E+03  0.80397565487E+02 0.  0.
         24    2    4    4    0    0  0.16849674166E+03 -0.27279896496E+03  0.92032924761E+01  0.33226129701E+03  0.86616636193E+02 0.  0.
         11    1    3    3    0    0 -0.82979635197E+02 -0.61426568332E+02 -0.72627842701E+02  0.12622854942E+03  0.00000000000E+00 0. -1.
        -11    1    3    3    0    0 -0.44896025428E+02  0.36379584182E+02 -0.55109285607E+02  0.79850864771E+02  0.00000000000E+00 0.  1.
          4    1    6    6  502    0  0.42589702733E+02 -0.97911119579E+02  0.41115365382E+02  0.11441566058E+03  0.00000000000E+00 0. -1.
          1    1    5    5  503    0  0.38486718958E+01  0.26328681541E+02 -0.16362831117E+03  0.16577767028E+03  0.00000000000E+00 0. -1.
         -2    1    5    5    0  503 -0.44469752934E+02  0.27151726757E+03 -0.69333415068E+03  0.74592990958E+03  0.00000000000E+00 0.  1.
         -3    1    6    6    0  502  0.12590703893E+03 -0.17488784538E+03 -0.31912072906E+02  0.21784563643E+03  0.00000000000E+00 0.  1.
<mgrwt>
<rscale>  0 0.10728686E+04</rscale>
<asrwt>0</asrwt>
<pdfrwt beam="1">  1        2 0.18658035E+00 0.10728686E+04</pdfrwt>
<pdfrwt beam="2">  1       -2 0.36504001E-01 0.10728686E+04</pdfrwt>
<totfact> 0.13063126E+02</totfact>
</mgrwt>
</event>
<event>
12    1  0.1980523E-007  0.1719558E+04  0.7818608E-02  0.8750288E-01
          1   -1    0    0  501    0  0.00000000000E+00  0.00000000000E+00  0.12674497624E+04  0.12674497624E+04  0.00000000000E+00 0. -1.
         -1   -1    0    0    0  501 -0.00000000000E+00 -0.00000000000E+00 -0.58323380607E+03  0.58323380607E+03  0.00000000000E+00 0.  1.
         23    2    1    2    0    0  0.30495566895E+03  0.45619972671E+03  0.56010642275E+03  0.78938022156E+03  0.91026252790E+02 0.  0.
        254    2    1    2    0    0 -0.30495566895E+03 -0.45619972671E+03  0.12410953354E+03  0.10613033469E+04  0.89991414429E+03 0.  0.
        -24    2    4    4    0    0  0.14411792680E+03 -0.52441668399E+03 -0.82236002765E+02  0.55586982113E+03  0.80284884103E+02 0.  0.
         24    2    4    4    0    0 -0.44907359576E+03  0.68216957281E+02  0.20634553630E+03  0.50543352575E+03  0.81018028429E+02 0.  0.
         13    1    3    3    0    0  0.94853187924E+02  0.14611450350E+03  0.24069479500E+03  0.29712044650E+03  0.00000000000E+00 0. -1.
        -13    1    3    3    0    0  0.21010248103E+03  0.31008522321E+03  0.31941162775E+03  0.49225977505E+03  0.00000000000E+00 0.  1.
          4    1    6    6  502    0 -0.19269046090E+03  0.62080824415E+02  0.65103068206E+02  0.21265477180E+03  0.00000000000E+00 0. -1.
          3    1    5    5  503    0  0.51543731292E+02 -0.77194427864E+02 -0.79001934823E+01  0.93156583159E+02  0.00000000000E+00 0. -1.
         -4    1    5    5    0  503  0.92574195512E+02 -0.44722225613E+03 -0.74335809283E+02  0.46271323797E+03  0.00000000000E+00 0.  1.
         -3    1    6    6    0  502 -0.25638313486E+03  0.61361328656E+01  0.14124246810E+03  0.29277875395E+03  0.00000000000E+00 0.  1.
<mgrwt>
<rscale>  0 0.17195576E+04</rscale>
<asrwt>0</asrwt>
<pdfrwt beam="1">  1        1 0.19499227E+00 0.17195576E+04</pdfrwt>
<pdfrwt beam="2">  1       -1 0.89728278E-01 0.17195576E+04</pdfrwt>
<totfact> 0.11029066E+01</totfact>
</mgrwt>
</event>
<event>
12    1  0.1980523E-007  0.2373410E+04  0.7818608E-02  0.8449526E-01
          1   -1    0    0  501    0  0.00000000000E+00  0.00000000000E+00  0.13249191952E+04  0.13249191952E+04  0.00000000000E+00 0.  1.
         -1   -1    0    0    0  501 -0.00000000000E+00 -0.00000000000E+00 -0.10629095248E+04  0.10629095248E+04  0.00000000000E+00 0. -1.
         23    2    1    2    0    0 -0.38828008425E+03  0.75630512543E+03 -0.44404606072E+03  0.96338218370E+03  0.90385072038E+02 0.  0.
        254    2    1    2    0    0  0.38828008425E+03 -0.75630512543E+03  0.70605573117E+03  0.14244465363E+04  0.89876268986E+03 0.  0.
        -24    2    4    4    0    0  0.15726529469E+03 -0.52107253778E+03  0.88408153366E+03  0.10411949059E+04  0.78979183819E+02 0.  0.
         24    2    4    4    0    0  0.23101478957E+03 -0.23523258765E+03 -0.17802580249E+03  0.38325163035E+03  0.80538329512E+02 0.  0.
         11    1    3    3    0    0 -0.95207622224E+02  0.14228652401E+03 -0.12462171406E+03  0.21175579770E+03  0.00000000000E+00 0. -1.
        -11    1    3    3    0    0 -0.29307246203E+03  0.61401860142E+03 -0.31942434666E+03  0.75162638599E+03  0.00000000000E+00 0.  1.
          2    1    6    6  502    0  0.88910993719E+02 -0.10027131512E+03 -0.11724941978E+03  0.17806439251E+03  0.00000000000E+00 0. -1.
          1    1    5    5  503    0  0.12572684450E+03 -0.28687491978E+03  0.52487617707E+03  0.61122783010E+03  0.00000000000E+00 0. -1.
         -2    1    5    5    0  503  0.31538450188E+02 -0.23419761800E+03  0.35920535659E+03  0.42996707585E+03  0.00000000000E+00 0.  1.
         -1    1    6    6    0  502  0.14210379585E+03 -0.13496127253E+03 -0.60776382709E+02  0.20518723784E+03  0.00000000000E+00 0.  1.
<mgrwt>
<rscale>  0 0.23734104E+04</rscale>
<asrwt>0</asrwt>
<pdfrwt beam="1">  1        1 0.20383372E+00 0.23734104E+04</pdfrwt>
<pdfrwt beam="2">  1       -1 0.16352454E+00 0.23734104E+04</pdfrwt>
<totfact> 0.21438593E+00</totfact>
</mgrwt>
</event>
<event>
12    1  0.1980523E-007  0.1806575E+04  0.7818608E-02  0.8702811E-01
          2   -1    0    0  501    0  0.00000000000E+00  0.00000000000E+00  0.29964437494E+04  0.29964437494E+04  0.00000000000E+00 0. -1.
         -2   -1    0    0    0  501 -0.00000000000E+00 -0.00000000000E+00 -0.27229887752E+03  0.27229887752E+03  0.00000000000E+00 0.  1.
         23    2    1    2    0    0 -0.39141106625E+03  0.44746928197E+03  0.44734474612E+03  0.74964443665E+03  0.91750086817E+02 0.  0.
        254    2    1    2    0    0  0.39141106625E+03 -0.44746928197E+03  0.22768001258E+04  0.25190981903E+04  0.89922494320E+03 0.  0.
        -24    2    4    4    0    0  0.32726091855E+03 -0.70719509726E+03  0.14731729905E+04  0.16684919477E+04  0.80013155707E+02 0.  0.
         24    2    4    4    0    0  0.64150147701E+02  0.25972581529E+03  0.80362713526E+03  0.85060624260E+03  0.78368787506E+02 0.  0.
         13    1    3    3    0    0 -0.33163128009E+03  0.38750614409E+03  0.41986353410E+03  0.66062523787E+03  0.00000000000E+00 0. -1.
        -13    1    3    3    0    0 -0.59779786156E+02  0.59963137888E+02  0.27481212019E+02  0.89019198784E+02  0.00000000000E+00 0.  1.
          4    1    6    6  502    0  0.46467612621E+02  0.22727125545E+03  0.75301540486E+03  0.78793633152E+03  0.00000000000E+00 0. -1.
          1    1    5    5  503    0  0.20511523654E+03 -0.51974952409E+03  0.10160830806E+04  0.11595846906E+04  0.00000000000E+00 0. -1.
         -2    1    5    5    0  503  0.12214568200E+03 -0.18744557317E+03  0.45708990993E+03  0.50890725706E+03  0.00000000000E+00 0.  1.
         -3    1    6    6    0  502  0.17682535080E+02  0.32454559834E+02  0.50611730402E+02  0.62669911083E+02  0.00000000000E+00 0.  1.
<mgrwt>
<rscale>  0 0.18065750E+04</rscale>
<asrwt>0</asrwt>
<pdfrwt beam="1">  1        2 0.46099132E+00 0.18065750E+04</pdfrwt>
<pdfrwt beam="2">  1       -2 0.41892137E-01 0.18065750E+04</pdfrwt>
<totfact> 0.89509154E+00</totfact>
</mgrwt>
</event>
<event>
12    1  0.1980523E-007  0.1247598E+04  0.7818608E-02  0.9072185E-01
          2   -1    0    0  501    0  0.00000000000E+00  0.00000000000E+00  0.44267945286E+03  0.44267945286E+03  0.00000000000E+00 0. -1.
         -2   -1    0    0    0  501 -0.00000000000E+00 -0.00000000000E+00 -0.87902187143E+03  0.87902187143E+03  0.00000000000E+00 0.  1.
         23    2    1    2    0    0 -0.18749972080E+03  0.14170454563E+03 -0.28316503726E+03  0.37917906851E+03  0.91422120476E+02 0.  0.
        254    2    1    2    0    0  0.18749972080E+03 -0.14170454563E+03 -0.15317738131E+03  0.94252225578E+03  0.89980473934E+03 0.  0.
        -24    2    4    4    0    0  0.17146268345E+03 -0.32667560084E+03  0.27665174298E+03  0.46762906228E+03  0.77616705629E+02 0.  0.
         24    2    4    4    0    0  0.16037037351E+02  0.18497105521E+03 -0.42982912429E+03  0.47489319350E+03  0.79366184955E+02 0.  0.
         13    1    3    3    0    0 -0.82484322065E+02  0.15033678128E+02 -0.12800190073E+03  0.15301686657E+03  0.00000000000E+00 0. -1.
        -13    1    3    3    0    0 -0.10501539874E+03  0.12667086751E+03 -0.15516313653E+03  0.22616220194E+03  0.00000000000E+00 0.  1.
          4    1    6    6  502    0  0.11925286419E+02 -0.40547905192E+01 -0.33060371495E+02  0.35378552058E+02  0.00000000000E+00 0. -1.
          3    1    5    5  503    0  0.55132714829E+01 -0.40945203356E+02  0.58752905616E+02  0.71824854742E+02  0.00000000000E+00 0. -1.
         -4    1    5    5    0  503  0.16594941197E+03 -0.28573039749E+03  0.21789883736E+03  0.39580420754E+03  0.00000000000E+00 0.  1.
         -3    1    6    6    0  502  0.41117509320E+01  0.18902584573E+03 -0.39676875279E+03  0.43951464144E+03  0.00000000000E+00 0.  1.
<mgrwt>
<rscale>  0 0.12475976E+04</rscale>
<asrwt>0</asrwt>
<pdfrwt beam="1">  1        2 0.68104532E-01 0.12475976E+04</pdfrwt>
<pdfrwt beam="2">  1       -2 0.13523413E+00 0.12475976E+04</pdfrwt>
<totfact> 0.27359241E+01</totfact>
</mgrwt>
</event>
<event>
12    1  0.1980523E-007  0.1206560E+04  0.7818608E-02  0.9107134E-01
          1   -1    0    0  501    0  0.00000000000E+00  0.00000000000E+00  0.36605947949E+03  0.36605947949E+03  0.00000000000E+00 0. -1.
         -1   -1    0    0    0  501 -0.00000000000E+00 -0.00000000000E+00 -0.99422810821E+03  0.99422810821E+03  0.00000000000E+00 0.  1.
         23    2    1    2    0    0 -0.24553453160E+03 -0.57131394693E+02 -0.11871451060E+03  0.29365538989E+03  0.92677669990E+02 0.  0.
        254    2    1    2    0    0  0.24553453160E+03  0.57131394693E+02 -0.50945411812E+03  0.10666321978E+04  0.90255722503E+03 0.  0.
        -24    2    4    4    0    0  0.11961072988E+03 -0.20474377807E+03  0.18418340072E+03  0.31032475612E+03  0.78429508457E+02 0.  0.
         24    2    4    4    0    0  0.12592380173E+03  0.26187517277E+03 -0.69363751884E+03  0.75630744169E+03  0.80203047665E+02 0.  0.
         13    1    3    3    0    0 -0.12304086549E+03 -0.46061233022E+02 -0.13999501438E+02  0.13212372160E+03  0.00000000000E+00 0. -1.
        -13    1    3    3    0    0 -0.12249366611E+03 -0.11070161671E+02 -0.10471500917E+03  0.16153166829E+03  0.00000000000E+00 0.  1.
          2    1    6    6  502    0  0.24354272722E+01  0.15973552087E+02 -0.10852506655E+03  0.10972135499E+03  0.00000000000E+00 0. -1.
          3    1    5    5  503    0  0.18439214744E+02 -0.49050182570E+02  0.55922733945E+01  0.52699132557E+02  0.00000000000E+00 0. -1.
         -4    1    5    5    0  503  0.10117151513E+03 -0.15569359550E+03  0.17859112733E+03  0.25762562356E+03  0.00000000000E+00 0.  1.
         -1    1    6    6    0  502  0.12348837446E+03  0.24590162068E+03 -0.58511245230E+03  0.64658608670E+03  0.00000000000E+00 0.  1.
<mgrwt>
<rscale>  0 0.12065598E+04</rscale>
<asrwt>0</asrwt>
<pdfrwt beam="1">  1        1 0.56316843E-01 0.12065598E+04</pdfrwt>
<pdfrwt beam="2">  1       -1 0.15295817E+00 0.12065598E+04</pdfrwt>
<totfact> 0.22096544E+01</totfact>
</mgrwt>
</event>
<event>
12    1  0.1980523E-007  0.1303417E+04  0.7818608E-02  0.9026860E-01
          2   -1    0    0  501    0  0.00000000000E+00  0.00000000000E+00  0.26314580251E+04  0.26314580251E+04  0.00000000000E+00 0. -1.
         -2   -1    0    0    0  501 -0.00000000000E+00 -0.00000000000E+00 -0.16140249599E+03  0.16140249599E+03  0.00000000000E+00 0.  1.
         23    2    1    2    0    0 -0.32353919162E+03 -0.18460817155E+02  0.59173938876E+03  0.68253580985E+03  0.10334997453E+03 0.  0.
        254    2    1    2    0    0  0.32353919162E+03  0.18460817155E+02  0.18783161404E+04  0.21103247113E+04  0.90574855974E+03 0.  0.
        -24    2    4    4    0    0 -0.75706653658E+02  0.12655780244E+03  0.15936949934E+04  0.16024263918E+04  0.78474417397E+02 0.  0.
         24    2    4    4    0    0  0.39924584528E+03 -0.10809698528E+03  0.28462114694E+03  0.50789831949E+03  0.76611372884E+02 0.  0.
         13    1    3    3    0    0 -0.91907503306E+02  0.20960552959E+02  0.25550149550E+03  0.27233682848E+03  0.00000000000E+00 0. -1.
        -13    1    3    3    0    0 -0.23163168832E+03 -0.39421370114E+02  0.33623789326E+03  0.41019898137E+03  0.00000000000E+00 0.  1.
          2    1    6    6  502    0  0.25577197739E+03 -0.31560924069E+02  0.18429382286E+03  0.31682741278E+03  0.00000000000E+00 0. -1.
          3    1    5    5  503    0  0.46629922887E+01  0.66270592965E+00  0.31536929974E+03  0.31540446714E+03  0.00000000000E+00 0. -1.
         -4    1    5    5    0  503 -0.80369645947E+02  0.12589509651E+03  0.12783256937E+04  0.12870219246E+04  0.00000000000E+00 0.  1.
         -1    1    6    6    0  502  0.14347386789E+03 -0.76536061211E+02  0.10032732409E+03  0.19107090671E+03  0.00000000000E+00 0.  1.
<mgrwt>
<rscale>  0 0.13034169E+04</rscale>
<asrwt>0</asrwt>
<pdfrwt beam="1">  1        2 0.40483966E+00 0.13034169E+04</pdfrwt>
<pdfrwt beam="2">  1       -2 0.24831155E-01 0.13034169E+04</pdfrwt>
<totfact> 0.41761987E+01</totfact>
</mgrwt>
</event>
<event>
12    1  0.1980523E-007  0.1281971E+04  0.7818608E-02  0.9043986E-01
          2   -1    0    0  501    0  0.00000000000E+00  0.00000000000E+00  0.27586854656E+04  0.27586854656E+04  0.00000000000E+00 0. -1.
         -2   -1    0    0    0  501 -0.00000000000E+00 -0.00000000000E+00 -0.14893412313E+03  0.14893412313E+03  0.00000000000E+00 0.  1.
         23    2    1    2    0    0 -0.23866084937E+03  0.18757226866E+03  0.48210595517E+03  0.57698522158E+03  0.91342415760E+02 0.  0.
        254    2    1    2    0    0  0.23866084937E+03 -0.18757226866E+03  0.21276453873E+04  0.23306343672E+04  0.90157601025E+03 0.  0.
        -24    2    4    4    0    0 -0.31675194756E+03  0.43261318332E+02  0.95930208298E+03  0.10142692488E+04  0.79235628023E+02 0.  0.
         24    2    4    4    0    0  0.55541279693E+03 -0.23083358700E+03  0.11683433043E+04  0.13163651184E+04  0.77611391749E+02 0.  0.
         13    1    3    3    0    0 -0.86234315407E+02  0.11095196688E+03  0.27362404848E+03  0.30759846556E+03  0.00000000000E+00 0. -1.
        -13    1    3    3    0    0 -0.15242653396E+03  0.76620301783E+02  0.20848190669E+03  0.26938675602E+03  0.00000000000E+00 0.  1.
          2    1    6    6  502    0  0.18054824958E+03 -0.82924817260E+02  0.31121295689E+03  0.36922581204E+03  0.00000000000E+00 0. -1.
          3    1    5    5  503    0 -0.16662083097E+03  0.49287815696E+02  0.60417512555E+03  0.62866475361E+03  0.00000000000E+00 0. -1.
         -4    1    5    5    0  503 -0.15013111659E+03 -0.60264973644E+01  0.35512695742E+03  0.38560449521E+03  0.00000000000E+00 0.  1.
         -1    1    6    6    0  502  0.37486454735E+03 -0.14790876974E+03  0.85713034746E+03  0.94713930631E+03  0.00000000000E+00 0.  1.
<mgrwt>
<rscale>  0 0.12819710E+04</rscale>
<asrwt>0</asrwt>
<pdfrwt beam="1">  1        2 0.42441311E+00 0.12819710E+04</pdfrwt>
<pdfrwt beam="2">  1       -2 0.22912944E-01 0.12819710E+04</pdfrwt>
<totfact> 0.40687022E+01</totfact>
</mgrwt>
</event>
<event>
12    1  0.1980523E-007  0.1980292E+04  0.7818608E-02  0.8615890E-01
          2   -1    0    0  501    0  0.00000000000E+00  0.00000000000E+00  0.14722974675E+04  0.14722974675E+04  0.00000000000E+00 0. -1.
         -2   -1    0    0    0  501 -0.00000000000E+00 -0.00000000000E+00 -0.66589095987E+03  0.66589095987E+03  0.00000000000E+00 0.  1.
         23    2    1    2    0    0  0.12982075987E+03  0.70618155844E+03  0.65301468531E+03  0.97480212932E+03  0.90913084382E+02 0.  0.
        254    2    1    2    0    0 -0.12982075987E+03 -0.70618155844E+03  0.15339182235E+03  0.11633862981E+04  0.90243714698E+03 0.  0.
        -24    2    4    4    0    0 -0.11488886596E+01 -0.88287621286E+03  0.23458983509E+03  0.91681459807E+03  0.77748886283E+02 0.  0.
         24    2    4    4    0    0 -0.12867187121E+03  0.17669465442E+03 -0.81198012740E+02  0.24657170002E+03  0.80168788424E+02 0.  0.
         11    1    3    3    0    0  0.12566750005E+03  0.44290735117E+03  0.42095838676E+03  0.62383107142E+03  0.00000000000E+00 0. -1.
        -11    1    3    3    0    0  0.41532598191E+01  0.26327420727E+03  0.23205629855E+03  0.35097105789E+03  0.00000000000E+00 0.  1.
          2    1    6    6  502    0 -0.13554790756E+03  0.17985990840E+03 -0.77824972774E+02  0.23828459514E+03  0.00000000000E+00 0. -1.
          3    1    5    5  503    0  0.28700880266E+02 -0.61514961429E+03  0.18400119273E+03  0.64272017816E+03  0.00000000000E+00 0. -1.
         -4    1    5    5    0  503 -0.29849768926E+02 -0.26772659857E+03  0.50588642362E+02  0.27409441991E+03  0.00000000000E+00 0.  1.
         -1    1    6    6    0  502  0.68760363566E+01 -0.31652539758E+01 -0.33730399660E+01  0.82871048817E+01  0.00000000000E+00 0.  1.
<mgrwt>
<rscale>  0 0.19802925E+04</rscale>
<asrwt>0</asrwt>
<pdfrwt beam="1">  1        2 0.22650730E+00 0.19802925E+04</pdfrwt>
<pdfrwt beam="2">  1       -2 0.10244476E+00 0.19802925E+04</pdfrwt>
<totfact> 0.95509703E+00</totfact>
</mgrwt>
</event>
<event>
12    1  0.1980523E-007  0.1751069E+04  0.7818608E-02  0.8732762E-01
         -1   -1    0    0    0  501 -0.00000000000E+00  0.00000000000E+00  0.38277570691E+03  0.38277570691E+03  0.00000000000E+00 0.  1.
          1   -1    0    0  501    0  0.00000000000E+00 -0.00000000000E+00 -0.20026366346E+04  0.20026366346E+04  0.00000000000E+00 0. -1.
         23    2    1    2    0    0  0.47663814276E+03  0.39213974018E+03 -0.47102866213E+03  0.78148004420E+03  0.88800698053E+02 0.  0.
        254    2    1    2    0    0 -0.47663814276E+03 -0.39213974018E+03 -0.11488322656E+04  0.16039322973E+04  0.93371609443E+03 0.  0.
        -24    2    4    4    0    0  0.17339400187E+03  0.16253047285E+03 -0.36174471579E+03  0.43964734989E+03  0.77129231659E+02 0.  0.
         24    2    4    4    0    0 -0.65003214463E+03 -0.55467021303E+03 -0.78708754980E+03  0.11642849474E+04  0.76497016349E+02 0.  0.
         13    1    3    3    0    0  0.31208400775E+03  0.24746028750E+03 -0.24998547752E+03  0.47024010968E+03  0.00000000000E+00 0.  1.
        -13    1    3    3    0    0  0.16455413501E+03  0.14467945268E+03 -0.22104318461E+03  0.31123993452E+03  0.00000000000E+00 0. -1.
          4    1    6    6  502    0 -0.19871480310E+03 -0.21317847052E+03 -0.28742670083E+03  0.40932473858E+03  0.00000000000E+00 0. -1.
          1    1    5    5  503    0  0.16084686813E+02  0.52392930359E+02 -0.54251426822E+02  0.77116493786E+02  0.00000000000E+00 0. -1.
         -2    1    5    5    0  503  0.15730931506E+03  0.11013754249E+03 -0.30749328897E+03  0.36253085611E+03  0.00000000000E+00 0.  1.
         -3    1    6    6    0  502 -0.45131734153E+03 -0.34149174251E+03 -0.49966084897E+03  0.75496020886E+03  0.00000000000E+00 0.  1.
<mgrwt>
<rscale>  0 0.17510690E+04</rscale>
<asrwt>0</asrwt>
<pdfrwt beam="1">  1        1 0.30809795E+00 0.17510690E+04</pdfrwt>
<pdfrwt beam="2">  1       -1 0.58888569E-01 0.17510690E+04</pdfrwt>
<totfact> 0.82202007E+00</totfact>
</mgrwt>
</event>
<event>
12    1  0.1980523E-007  0.1829697E+04  0.7818608E-02  0.8690665E-01
          2   -1    0    0  501    0  0.00000000000E+00  0.00000000000E+00  0.15876561230E+04  0.15876561230E+04  0.00000000000E+00 0. -1.
         -2   -1    0    0    0  501 -0.00000000000E+00 -0.00000000000E+00 -0.52715912655E+03  0.52715912655E+03  0.00000000000E+00 0.  1.
         23    2    1    2    0    0  0.23346382112E+03  0.49728268031E+03 -0.78052878965E+02  0.56309104486E+03  0.95832421333E+02 0.  0.
        254    2    1    2    0    0 -0.23346382112E+03 -0.49728268031E+03  0.11385498754E+04  0.15517242047E+04  0.89986486136E+03 0.  0.
        -24    2    4    4    0    0 -0.10677789072E+03 -0.10628505022E+02  0.10202840498E+04  0.10289002259E+04  0.78368676049E+02 0.  0.
         24    2    4    4    0    0 -0.12668593040E+03 -0.48665417529E+03  0.11826582561E+03  0.52282397884E+03  0.80476680213E+02 0.  0.
         13    1    3    3    0    0  0.20306106671E+03  0.45008136564E+03 -0.98203681882E+02  0.50343916777E+03  0.00000000000E+00 0.  1.
        -13    1    3    3    0    0  0.30402754404E+02  0.47201314676E+02  0.20150802917E+02  0.59651877093E+02  0.00000000000E+00 0. -1.
          2    1    6    6  502    0 -0.10769492738E+03 -0.29710867028E+03  0.99935249455E+02  0.33144956392E+03  0.00000000000E+00 0. -1.
          3    1    5    5  503    0 -0.84412723268E+02 -0.28542341990E+02  0.92803559149E+03  0.93230372316E+03  0.00000000000E+00 0. -1.
         -4    1    5    5    0  503 -0.22365167450E+02  0.17913836968E+02  0.92248458326E+02  0.96596502698E+02  0.00000000000E+00 0.  1.
         -1    1    6    6    0  502 -0.18991003018E+02 -0.18954550501E+03  0.18330576154E+02  0.19137441492E+03  0.00000000000E+00 0.  1.
<mgrwt>
<rscale>  0 0.18296966E+04</rscale>
<asrwt>0</asrwt>
<pdfrwt beam="1">  1        2 0.24425479E+00 0.18296966E+04</pdfrwt>
<pdfrwt beam="2">  1       -2 0.81101405E-01 0.18296966E+04</pdfrwt>
<totfact> 0.14303305E+01</totfact>
</mgrwt>
</event>
<event>
12    1  0.1999129E-007  0.2916720E+04  0.7818608E-02  0.8267920E-01
          2   -1    0    0  501    0  0.00000000000E+00  0.00000000000E+00  0.18992321024E+04  0.18992321024E+04  0.00000000000E+00 0. -1.
         -2   -1    0    0    0  501 -0.00000000000E+00 -0.00000000000E+00 -0.11198284200E+04  0.11198284200E+04  0.00000000000E+00 0.  1.
         23    2    1    2    0    0  0.26449548012E+03  0.12011182422E+04  0.84278734435E+03  0.14937076356E+04  0.90714398542E+02 0.  0.
        254    2    1    2    0    0 -0.26449548012E+03 -0.12011182422E+04 -0.63383661958E+02  0.15253528868E+04  0.90002280515E+03 0.  0.
        -24    2    4    4    0    0 -0.12700165140E+03  0.59110588291E+02  0.17017147125E+03  0.23387007634E+03  0.78188246399E+02 0.  0.
         24    2    4    4    0    0 -0.13749382872E+03 -0.12602288305E+04 -0.23355513321E+03  0.12914828104E+04  0.79363664404E+02 0.  0.
         13    1    3    3    0    0  0.16808707923E+03  0.63774724299E+03  0.49536451473E+03  0.82483987210E+03  0.00000000000E+00 0.  1.
        -13    1    3    3    0    0  0.96408400884E+02  0.56337099920E+03  0.34742282962E+03  0.66886776350E+03  0.00000000000E+00 0. -1.
          2    1    6    6  502    0 -0.14727945689E+03 -0.11535881090E+04 -0.20835244397E+03  0.11814683680E+04  0.00000000000E+00 0. -1.
          3    1    5    5  503    0 -0.78510245517E+02  0.65517443969E+02  0.14866615745E+03  0.18043841189E+03  0.00000000000E+00 0. -1.
         -4    1    5    5    0  503 -0.48491405882E+02 -0.64068556787E+01  0.21505313797E+02  0.53431664448E+02  0.00000000000E+00 0.  1.
         -1    1    6    6    0  502  0.97856281740E+01 -0.10664072150E+03 -0.25202689237E+02  0.11001444244E+03  0.00000000000E+00 0.  1.
<mgrwt>
<rscale>  0 0.29167201E+04</rscale>
<asrwt>0</asrwt>
<pdfrwt beam="1">  1        2 0.29218955E+00 0.29167201E+04</pdfrwt>
<pdfrwt beam="2">  1       -2 0.17228130E+00 0.29167201E+04</pdfrwt>
<totfact> 0.13453523E+00</totfact>
</mgrwt>
</event>
<event>
12    1  0.1982213E-007  0.1577576E+04  0.7818608E-02  0.8834444E-01
          2   -1    0    0  501    0  0.00000000000E+00  0.00000000000E+00  0.15485187404E+04  0.15485187404E+04  0.00000000000E+00 0. -1.
         -2   -1    0    0    0  501 -0.00000000000E+00 -0.00000000000E+00 -0.40179455064E+03  0.40179455064E+03  0.00000000000E+00 0.  1.
         23    2    1    2    0    0 -0.48841545935E+03  0.18650735314E+03  0.31041539441E+03  0.61482357967E+03  0.91190258925E+02 0.  0.
        254    2    1    2    0    0  0.48841545935E+03 -0.18650735314E+03  0.83630879541E+03  0.13354897114E+04  0.90043640215E+03 0.  0.
        -24    2    4    4    0    0  0.73616361934E+03 -0.63160062198E+02  0.68262166544E+03  0.10090677332E+04  0.79493925568E+02 0.  0.
         24    2    4    4    0    0 -0.24774815999E+03 -0.12334729094E+03  0.15368712997E+03  0.32642197820E+03  0.79610734012E+02 0.  0.
         11    1    3    3    0    0 -0.27503657680E+03  0.11630856006E+03  0.22740172126E+03  0.37534563079E+03  0.00000000000E+00 0. -1.
        -11    1    3    3    0    0 -0.21337888256E+03  0.70198793084E+02  0.83013673141E+02  0.23947794888E+03  0.00000000000E+00 0.  1.
          2    1    6    6  502    0 -0.22013536720E+03 -0.13345896825E+03  0.12858295250E+03  0.28775762678E+03  0.00000000000E+00 0. -1.
          1    1    5    5  503    0  0.72917850467E+03 -0.53971570093E+02  0.66742696448E+03  0.98998635090E+03  0.00000000000E+00 0. -1.
         -2    1    5    5    0  503  0.69851146738E+01 -0.91884921052E+01  0.15194700955E+02  0.19081382321E+02  0.00000000000E+00 0.  1.
         -1    1    6    6    0  502 -0.27612792795E+02  0.10111677310E+02  0.25104177467E+02  0.38664351413E+02  0.00000000000E+00 0.  1.
<mgrwt>
<rscale>  0 0.15775759E+04</rscale>
<asrwt>0</asrwt>
<pdfrwt beam="1">  1        2 0.23823365E+00 0.15775759E+04</pdfrwt>
<pdfrwt beam="2">  1       -2 0.61814547E-01 0.15775759E+04</pdfrwt>
<totfact> 0.27830745E+01</totfact>
</mgrwt>
</event>
<event>
12    1  0.1980523E-007  0.1708272E+04  0.7818608E-02  0.8756661E-01
         -2   -1    0    0    0  501 -0.00000000000E+00  0.00000000000E+00  0.67644464861E+03  0.67644464861E+03  0.00000000000E+00 0.  1.
          2   -1    0    0  501    0  0.00000000000E+00 -0.00000000000E+00 -0.10785037043E+04  0.10785037043E+04  0.00000000000E+00 0. -1.
         23    2    1    2    0    0 -0.43134695394E+03 -0.18689713149E+02 -0.59145143643E+03  0.73788641901E+03  0.90840880969E+02 0.  0.
        254    2    1    2    0    0  0.43134695394E+03  0.18689713149E+02  0.18939238075E+03  0.10170619339E+04  0.90118588728E+03 0.  0.
        -24    2    4    4    0    0  0.66854480433E+03 -0.13372900477E+03  0.44082648343E+02  0.68785141664E+03  0.79753930210E+02 0.  0.
         24    2    4    4    0    0 -0.23719785039E+03  0.15241871792E+03  0.14530973241E+03  0.32921051725E+03  0.88149648515E+02 0.  0.
         11    1    3    3    0    0 -0.18290840723E+03 -0.46856959609E+02 -0.21717722105E+03  0.28777943888E+03  0.00000000000E+00 0. -1.
        -11    1    3    3    0    0 -0.24843854671E+03  0.28167246460E+02 -0.37427421538E+03  0.45010698013E+03  0.00000000000E+00 0.  1.
          2    1    6    6  502    0 -0.80326860403E+02  0.80040986978E+01  0.25628334709E+02  0.84695227954E+02  0.00000000000E+00 0. -1.
          3    1    5    5  503    0  0.10766529997E+03  0.77426578332E+01  0.39790767679E+01  0.10801665899E+03  0.00000000000E+00 0. -1.
         -4    1    5    5    0  503  0.56087950436E+03 -0.14147166260E+03  0.40103571575E+02  0.57983475765E+03  0.00000000000E+00 0.  1.
         -1    1    6    6    0  502 -0.15687098999E+03  0.14441461922E+03  0.11968139770E+03  0.24451528930E+03  0.00000000000E+00 0.  1.
<mgrwt>
<rscale>  0 0.17082717E+04</rscale>
<asrwt>0</asrwt>
<pdfrwt beam="1">  1        2 0.16592365E+00 0.17082717E+04</pdfrwt>
<pdfrwt beam="2">  1       -2 0.10406841E+00 0.17082717E+04</pdfrwt>
<totfact> 0.16046167E+01</totfact>
</mgrwt>
</event>
<event>
12    1  0.1980523E-007  0.1861440E+04  0.7818608E-02  0.8674292E-01
         -1   -1    0    0    0  501 -0.00000000000E+00  0.00000000000E+00  0.86849916577E+03  0.86849916577E+03  0.00000000000E+00 0.  1.
          1   -1    0    0  501    0  0.00000000000E+00 -0.00000000000E+00 -0.99739813837E+03  0.99739813837E+03  0.00000000000E+00 0. -1.
         23    2    1    2    0    0  0.68320372922E+03 -0.11333822006E+03 -0.20796481377E+03  0.72882157358E+03  0.91206549071E+02 0.  0.
        254    2    1    2    0    0 -0.68320372922E+03  0.11333822006E+03  0.79065841177E+02  0.11370757306E+04  0.89837460007E+03 0.  0.
        -24    2    4    4    0    0 -0.10687470697E+03 -0.18419841371E+03  0.35971302377E+03  0.42585391784E+03  0.81282478250E+02 0.  0.
         24    2    4    4    0    0 -0.57632902225E+03  0.29753663376E+03 -0.28064718259E+03  0.71122181272E+03  0.79940199402E+02 0.  0.
         13    1    3    3    0    0  0.33145255129E+03 -0.86884827996E+02 -0.13691655477E+03  0.36899310300E+03  0.00000000000E+00 0.  1.
        -13    1    3    3    0    0  0.35175117793E+03 -0.26453392061E+02 -0.71048259000E+02  0.35982847057E+03  0.00000000000E+00 0. -1.
          4    1    6    6  502    0 -0.17008709115E+03  0.11572982820E+03 -0.59016423773E+02  0.21402324636E+03  0.00000000000E+00 0. -1.
          3    1    5    5  503    0 -0.31739917319E+02 -0.13364403310E+03  0.21385134585E+03  0.25416637869E+03  0.00000000000E+00 0. -1.
         -4    1    5    5    0  503 -0.75134789652E+02 -0.50554380604E+02  0.14586167791E+03  0.17168753915E+03  0.00000000000E+00 0.  1.
         -3    1    6    6    0  502 -0.40624193110E+03  0.18180680556E+03 -0.22163075882E+03  0.49719856636E+03  0.00000000000E+00 0.  1.
<mgrwt>
<rscale>  0 0.18614397E+04</rscale>
<asrwt>0</asrwt>
<pdfrwt beam="1">  1        1 0.15344587E+00 0.18614397E+04</pdfrwt>
<pdfrwt beam="2">  1       -1 0.13361526E+00 0.18614397E+04</pdfrwt>
<totfact> 0.67502544E+00</totfact>
</mgrwt>
</event>
<event>
12    1  0.1980523E-007  0.2061627E+04  0.7818608E-02  0.8578338E-01
          1   -1    0    0  501    0  0.00000000000E+00  0.00000000000E+00  0.90494874787E+03  0.90494874787E+03  0.00000000000E+00 0. -1.
         -1   -1    0    0    0  501 -0.00000000000E+00 -0.00000000000E+00 -0.11741843642E+04  0.11741843642E+04  0.00000000000E+00 0.  1.
         23    2    1    2    0    0 -0.52645964000E+02 -0.20615204392E+03  0.70047926130E+03  0.74117233438E+03  0.11573664504E+03 0.  0.
        254    2    1    2    0    0  0.52645964000E+02  0.20615204392E+03 -0.96971487759E+03  0.13379607777E+04  0.89695141228E+03 0.  0.
        -24    2    4    4    0    0 -0.30167110836E+03  0.36519036664E+03 -0.73517796050E+03  0.87827890789E+03  0.80732551884E+02 0.  0.
         24    2    4    4    0    0  0.35431707236E+03 -0.15903832273E+03 -0.23453691708E+03  0.45968186976E+03  0.73932942889E+02 0.  0.
         13    1    3    3    0    0 -0.47004903027E+02 -0.20698352687E+03  0.70342769384E+03  0.73475312981E+03  0.00000000000E+00 0. -1.
        -13    1    3    3    0    0 -0.56410609723E+01  0.83148295575E+00 -0.29484325453E+01  0.64192045670E+01  0.00000000000E+00 0.  1.
          2    1    6    6  502    0 -0.27610277018E+01 -0.52432003462E+01 -0.71230293699E+01  0.92656338826E+01  0.00000000000E+00 0. -1.
          3    1    5    5  503    0 -0.48306930552E+02  0.51186063413E+02 -0.63822326742E+02  0.95009799588E+02  0.00000000000E+00 0. -1.
         -4    1    5    5    0  503 -0.25336417781E+03  0.31400430323E+03 -0.67135563376E+03  0.78326910831E+03  0.00000000000E+00 0.  1.
         -1    1    6    6    0  502  0.35707810007E+03 -0.15379512238E+03 -0.22741388771E+03  0.45041623588E+03  0.00000000000E+00 0.  1.
<mgrwt>
<rscale>  0 0.20616272E+04</rscale>
<asrwt>0</asrwt>
<pdfrwt beam="1">  1        1 0.13922288E+00 0.20616272E+04</pdfrwt>
<pdfrwt beam="2">  1       -1 0.18064375E+00 0.20616272E+04</pdfrwt>
<totfact> 0.34250503E+00</totfact>
</mgrwt>
</event>
<event>
12    1  0.1980523E-007  0.1146163E+04  0.7818608E-02  0.9161331E-01
          1   -1    0    0  501    0  0.00000000000E+00  0.00000000000E+00  0.76412845268E+03  0.76412845268E+03  0.00000000000E+00 0. -1.
         -1   -1    0    0    0  501 -0.00000000000E+00 -0.00000000000E+00 -0.42979981516E+03  0.42979981516E+03  0.00000000000E+00 0.  1.
         23    2    1    2    0    0  0.31601219898E+02  0.77058784902E+02 -0.12819453934E+03  0.17721502041E+03  0.89636098265E+02 0.  0.
        254    2    1    2    0    0 -0.31601219898E+02 -0.77058784902E+02  0.46252317686E+03  0.10167132474E+04  0.90157719854E+03 0.  0.
        -24    2    4    4    0    0 -0.12628596406E+03 -0.46637947259E+03  0.18594734137E+03  0.52382307711E+03  0.79726063323E+02 0.  0.
         24    2    4    4    0    0  0.94684744162E+02  0.38932068769E+03  0.27657583549E+03  0.49289017032E+03  0.76881262857E+02 0.  0.
         11    1    3    3    0    0  0.38821334496E+02  0.13333898657E+02 -0.92412473895E+01  0.42074808600E+02  0.00000000000E+00 0. -1.
        -11    1    3    3    0    0 -0.72201145983E+01  0.63724886244E+02 -0.11895329195E+03  0.13514021181E+03  0.00000000000E+00 0.  1.
          2    1    6    6  502    0  0.26053594084E+02  0.17626474847E+03  0.16475090120E+03  0.24267449550E+03  0.00000000000E+00 0. -1.
          1    1    5    5  503    0 -0.12108448820E+03 -0.41653743319E+03  0.13993984844E+03  0.45579386538E+03  0.00000000000E+00 0. -1.
         -2    1    5    5    0  503 -0.52014758579E+01 -0.49842039400E+02  0.46007492935E+02  0.68029211732E+02  0.00000000000E+00 0.  1.
         -1    1    6    6    0  502  0.68631150078E+02  0.21305593922E+03  0.11182493429E+03  0.25021567482E+03  0.00000000000E+00 0.  1.
<mgrwt>
<rscale>  0 0.11461628E+04</rscale>
<asrwt>0</asrwt>
<pdfrwt beam="1">  1        1 0.11755822E+00 0.11461628E+04</pdfrwt>
<pdfrwt beam="2">  1       -1 0.66123049E-01 0.11461628E+04</pdfrwt>
<totfact> 0.54784118E+01</totfact>
</mgrwt>
</event>
<event>
12    1  0.1980523E-007  0.3216131E+04  0.7818608E-02  0.8184570E-01
          2   -1    0    0  501    0  0.00000000000E+00  0.00000000000E+00  0.15615801310E+04  0.15615801310E+04  0.00000000000E+00 0. -1.
         -2   -1    0    0    0  501 -0.00000000000E+00 -0.00000000000E+00 -0.16559344348E+04  0.16559344348E+04  0.00000000000E+00 0.  1.
         23    2    1    2    0    0  0.10875328084E+04  0.38957343592E+03 -0.96986172564E+03  0.15110508503E+04  0.90265353059E+02 0.  0.
        254    2    1    2    0    0 -0.10875328084E+04 -0.38957343592E+03  0.87550742185E+03  0.17064637155E+04  0.90056098920E+03 0.  0.
        -24    2    4    4    0    0 -0.15477821893E+03 -0.49318817153E+03  0.31625236034E+03  0.61106780813E+03  0.78723828128E+02 0.  0.
         24    2    4    4    0    0 -0.93275458951E+03  0.10361473561E+03  0.55925506151E+03  0.10953959074E+04  0.79742287604E+02 0.  0.
         13    1    3    3    0    0  0.58360464998E+03  0.23986947366E+03 -0.48414260606E+03  0.79531491554E+03  0.00000000000E+00 0. -1.
        -13    1    3    3    0    0  0.50392815845E+03  0.14970396226E+03 -0.48571911958E+03  0.71573593477E+03  0.00000000000E+00 0.  1.
          2    1    6    6  502    0 -0.20605520227E+03  0.80652819547E+01  0.15809206582E+03  0.25984013630E+03  0.00000000000E+00 0. -1.
          3    1    5    5  503    0 -0.27644934661E+02 -0.16404831047E+03  0.68391654988E+02  0.17987081212E+03  0.00000000000E+00 0. -1.
         -4    1    5    5    0  503 -0.12713328427E+03 -0.32913986106E+03  0.24786070536E+03  0.43119699601E+03  0.00000000000E+00 0.  1.
         -1    1    6    6    0  502 -0.72669938723E+03  0.95549453657E+02  0.40116299569E+03  0.83555577109E+03  0.00000000000E+00 0.  1.
<mgrwt>
<rscale>  0 0.32161308E+04</rscale>
<asrwt>0</asrwt>
<pdfrwt beam="1">  1        2 0.24024310E+00 0.32161308E+04</pdfrwt>
<pdfrwt beam="2">  1       -2 0.25475914E+00 0.32161308E+04</pdfrwt>
<totfact> 0.59206961E-01</totfact>
</mgrwt>
</event>
<event>
12    1  0.1980523E-007  0.3022343E+04  0.7818608E-02  0.8237379E-01
          1   -1    0    0  501    0  0.00000000000E+00  0.00000000000E+00  0.13703901751E+04  0.13703901751E+04  0.00000000000E+00 0. -1.
         -1   -1    0    0    0  501 -0.00000000000E+00 -0.00000000000E+00 -0.16664157945E+04  0.16664157945E+04  0.00000000000E+00 0.  1.
         23    2    1    2    0    0 -0.12491195404E+04 -0.56998601462E+03 -0.51454557044E+02  0.13770896478E+04  0.92437240861E+02 0.  0.
        254    2    1    2    0    0  0.12491195404E+04  0.56998601462E+03 -0.24457106232E+03  0.16597163219E+04  0.89981085879E+03 0.  0.
        -24    2    4    4    0    0  0.91035815025E+03 -0.60280440517E+02 -0.20233293996E+03  0.93863586388E+03  0.87823534026E+02 0.  0.
         24    2    4    4    0    0  0.33876139013E+03  0.63026645513E+03 -0.42238122360E+02  0.72108045801E+03  0.78599516743E+02 0.  0.
         13    1    3    3    0    0 -0.72321535817E+03 -0.35170231547E+03  0.10962329354E+02  0.80427305417E+03  0.00000000000E+00 0. -1.
        -13    1    3    3    0    0 -0.52590418222E+03 -0.21828369915E+03 -0.62416886398E+02  0.57281659359E+03  0.00000000000E+00 0.  1.
          4    1    6    6  502    0  0.30503941047E+03  0.57658010430E+03 -0.60515189281E+02  0.65509979908E+03  0.00000000000E+00 0. -1.
          1    1    5    5  503    0  0.75653333082E+03 -0.17914248621E+02 -0.17572181795E+03  0.77687950047E+03  0.00000000000E+00 0. -1.
         -2    1    5    5    0  503  0.15382481943E+03 -0.42366191896E+02 -0.26611122005E+02  0.16175636340E+03  0.00000000000E+00 0.  1.
         -3    1    6    6    0  502  0.33721979662E+02  0.53686350830E+02  0.18277066922E+02  0.65980658932E+02  0.00000000000E+00 0.  1.
<mgrwt>
<rscale>  0 0.30223434E+04</rscale>
<asrwt>0</asrwt>
<pdfrwt beam="1">  1        1 0.21082926E+00 0.30223434E+04</pdfrwt>
<pdfrwt beam="2">  1       -1 0.25637166E+00 0.30223434E+04</pdfrwt>
<totfact> 0.43379693E-01</totfact>
</mgrwt>
</event>
<event>
12    1  0.1980523E-007  0.5375509E+04  0.7818608E-02  0.7773055E-01
         -2   -1    0    0    0  501 -0.00000000000E+00  0.00000000000E+00  0.29064763665E+04  0.29064763665E+04  0.00000000000E+00 0.  1.
          2   -1    0    0  501    0  0.00000000000E+00 -0.00000000000E+00 -0.24854924598E+04  0.24854924598E+04  0.00000000000E+00 0. -1.
         23    2    1    2    0    0  0.29650494621E+03 -0.25879652416E+04  0.38684031901E+03  0.26351761430E+04  0.95018931198E+02 0.  0.
        254    2    1    2    0    0 -0.29650494621E+03  0.25879652416E+04  0.34143587633E+02  0.27567926833E+04  0.90180975768E+03 0.  0.
        -24    2    4    4    0    0 -0.49479071145E+03  0.15398495420E+04  0.31721747460E+03  0.16501852173E+04  0.80807580262E+02 0.  0.
         24    2    4    4    0    0  0.19828576524E+03  0.10481156996E+04 -0.28307388697E+03  0.11066074660E+04  0.81151055580E+02 0.  0.
         13    1    3    3    0    0  0.28291101904E+03 -0.23987114365E+04  0.33482761318E+03  0.24384348937E+04  0.00000000000E+00 0.  1.
        -13    1    3    3    0    0  0.13593927171E+02 -0.18925380512E+03  0.52012705825E+02  0.19674124930E+03  0.00000000000E+00 0. -1.
          2    1    6    6  502    0  0.46158325776E+01  0.12229309966E+03 -0.51731302891E+02  0.13286472757E+03  0.00000000000E+00 0. -1.
          1    1    5    5  503    0 -0.56754279727E+02  0.12868837458E+03  0.45516942184E+02  0.14782942213E+03  0.00000000000E+00 0. -1.
         -2    1    5    5    0  503 -0.43803643172E+03  0.14111611674E+04  0.27170053242E+03  0.15023557952E+04  0.00000000000E+00 0.  1.
         -1    1    6    6    0  502  0.19366993266E+03  0.92582259997E+03 -0.23134258408E+03  0.97374273843E+03  0.00000000000E+00 0.  1.
<mgrwt>
<rscale>  0 0.53755093E+04</rscale>
<asrwt>0</asrwt>
<pdfrwt beam="1">  1        2 0.38238346E+00 0.53755093E+04</pdfrwt>
<pdfrwt beam="2">  1       -2 0.44715021E+00 0.53755093E+04</pdfrwt>
<totfact> 0.91234462E-03</totfact>
</mgrwt>
</event>
<event>
12    1  0.1980523E-007  0.2393893E+04  0.7818608E-02  0.8441793E-01
          1   -1    0    0  501    0  0.00000000000E+00  0.00000000000E+00  0.12424780768E+04  0.12424780768E+04  0.00000000000E+00 0. -1.
         -1   -1    0    0    0  501 -0.00000000000E+00 -0.00000000000E+00 -0.11530834505E+04  0.11530834505E+04  0.00000000000E+00 0.  1.
         23    2    1    2    0    0  0.11269800691E+03 -0.96542929333E+03  0.36594471227E+03  0.10425972014E+04  0.91317198761E+02 0.  0.
        254    2    1    2    0    0 -0.11269800691E+03  0.96542929333E+03 -0.27655008596E+03  0.13529643258E+04  0.89959877490E+03 0.  0.
        -24    2    4    4    0    0 -0.26927345549E+03  0.88580763030E+03 -0.50209791093E+03  0.10561921296E+04  0.79222160341E+02 0.  0.
         24    2    4    4    0    0  0.15657544858E+03  0.79621663029E+02  0.22554782497E+03  0.29677219627E+03  0.79664514138E+02 0.  0.
         13    1    3    3    0    0  0.11694203416E+03 -0.71710947683E+03  0.24879296861E+03  0.76799699370E+03  0.00000000000E+00 0. -1.
        -13    1    3    3    0    0 -0.42440272445E+01 -0.24831981650E+03  0.11715174366E+03  0.27460020772E+03  0.00000000000E+00 0.  1.
          2    1    6    6  502    0  0.22291715004E+02  0.45826771073E+02  0.87406480430E+02  0.10117759795E+03  0.00000000000E+00 0. -1.
          3    1    5    5  503    0 -0.20564867353E+02  0.71439899249E+02 -0.17195164161E+02  0.76303647649E+02  0.00000000000E+00 0. -1.
         -4    1    5    5    0  503 -0.24870858813E+03  0.81436773105E+03 -0.48490274677E+03  0.97988848192E+03  0.00000000000E+00 0.  1.
         -1    1    6    6    0  502  0.13428373357E+03  0.33794891955E+02  0.13814134454E+03  0.19559459833E+03  0.00000000000E+00 0.  1.
<mgrwt>
<rscale>  0 0.23938930E+04</rscale>
<asrwt>0</asrwt>
<pdfrwt beam="1">  1        1 0.19115047E+00 0.23938930E+04</pdfrwt>
<pdfrwt beam="2">  1       -1 0.17739745E+00 0.23938930E+04</pdfrwt>
<totfact> 0.19388637E+00</totfact>
</mgrwt>
</event>
<event>
12    1  0.1980523E-007  0.1697200E+04  0.7818608E-02  0.8762963E-01
          1   -1    0    0  501    0  0.00000000000E+00  0.00000000000E+00  0.27378594402E+04  0.27378594402E+04  0.00000000000E+00 0. -1.
         -1   -1    0    0    0  501 -0.00000000000E+00 -0.00000000000E+00 -0.26302376346E+03  0.26302376346E+03  0.00000000000E+00 0.  1.
         23    2    1    2    0    0  0.45155449755E+03 -0.16358453110E+03  0.15589818826E+04  0.16337205438E+04  0.89201692782E+02 0.  0.
        254    2    1    2    0    0 -0.45155449755E+03  0.16358453110E+03  0.91585379410E+03  0.13671626598E+04  0.89425063774E+03 0.  0.
        -24    2    4    4    0    0  0.31895810174E+02  0.18283017698E+03  0.84840462025E+03  0.87199550225E+03  0.78367977872E+02 0.  0.
         24    2    4    4    0    0 -0.48345030773E+03 -0.19245645884E+02  0.67449173847E+02  0.49516715754E+03  0.80910616923E+02 0.  0.
         11    1    3    3    0    0  0.48554305069E+02 -0.33556285588E+02  0.29013625263E+03  0.29607868875E+03  0.00000000000E+00 0. -1.
        -11    1    3    3    0    0  0.40300019248E+03 -0.13002824551E+03  0.12688456300E+04  0.13376418551E+04  0.00000000000E+00 0.  1.
          4    1    6    6  502    0 -0.22039222410E+03 -0.15868331054E+02 -0.91832336971E+01  0.22115349456E+03  0.00000000000E+00 0. -1.
          3    1    5    5  503    0 -0.45124236529E+01  0.11171689934E+03  0.35578558697E+03  0.37294022505E+03  0.00000000000E+00 0. -1.
         -4    1    5    5    0  503  0.36408233827E+02  0.71113277640E+02  0.49261903328E+03  0.49905527720E+03  0.00000000000E+00 0.  1.
         -3    1    6    6    0  502 -0.26305808363E+03 -0.33773148297E+01  0.76632407544E+02  0.27401366299E+03  0.00000000000E+00 0.  1.
<mgrwt>
<rscale>  0 0.16972002E+04</rscale>
<asrwt>0</asrwt>
<pdfrwt beam="1">  1        1 0.42120913E+00 0.16972002E+04</pdfrwt>
<pdfrwt beam="2">  1       -1 0.40465196E-01 0.16972002E+04</pdfrwt>
<totfact> 0.52503499E+00</totfact>
</mgrwt>
</event>
<event>
12    1  0.1980523E-007  0.1904624E+04  0.7818608E-02  0.8652558E-01
         -1   -1    0    0    0  501 -0.00000000000E+00  0.00000000000E+00  0.19571709591E+04  0.19571709591E+04  0.00000000000E+00 0.  1.
          1   -1    0    0  501    0  0.00000000000E+00 -0.00000000000E+00 -0.46337207586E+03  0.46337207586E+03  0.00000000000E+00 0. -1.
         23    2    1    2    0    0 -0.20718798115E+03  0.67513252932E+02 -0.30157083769E+03  0.39274011219E+03  0.12575741222E+03 0.  0.
        254    2    1    2    0    0  0.20718798115E+03 -0.67513252932E+02  0.17953697209E+04  0.20278029227E+04  0.91714086152E+03 0.  0.
        -24    2    4    4    0    0 -0.15755635232E+03 -0.58072403077E+01  0.15849000409E+04  0.15947365197E+04  0.80116786582E+02 0.  0.
         24    2    4    4    0    0  0.36474433347E+03 -0.61706012625E+02  0.21046968002E+03  0.43306640303E+03  0.80018513081E+02 0.  0.
         13    1    3    3    0    0 -0.85664966366E+02 -0.30293608427E+02 -0.14912113791E+03  0.17462331731E+03  0.00000000000E+00 0.  1.
        -13    1    3    3    0    0 -0.12152301478E+03  0.97806861359E+02 -0.15244969977E+03  0.21811679488E+03  0.00000000000E+00 0. -1.
          2    1    6    6  502    0  0.35396238962E+03 -0.45830875685E+02  0.20948145833E+03  0.41385060567E+03  0.00000000000E+00 0. -1.
          1    1    5    5  503    0 -0.13794477020E+03 -0.32497642246E+02  0.13681449484E+04  0.13754655416E+04  0.00000000000E+00 0. -1.
         -2    1    5    5    0  503 -0.19611582122E+02  0.26690401938E+02  0.21675509251E+03  0.21927097811E+03  0.00000000000E+00 0.  1.
         -1    1    6    6    0  502  0.10781943850E+02 -0.15875136940E+02  0.98822168709E+00  0.19215797359E+02  0.00000000000E+00 0.  1.
<mgrwt>
<rscale>  0 0.19046242E+04</rscale>
<asrwt>0</asrwt>
<pdfrwt beam="1">  1        1 0.71288013E-01 0.19046242E+04</pdfrwt>
<pdfrwt beam="2">  1       -1 0.30110322E+00 0.19046242E+04</pdfrwt>
<totfact> 0.14962654E+00</totfact>
</mgrwt>
</event>
<event>
12    1  0.1980523E-007  0.1608451E+04  0.7818608E-02  0.8815373E-01
         -1   -1    0    0    0  501 -0.00000000000E+00  0.00000000000E+00  0.20448302264E+03  0.20448302264E+03  0.00000000000E+00 0.  1.
          1   -1    0    0  501    0  0.00000000000E+00 -0.00000000000E+00 -0.31629940785E+04  0.31629940785E+04  0.00000000000E+00 0. -1.
         23    2    1    2    0    0 -0.44192034167E+02  0.48780868156E+03 -0.15280626613E+04  0.16073010919E+04  0.92363724919E+02 0.  0.
        254    2    1    2    0    0  0.44192034167E+02 -0.48780868156E+03 -0.14304483946E+04  0.17601760092E+04  0.90118074110E+03 0.  0.
        -24    2    4    4    0    0  0.14762826931E+03 -0.11843586038E+02 -0.12064978469E+04  0.12181856592E+04  0.80030427808E+02 0.  0.
         24    2    4    4    0    0 -0.10343623515E+03 -0.47596509552E+03 -0.22395054772E+03  0.54199035000E+03  0.79736219967E+02 0.  0.
         13    1    3    3    0    0 -0.69726860447E+02  0.27038548167E+03 -0.88363895340E+03  0.92670812219E+03  0.00000000000E+00 0. -1.
        -13    1    3    3    0    0  0.25534826280E+02  0.21742319988E+03 -0.64442370787E+03  0.68059296975E+03  0.00000000000E+00 0.  1.
          4    1    6    6  502    0 -0.79833385228E+02 -0.43987096178E+03 -0.18480958686E+03  0.48375036518E+03  0.00000000000E+00 0. -1.
          3    1    5    5  503    0  0.73953206782E+02 -0.41967011192E+02 -0.74950208325E+03  0.75431006862E+03  0.00000000000E+00 0. -1.
         -2    1    5    5    0  503  0.73675062533E+02  0.30123425154E+02 -0.45699576364E+03  0.46387559061E+03  0.00000000000E+00 0.  1.
         -3    1    6    6    0  502 -0.23602849920E+02 -0.36094133733E+02 -0.39140960863E+02  0.58239984817E+02  0.00000000000E+00 0.  1.
<mgrwt>
<rscale>  0 0.16084509E+04</rscale>
<asrwt>0</asrwt>
<pdfrwt beam="1">  1        1 0.48661440E+00 0.16084509E+04</pdfrwt>
<pdfrwt beam="2">  1       -1 0.31458932E-01 0.16084509E+04</pdfrwt>
<totfact> 0.41023044E+00</totfact>
</mgrwt>
</event>
<event>
12    1  0.1980523E-007  0.2169307E+04  0.7818608E-02  0.8531313E-01
          1   -1    0    0  501    0  0.00000000000E+00  0.00000000000E+00  0.23884870786E+04  0.23884870786E+04  0.00000000000E+00 0. -1.
         -1   -1    0    0    0  501 -0.00000000000E+00 -0.00000000000E+00 -0.49255978598E+03  0.49255978598E+03  0.00000000000E+00 0.  1.
         23    2    1    2    0    0  0.12258308964E+03  0.62550797158E+03  0.16049176176E+04  0.17293187783E+04  0.92173974581E+02 0.  0.
        254    2    1    2    0    0 -0.12258308964E+03 -0.62550797158E+03  0.29100967508E+03  0.11517280863E+04  0.91405914323E+03 0.  0.
        -24    2    4    4    0    0 -0.12127257137E+03 -0.30646402866E+03  0.60627928478E+03  0.69554624826E+03  0.87079130013E+02 0.  0.
         24    2    4    4    0    0 -0.13105182696E+01 -0.31904394292E+03 -0.31526960970E+03  0.45618183800E+03  0.83163619128E+02 0.  0.
         13    1    3    3    0    0  0.89117661898E+02  0.55831064368E+03  0.14690732962E+04  0.15741121568E+04  0.00000000000E+00 0.  1.
        -13    1    3    3    0    0  0.33465427743E+02  0.67197327906E+02  0.13584432136E+03  0.15520662156E+03  0.00000000000E+00 0. -1.
          2    1    6    6  502    0 -0.25850799010E+01 -0.32393043959E+03 -0.31358507120E+03  0.45085830281E+03  0.00000000000E+00 0. -1.
          3    1    5    5  503    0 -0.25290530308E+02 -0.18059921509E+03  0.33777174460E+03  0.38385601319E+03  0.00000000000E+00 0. -1.
         -4    1    5    5    0  503 -0.95982041063E+02 -0.12586481357E+03  0.26850754018E+03  0.31169023507E+03  0.00000000000E+00 0.  1.
         -1    1    6    6    0  502  0.12745616314E+01  0.48864966644E+01 -0.16845384999E+01  0.53235351939E+01  0.00000000000E+00 0.  1.
<mgrwt>
<rscale>  0 0.21693065E+04</rscale>
<asrwt>0</asrwt>
<pdfrwt beam="1">  1        1 0.36745954E+00 0.21693065E+04</pdfrwt>
<pdfrwt beam="2">  1       -1 0.75778430E-01 0.21693065E+04</pdfrwt>
<totfact> 0.25877886E+00</totfact>
</mgrwt>
</event>
<event>
12    1  0.1980523E-007  0.2720955E+04  0.7818608E-02  0.8328238E-01
         -1   -1    0    0    0  501 -0.00000000000E+00  0.00000000000E+00  0.65076884312E+03  0.65076884312E+03  0.00000000000E+00 0.  1.
          1   -1    0    0  501    0  0.00000000000E+00 -0.00000000000E+00 -0.28441722474E+04  0.28441722474E+04  0.00000000000E+00 0. -1.
         23    2    1    2    0    0 -0.67777482218E+03 -0.98776072145E+03 -0.76937703319E+03  0.14268592861E+04  0.94532802912E+02 0.  0.
        254    2    1    2    0    0  0.67777482218E+03  0.98776072145E+03 -0.14240263711E+04  0.20680818044E+04  0.90225345201E+03 0.  0.
        -24    2    4    4    0    0  0.23425897867E+03  0.10187473478E+04 -0.10038857797E+04  0.14514427677E+04  0.78587668311E+02 0.  0.
         24    2    4    4    0    0  0.44351584351E+03 -0.30986626341E+02 -0.42014059139E+03  0.61663903665E+03  0.77840288632E+02 0.  0.
         11    1    3    3    0    0 -0.44893081238E+03 -0.67703050450E+03 -0.47063053184E+03  0.93883026998E+03  0.00000000000E+00 0.  1.
        -11    1    3    3    0    0 -0.22884400980E+03 -0.31073021694E+03 -0.29874650135E+03  0.48802901616E+03  0.00000000000E+00 0. -1.
          4    1    6    6  502    0  0.53566053957E+02 -0.29161025287E+02 -0.66171691747E+02  0.89991001334E+02  0.00000000000E+00 0. -1.
          3    1    5    5  503    0  0.18246607981E+03  0.63086835292E+03 -0.61407898099E+03  0.89910051935E+03  0.00000000000E+00 0. -1.
         -4    1    5    5    0  503  0.51792898862E+02  0.38787899487E+03 -0.38980679872E+03  0.55234224840E+03  0.00000000000E+00 0.  1.
         -3    1    6    6    0  502  0.38994978955E+03 -0.18256010538E+01 -0.35396889964E+03  0.52664803531E+03  0.00000000000E+00 0.  1.
<mgrwt>
<rscale>  0 0.27209547E+04</rscale>
<asrwt>0</asrwt>
<pdfrwt beam="1">  1        1 0.43756496E+00 0.27209547E+04</pdfrwt>
<pdfrwt beam="2">  1       -1 0.10011828E+00 0.27209547E+04</pdfrwt>
<totfact> 0.64168098E-01</totfact>
</mgrwt>
</event>
<event>
12    1  0.1980523E-007  0.1958539E+04  0.7818608E-02  0.8626254E-01
         -1   -1    0    0    0  501 -0.00000000000E+00  0.00000000000E+00  0.90777586712E+03  0.90777586712E+03  0.00000000000E+00 0.  1.
          1   -1    0    0  501    0  0.00000000000E+00 -0.00000000000E+00 -0.10563937444E+04  0.10563937444E+04  0.00000000000E+00 0. -1.
         23    2    1    2    0    0  0.17753604802E+01 -0.42343930674E+03 -0.70095601976E+03  0.82421365461E+03  0.93192319389E+02 0.  0.
        254    2    1    2    0    0 -0.17753604802E+01  0.42343930674E+03  0.55233814250E+03  0.11399559569E+04  0.90283894555E+03 0.  0.
        -24    2    4    4    0    0  0.53441988967E+02  0.64516357050E+03  0.60849782698E+03  0.89209365588E+03  0.80432621027E+02 0.  0.
         24    2    4    4    0    0 -0.55217349447E+02 -0.22172426376E+03 -0.56159684485E+02  0.24786230102E+03  0.77917939426E+02 0.  0.
         13    1    3    3    0    0  0.41889303146E+02 -0.18853712667E+03 -0.35481412232E+03  0.40397280014E+03  0.00000000000E+00 0. -1.
        -13    1    3    3    0    0 -0.40113942666E+02 -0.23490218007E+03 -0.34614189744E+03  0.42024085447E+03  0.00000000000E+00 0.  1.
          4    1    6    6  502    0 -0.49832886462E+02 -0.22786426109E+03 -0.54271622177E+02  0.23948036877E+03  0.00000000000E+00 0. -1.
          3    1    5    5  503    0  0.23602926326E+02  0.53669233746E+03  0.47110455218E+03  0.71451750315E+03  0.00000000000E+00 0. -1.
         -4    1    5    5    0  503  0.29839062641E+02  0.10847123304E+03  0.13739327480E+03  0.17757615273E+03  0.00000000000E+00 0.  1.
         -3    1    6    6    0  502 -0.53844629854E+01  0.61399973293E+01 -0.18880623074E+01  0.83819322427E+01  0.00000000000E+00 0.  1.
<mgrwt>
<rscale>  0 0.19585390E+04</rscale>
<asrwt>0</asrwt>
<pdfrwt beam="1">  1        1 0.16252211E+00 0.19585390E+04</pdfrwt>
<pdfrwt beam="2">  1       -1 0.13965783E+00 0.19585390E+04</pdfrwt>
<totfact> 0.53745983E+00</totfact>
</mgrwt>
</event>
<event>
12    1  0.1980523E-007  0.1672942E+04  0.7818608E-02  0.8776948E-01
         -1   -1    0    0    0  501 -0.00000000000E+00  0.00000000000E+00  0.15672366803E+04  0.15672366803E+04  0.00000000000E+00 0.  1.
          1   -1    0    0  501    0  0.00000000000E+00 -0.00000000000E+00 -0.44644446581E+03  0.44644446581E+03  0.00000000000E+00 0. -1.
         23    2    1    2    0    0  0.22335556296E+03  0.25693752441E+03  0.98077416032E+03  0.10421197759E+04  0.90504556382E+02 0.  0.
        254    2    1    2    0    0 -0.22335556296E+03 -0.25693752441E+03  0.14001805417E+03  0.97156137025E+03  0.89912281792E+03 0.  0.
        -24    2    4    4    0    0  0.98777039782E+02 -0.41149432886E+03  0.34506804498E+03  0.55181985349E+03  0.79678784916E+02 0.  0.
         24    2    4    4    0    0 -0.32213260274E+03  0.15455680445E+03 -0.20504999081E+03  0.41974151676E+03  0.80499829840E+02 0.  0.
         11    1    3    3    0    0  0.12776127697E+03  0.79431860377E+02  0.43749001070E+03  0.46263362804E+03  0.00000000000E+00 0. -1.
        -11    1    3    3    0    0  0.95594285992E+02  0.17750566403E+03  0.54328414962E+03  0.57948614781E+03  0.00000000000E+00 0.  1.
          2    1    6    6  502    0 -0.64376308906E+02  0.17969674290E+02 -0.71074983159E+01  0.67214097292E+02  0.00000000000E+00 0. -1.
          3    1    5    5  503    0  0.38029441281E+02 -0.21670272879E+03  0.13088825131E+03  0.25600399489E+03  0.00000000000E+00 0. -1.
         -4    1    5    5    0  503  0.60747598501E+02 -0.19479160007E+03  0.21417979367E+03  0.29581585860E+03  0.00000000000E+00 0.  1.
         -1    1    6    6    0  502 -0.25775629384E+03  0.13658713016E+03 -0.19794249250E+03  0.35252741946E+03  0.00000000000E+00 0.  1.
<mgrwt>
<rscale>  0 0.16729425E+04</rscale>
<asrwt>0</asrwt>
<pdfrwt beam="1">  1        1 0.68683765E-01 0.16729425E+04</pdfrwt>
<pdfrwt beam="2">  1       -1 0.24111333E+00 0.16729425E+04</pdfrwt>
<totfact> 0.39358031E+00</totfact>
</mgrwt>
</event>
<event>
12    1  0.1980523E-007  0.2430830E+04  0.7818608E-02  0.8428051E-01
         -2   -1    0    0    0  501 -0.00000000000E+00  0.00000000000E+00  0.43052988542E+03  0.43052988542E+03  0.00000000000E+00 0.  1.
          2   -1    0    0  501    0  0.00000000000E+00 -0.00000000000E+00 -0.34311990470E+04  0.34311990470E+04  0.00000000000E+00 0. -1.
         23    2    1    2    0    0  0.70784639264E+03 -0.43340066944E+03 -0.23223036789E+04  0.24677942590E+04  0.89618481300E+02 0.  0.
        254    2    1    2    0    0 -0.70784639264E+03  0.43340066944E+03 -0.67836548269E+03  0.13939346734E+04  0.89106200102E+03 0.  0.
        -24    2    4    4    0    0 -0.37533270085E+03  0.33818544238E+03 -0.85580776679E+03  0.99709488656E+03  0.80915074893E+02 0.  0.
         24    2    4    4    0    0 -0.33251369179E+03  0.95215227061E+02  0.17744228410E+03  0.39683978680E+03  0.79779430377E+02 0.  0.
         13    1    3    3    0    0  0.28911330772E+03 -0.22913907367E+03 -0.10198987289E+04  0.10845665664E+04  0.00000000000E+00 0. -1.
        -13    1    3    3    0    0  0.41873308493E+03 -0.20426159577E+03 -0.13024049500E+04  0.13832276926E+04  0.00000000000E+00 0.  1.
          4    1    6    6  502    0 -0.16164164773E+03  0.39732930067E+02  0.41498771057E+02  0.17154846549E+03  0.00000000000E+00 0. -1.
          1    1    5    5  503    0 -0.14660698367E+03  0.13860517793E+03 -0.26713107218E+03  0.33475963427E+03  0.00000000000E+00 0. -1.
         -2    1    5    5    0  503 -0.22872571718E+03  0.19958026445E+03 -0.58867669461E+03  0.66233525229E+03  0.00000000000E+00 0.  1.
         -3    1    6    6    0  502 -0.17087204406E+03  0.55482296994E+02  0.13594351304E+03  0.22529132132E+03  0.00000000000E+00 0.  1.
<mgrwt>
<rscale>  0 0.24308301E+04</rscale>
<asrwt>0</asrwt>
<pdfrwt beam="1">  1        2 0.52787678E+00 0.24308301E+04</pdfrwt>
<pdfrwt beam="2">  1       -2 0.66235367E-01 0.24308301E+04</pdfrwt>
<totfact> 0.17090071E+00</totfact>
</mgrwt>
</event>
<event>
12    1  0.1980523E-007  0.3471110E+04  0.7818608E-02  0.8120671E-01
          2   -1    0    0  501    0  0.00000000000E+00  0.00000000000E+00  0.30483315377E+04  0.30483315377E+04  0.00000000000E+00 0. -1.
         -2   -1    0    0    0  501 -0.00000000000E+00 -0.00000000000E+00 -0.98813084379E+03  0.98813084379E+03  0.00000000000E+00 0.  1.
         23    2    1    2    0    0  0.57393126644E+03  0.13897313258E+04  0.16813488900E+04  0.22574402792E+04  0.91390742723E+02 0.  0.
        254    2    1    2    0    0 -0.57393126644E+03 -0.13897313258E+04  0.37885180388E+03  0.17790221022E+04  0.87214717473E+03 0.  0.
        -24    2    4    4    0    0 -0.56101367638E+03 -0.70925416548E+03  0.56432079792E+03  0.10689898544E+04  0.80644463028E+02 0.  0.
         24    2    4    4    0    0 -0.12917590057E+02 -0.68047716033E+03 -0.18546899404E+03  0.71003224787E+03  0.80814697939E+02 0.  0.
         13    1    3    3    0    0  0.42890213148E+03  0.99620243934E+03  0.12677971461E+04  0.16684381745E+04  0.00000000000E+00 0. -1.
        -13    1    3    3    0    0  0.14502913496E+03  0.39352888647E+03  0.41355174393E+03  0.58900210473E+03  0.00000000000E+00 0.  1.
          2    1    6    6  502    0 -0.28385148510E+02 -0.85559495129E+02 -0.19984112856E+02  0.92333680904E+02  0.00000000000E+00 0. -1.
          1    1    5    5  503    0 -0.29341015831E+02 -0.72081137915E+02  0.55039077798E+02  0.95319912600E+02  0.00000000000E+00 0. -1.
         -2    1    5    5    0  503 -0.53167266055E+03 -0.63717302756E+03  0.50928172013E+03  0.97366994176E+03  0.00000000000E+00 0.  1.
         -1    1    6    6    0  502  0.15467558452E+02 -0.59491766520E+03 -0.16548488119E+03  0.61769856697E+03  0.00000000000E+00 0.  1.
<mgrwt>
<rscale>  0 0.34711096E+04</rscale>
<asrwt>0</asrwt>
<pdfrwt beam="1">  1        2 0.46897408E+00 0.34711096E+04</pdfrwt>
<pdfrwt beam="2">  1       -2 0.15202013E+00 0.34711096E+04</pdfrwt>
<totfact> 0.38627191E-01</totfact>
</mgrwt>
</event>
<event>
12    1  0.1980523E-007  0.2663712E+04  0.7818608E-02  0.8346876E-01
          1   -1    0    0  501    0  0.00000000000E+00  0.00000000000E+00  0.11996293980E+04  0.11996293980E+04  0.00000000000E+00 0. -1.
         -1   -1    0    0    0  501 -0.00000000000E+00 -0.00000000000E+00 -0.14786572484E+04  0.14786572484E+04  0.00000000000E+00 0.  1.
         23    2    1    2    0    0 -0.43389073216E+02 -0.11019467352E+04 -0.53650861121E+03  0.12297663651E+04  0.91184448990E+02 0.  0.
        254    2    1    2    0    0  0.43389073216E+02  0.11019467352E+04  0.25748076079E+03  0.14485202813E+04  0.90318627331E+03 0.  0.
        -24    2    4    4    0    0 -0.37775862922E+03  0.82693797532E+03  0.21345331987E+03  0.93714172529E+03  0.78385563391E+02 0.  0.
         24    2    4    4    0    0  0.42114770244E+03  0.27500875993E+03  0.44027440921E+02  0.51137855605E+03  0.81082715351E+02 0.  0.
         11    1    3    3    0    0 -0.55389409588E+02 -0.96994782075E+03 -0.49807884845E+03  0.10917643065E+04  0.00000000000E+00 0.  1.
        -11    1    3    3    0    0  0.12000336372E+02 -0.13199891450E+03 -0.38429762757E+02  0.13800205856E+03  0.00000000000E+00 0. -1.
          4    1    6    6  502    0  0.41002008000E+03  0.26290241373E+03  0.27161915851E+02  0.48782365135E+03  0.00000000000E+00 0. -1.
          1    1    5    5  503    0 -0.36805328954E+03  0.81369822099E+03  0.21950307099E+03  0.91964646303E+03  0.00000000000E+00 0. -1.
         -2    1    5    5    0  503 -0.97053396805E+01  0.13239754327E+02 -0.60497511284E+01  0.17495262264E+02  0.00000000000E+00 0.  1.
         -3    1    6    6    0  502  0.11127622440E+02  0.12106346201E+02  0.16865525070E+02  0.23554904699E+02  0.00000000000E+00 0.  1.
<mgrwt>
<rscale>  0 0.26637122E+04</rscale>
<asrwt>0</asrwt>
<pdfrwt beam="1">  1        1 0.18455837E+00 0.26637122E+04</pdfrwt>
<pdfrwt beam="2">  1       -1 0.22748573E+00 0.26637122E+04</pdfrwt>
<totfact> 0.91865584E-01</totfact>
</mgrwt>
</event>
<event>
12    1  0.1980523E-007  0.2286453E+04  0.7818608E-02  0.8483282E-01
          3   -1    0    0  501    0  0.00000000000E+00  0.00000000000E+00  0.15475836816E+04  0.15475836816E+04  0.00000000000E+00 0. -1.
         -3   -1    0    0    0  501 -0.00000000000E+00 -0.00000000000E+00 -0.84452061417E+03  0.84452061417E+03  0.00000000000E+00 0.  1.
         23    2    1    2    0    0  0.14878598270E+03 -0.12575345260E+03 -0.68946867901E+03  0.72246146363E+03  0.92910212600E+02 0.  0.
        254    2    1    2    0    0 -0.14878598270E+03  0.12575345260E+03  0.13925317464E+04  0.16696428321E+04  0.90033955960E+03 0.  0.
        -24    2    4    4    0    0  0.35523255541E+03  0.12420717983E+03  0.80296618853E+03  0.89034435531E+03  0.79629009588E+02 0.  0.
         24    2    4    4    0    0 -0.50401853811E+03  0.15462727770E+01  0.58956555788E+03  0.77929847681E+03  0.75375667145E+02 0.  0.
         13    1    3    3    0    0  0.96398849210E+01 -0.22488177082E+02 -0.23181184372E+03  0.23309949888E+03  0.00000000000E+00 0.  1.
        -13    1    3    3    0    0  0.13914609778E+03 -0.10326527552E+03 -0.45765683529E+03  0.48936196475E+03  0.00000000000E+00 0. -1.
          2    1    6    6  502    0 -0.48458876203E+03  0.11851600838E+02  0.54353576626E+03  0.72828418762E+03  0.00000000000E+00 0. -1.
          1    1    5    5  503    0  0.16836516378E+03  0.26187298430E+02  0.41685407550E+03  0.45033312473E+03  0.00000000000E+00 0. -1.
         -2    1    5    5    0  503  0.18686739163E+03  0.98019881397E+02  0.38611211303E+03  0.44001123057E+03  0.00000000000E+00 0.  1.
         -1    1    6    6    0  502 -0.19429776077E+02 -0.10305328061E+02  0.46029791621E+02  0.51014289190E+02  0.00000000000E+00 0.  1.
<mgrwt>
<rscale>  0 0.22864526E+04</rscale>
<asrwt>0</asrwt>
<pdfrwt beam="1">  1        3 0.23808980E+00 0.22864526E+04</pdfrwt>
<pdfrwt beam="2">  1       -3 0.12992625E+00 0.22864526E+04</pdfrwt>
<totfact> 0.95293690E-02</totfact>
</mgrwt>
</event>
<event>
12    1  0.1980523E-007  0.1850157E+04  0.7818608E-02  0.8680072E-01
          2   -1    0    0  501    0  0.00000000000E+00  0.00000000000E+00  0.14023844024E+04  0.14023844024E+04  0.00000000000E+00 0. -1.
         -2   -1    0    0    0  501 -0.00000000000E+00 -0.00000000000E+00 -0.61022523712E+03  0.61022523712E+03  0.00000000000E+00 0.  1.
         23    2    1    2    0    0 -0.38172374388E+03  0.47395037628E+03 -0.79004768747E+02  0.62084894458E+03  0.94178992825E+02 0.  0.
        254    2    1    2    0    0  0.38172374388E+03 -0.47395037628E+03  0.87116393401E+03  0.13917606949E+04  0.89873759029E+03 0.  0.
        -24    2    4    4    0    0 -0.10096149625E+03 -0.26795262005E+03  0.80335287973E+03  0.85652918072E+03  0.79212106013E+02 0.  0.
         24    2    4    4    0    0  0.48268524014E+03 -0.20599775622E+03  0.67811054277E+02  0.53523151420E+03  0.80338770801E+02 0.  0.
         11    1    3    3    0    0 -0.13309446165E+03  0.12822456057E+03  0.12680353123E+02  0.18524703779E+03  0.00000000000E+00 0. -1.
        -11    1    3    3    0    0 -0.24862928224E+03  0.34572581570E+03 -0.91685121869E+02  0.43560190679E+03  0.00000000000E+00 0.  1.
          4    1    6    6  502    0  0.32247614342E+02  0.62436846597E+01  0.12928737326E+01  0.32871929536E+02  0.00000000000E+00 0. -1.
          1    1    5    5  503    0  0.10164782725E+02 -0.84320675257E+01  0.21098920308E+02  0.24891504751E+02  0.00000000000E+00 0. -1.
         -2    1    5    5    0  503 -0.11112627898E+03 -0.25952055253E+03  0.78225395942E+03  0.83163767597E+03  0.00000000000E+00 0.  1.
         -3    1    6    6    0  502  0.45043762579E+03 -0.21224144088E+03  0.66518180544E+02  0.50235958466E+03  0.00000000000E+00 0.  1.
<mgrwt>
<rscale>  0 0.18501571E+04</rscale>
<asrwt>0</asrwt>
<pdfrwt beam="1">  1        2 0.21575145E+00 0.18501571E+04</pdfrwt>
<pdfrwt beam="2">  1       -2 0.93880806E-01 0.18501571E+04</pdfrwt>
<totfact> 0.12997898E+01</totfact>
</mgrwt>
</event>
<event>
12    1  0.1980523E-007  0.1635502E+04  0.7818608E-02  0.8799030E-01
          1   -1    0    0  501    0  0.00000000000E+00  0.00000000000E+00  0.15057424073E+04  0.15057424073E+04  0.00000000000E+00 0. -1.
         -1   -1    0    0    0  501 -0.00000000000E+00 -0.00000000000E+00 -0.44411087939E+03  0.44411087939E+03  0.00000000000E+00 0.  1.
         23    2    1    2    0    0  0.18390684137E+03  0.52599585689E+03  0.25523675593E+03  0.61910698592E+03  0.87488803114E+02 0.  0.
        254    2    1    2    0    0 -0.18390684137E+03 -0.52599585689E+03  0.80639477198E+03  0.13307463008E+04  0.90006656474E+03 0.  0.
        -24    2    4    4    0    0  0.66107134039E+02  0.86550082163E+02  0.62746206526E+03  0.64140527049E+03  0.76361035762E+02 0.  0.
         24    2    4    4    0    0 -0.25001397541E+03 -0.61254593905E+03  0.17893270672E+03  0.68934103027E+03  0.73855447609E+02 0.  0.
         13    1    3    3    0    0  0.78497166562E+02  0.11789173150E+03  0.49106467969E+02  0.14990567271E+03  0.00000000000E+00 0.  1.
        -13    1    3    3    0    0  0.10540967481E+03  0.40810412539E+03  0.20613028796E+03  0.46920131321E+03  0.00000000000E+00 0. -1.
          2    1    6    6  502    0 -0.18355874972E+03 -0.36976877359E+03  0.91159918110E+02  0.42276812935E+03  0.00000000000E+00 0. -1.
          1    1    5    5  503    0  0.58110034886E+02  0.49841911876E+02  0.55011846125E+03  0.55541994359E+03  0.00000000000E+00 0. -1.
         -2    1    5    5    0  503  0.79970991531E+01  0.36708170287E+02  0.77343604010E+02  0.85985326899E+02  0.00000000000E+00 0.  1.
         -1    1    6    6    0  502 -0.66455225690E+02 -0.24277716546E+03  0.87772788607E+02  0.26657290093E+03  0.00000000000E+00 0.  1.
<mgrwt>
<rscale>  0 0.16355019E+04</rscale>
<asrwt>0</asrwt>
<pdfrwt beam="1">  1        1 0.23165268E+00 0.16355019E+04</pdfrwt>
<pdfrwt beam="2">  1       -1 0.68324751E-01 0.16355019E+04</pdfrwt>
<totfact> 0.13446260E+01</totfact>
</mgrwt>
</event>
<event>
12    1  0.1980523E-007  0.1887391E+04  0.7818608E-02  0.8661158E-01
         -1   -1    0    0    0  501 -0.00000000000E+00  0.00000000000E+00  0.55468160162E+03  0.55468160162E+03  0.00000000000E+00 0.  1.
          1   -1    0    0  501    0  0.00000000000E+00 -0.00000000000E+00 -0.16055359771E+04  0.16055359771E+04  0.00000000000E+00 0. -1.
         23    2    1    2    0    0  0.29788144068E+03 -0.64023451809E+03 -0.59810052523E+03  0.92992555359E+03  0.91671729975E+02 0.  0.
        254    2    1    2    0    0 -0.29788144068E+03  0.64023451809E+03 -0.45275385020E+03  0.12302920251E+04  0.89999934849E+03 0.  0.
        -24    2    4    4    0    0 -0.16461875235E+03  0.38437219256E+03  0.23088086734E+03  0.48409546689E+03  0.78747254682E+02 0.  0.
         24    2    4    4    0    0 -0.13326268833E+03  0.25586232553E+03 -0.68363471754E+03  0.74619655820E+03  0.78920230150E+02 0.  0.
         13    1    3    3    0    0  0.14801453024E+03 -0.28399848630E+03 -0.32800363257E+03  0.45842101213E+03  0.00000000000E+00 0. -1.
        -13    1    3    3    0    0  0.14986691044E+03 -0.35623603179E+03 -0.27009689267E+03  0.47150454146E+03  0.00000000000E+00 0.  1.
          2    1    6    6  502    0 -0.76830424401E+02  0.14443668997E+03 -0.28692189698E+03  0.33028630988E+03  0.00000000000E+00 0. -1.
          3    1    5    5  503    0 -0.47909516962E+02  0.20588982031E+03  0.13020050629E+03  0.24827023938E+03  0.00000000000E+00 0. -1.
         -4    1    5    5    0  503 -0.11670923539E+03  0.17848237225E+03  0.10068036104E+03  0.23582522751E+03  0.00000000000E+00 0.  1.
         -1    1    6    6    0  502 -0.56432263925E+02  0.11142563556E+03 -0.39671282055E+03  0.41591024833E+03  0.00000000000E+00 0.  1.
<mgrwt>
<rscale>  0 0.18873911E+04</rscale>
<asrwt>0</asrwt>
<pdfrwt beam="1">  1        1 0.24700553E+00 0.18873911E+04</pdfrwt>
<pdfrwt beam="2">  1       -1 0.85335633E-01 0.18873911E+04</pdfrwt>
<totfact> 0.70320518E+00</totfact>
</mgrwt>
</event>
<event>
12    1  0.1980523E-007  0.3032048E+04  0.7818608E-02  0.8234638E-01
          1   -1    0    0  501    0  0.00000000000E+00  0.00000000000E+00  0.14891280168E+04  0.14891280168E+04  0.00000000000E+00 0. -1.
         -1   -1    0    0    0  501 -0.00000000000E+00 -0.00000000000E+00 -0.15434054742E+04  0.15434054742E+04  0.00000000000E+00 0.  1.
         23    2    1    2    0    0 -0.40997521496E+03  0.80616768669E+03 -0.10680570476E+04  0.14026327011E+04  0.92987210654E+02 0.  0.
        254    2    1    2    0    0  0.40997521496E+03 -0.80616768669E+03  0.10137795902E+04  0.16299007899E+04  0.90046738493E+03 0.  0.
        -24    2    4    4    0    0  0.30100662495E+03 -0.29854405425E+03  0.10168935450E+04  0.11047113429E+04  0.81124156259E+02 0.  0.
         24    2    4    4    0    0  0.10896859001E+03 -0.50762363244E+03 -0.31139547672E+01  0.52518944695E+03  0.79109750706E+02 0.  0.
         11    1    3    3    0    0 -0.62612049282E+02  0.10553793644E+03 -0.10086513338E+03  0.15884678112E+03  0.00000000000E+00 0.  1.
        -11    1    3    3    0    0 -0.34736316568E+03  0.70062975025E+03 -0.96719191424E+03  0.12437859200E+04  0.00000000000E+00 0. -1.
          4    1    6    6  502    0  0.48688822932E+02 -0.98888008589E+02 -0.18401708504E+02  0.11175000043E+03  0.00000000000E+00 0. -1.
          3    1    5    5  503    0  0.20915078317E+03 -0.22835975980E+03  0.81816278727E+03  0.87480430753E+03  0.00000000000E+00 0. -1.
         -4    1    5    5    0  503  0.91855841777E+02 -0.70184294450E+02  0.19873075774E+03  0.22990703540E+03  0.00000000000E+00 0.  1.
         -3    1    6    6    0  502  0.60279767077E+02 -0.40873562385E+03  0.15287753737E+02  0.41343944652E+03  0.00000000000E+00 0.  1.
<mgrwt>
<rscale>  0 0.30320477E+04</rscale>
<asrwt>0</asrwt>
<pdfrwt beam="1">  1        1 0.22909662E+00 0.30320477E+04</pdfrwt>
<pdfrwt beam="2">  1       -1 0.23744700E+00 0.30320477E+04</pdfrwt>
<totfact> 0.47610491E-01</totfact>
</mgrwt>
</event>
<event>
12    1  0.1980523E-007  0.2766427E+04  0.7818608E-02  0.8313768E-01
          2   -1    0    0  501    0  0.00000000000E+00  0.00000000000E+00  0.96696212592E+03  0.96696212592E+03  0.00000000000E+00 0. -1.
         -2   -1    0    0    0  501 -0.00000000000E+00 -0.00000000000E+00 -0.19786502219E+04  0.19786502219E+04  0.00000000000E+00 0.  1.
         23    2    1    2    0    0  0.92317143647E+03 -0.80654805570E+03 -0.60919213778E+03  0.13721275459E+04  0.94093964800E+02 0.  0.
        254    2    1    2    0    0 -0.92317143647E+03  0.80654805570E+03 -0.40249595817E+03  0.15734848019E+04  0.90060321906E+03 0.  0.
        -24    2    4    4    0    0 -0.29525270422E+03 -0.58620939428E+02  0.17386234699E+03  0.35644551155E+03  0.78833451734E+02 0.  0.
         24    2    4    4    0    0 -0.62791873225E+03  0.86516899512E+03 -0.57635830517E+03  0.12170392903E+04  0.78717303514E+02 0.  0.
         11    1    3    3    0    0  0.70707547553E+03 -0.56315538957E+03 -0.45403118756E+03  0.10115552581E+04  0.00000000000E+00 0. -1.
        -11    1    3    3    0    0  0.21609596094E+03 -0.24339266612E+03 -0.15516095022E+03  0.36057228780E+03  0.00000000000E+00 0.  1.
          2    1    6    6  502    0 -0.13663962709E+03  0.20262759243E+03 -0.16885504307E+03  0.29705278063E+03  0.00000000000E+00 0. -1.
          3    1    5    5  503    0 -0.82660858853E+02 -0.20290495280E+02  0.92265679300E+02  0.12552879097E+03  0.00000000000E+00 0. -1.
         -2    1    5    5    0  503 -0.21259184537E+03 -0.38330444148E+02  0.81596667694E+02  0.23091672058E+03  0.00000000000E+00 0.  1.
         -3    1    6    6    0  502 -0.49127910515E+03  0.66254140270E+03 -0.40750326209E+03  0.91998650972E+03  0.00000000000E+00 0.  1.
<mgrwt>
<rscale>  0 0.27664272E+04</rscale>
<asrwt>0</asrwt>
<pdfrwt beam="1">  1        2 0.14876340E+00 0.27664272E+04</pdfrwt>
<pdfrwt beam="2">  1       -2 0.30440773E+00 0.27664272E+04</pdfrwt>
<totfact> 0.68961969E-01</totfact>
</mgrwt>
</event>
<event>
12    1  0.1980523E-007  0.2550108E+04  0.7818608E-02  0.8385349E-01
          2   -1    0    0  501    0  0.00000000000E+00  0.00000000000E+00  0.19324261988E+04  0.19324261988E+04  0.00000000000E+00 0. -1.
         -2   -1    0    0    0  501 -0.00000000000E+00 -0.00000000000E+00 -0.84130667264E+03  0.84130667264E+03  0.00000000000E+00 0.  1.
         23    2    1    2    0    0  0.10848958794E+04  0.22857965206E+03  0.59576246017E+03  0.12621873385E+04  0.94531698851E+02 0.  0.
        254    2    1    2    0    0 -0.10848958794E+04 -0.22857965206E+03  0.49535706599E+03  0.15115455329E+04  0.90007974585E+03 0.  0.
        -24    2    4    4    0    0 -0.57908029268E+03  0.32911249183E+03  0.21531367355E+03  0.70441691764E+03  0.78703228614E+02 0.  0.
         24    2    4    4    0    0 -0.50581558671E+03 -0.55769214389E+03  0.28004339244E+03  0.80712861530E+03  0.78500731691E+02 0.  0.
         11    1    3    3    0    0  0.24657143307E+02  0.19964571091E+02  0.23165191550E+02  0.39283392349E+02  0.00000000000E+00 0.  1.
        -11    1    3    3    0    0  0.10602387361E+04  0.20861508097E+03  0.57259726862E+03  0.12229039461E+04  0.00000000000E+00 0. -1.
          4    1    6    6  502    0 -0.47920727902E+03 -0.54418323792E+03  0.25655534668E+03  0.76915255874E+03  0.00000000000E+00 0. -1.
          1    1    5    5  503    0 -0.37892692798E+03  0.25615017204E+03  0.13731629120E+03  0.47755030229E+03  0.00000000000E+00 0. -1.
         -2    1    5    5    0  503 -0.20015336470E+03  0.72962319789E+02  0.77997382349E+02  0.22686661535E+03  0.00000000000E+00 0.  1.
         -3    1    6    6    0  502 -0.26608307686E+02 -0.13508905966E+02  0.23488045764E+02  0.37976056564E+02  0.00000000000E+00 0.  1.
<mgrwt>
<rscale>  0 0.25501083E+04</rscale>
<asrwt>0</asrwt>
<pdfrwt beam="1">  1        2 0.29729634E+00 0.25501083E+04</pdfrwt>
<pdfrwt beam="2">  1       -2 0.12943180E+00 0.25501083E+04</pdfrwt>
<totfact> 0.28417083E+00</totfact>
</mgrwt>
</event>
<event>
12    1  0.1980523E-007  0.3722831E+04  0.7818608E-02  0.8062921E-01
          1   -1    0    0  501    0  0.00000000000E+00  0.00000000000E+00  0.22569946394E+04  0.22569946394E+04  0.00000000000E+00 0. -1.
         -1   -1    0    0    0  501 -0.00000000000E+00 -0.00000000000E+00 -0.15351686236E+04  0.15351686236E+04  0.00000000000E+00 0.  1.
         23    2    1    2    0    0 -0.30521436803E+03 -0.48037984696E+03  0.20268084814E+04  0.21070356155E+04  0.87896852491E+02 0.  0.
        254    2    1    2    0    0  0.30521436803E+03  0.48037984696E+03 -0.13049824656E+04  0.16851276475E+04  0.90152944772E+03 0.  0.
        -24    2    4    4    0    0 -0.26806199503E+03  0.11156730274E+03 -0.72787613893E+03  0.78762327337E+03  0.79007916782E+02 0.  0.
         24    2    4    4    0    0  0.57327636306E+03  0.36881254422E+03 -0.57710632668E+03  0.89750437416E+03  0.88283113474E+02 0.  0.
         13    1    3    3    0    0 -0.18070858868E+03 -0.33815953104E+03  0.14618662264E+04  0.15113107974E+04  0.00000000000E+00 0. -1.
        -13    1    3    3    0    0 -0.12450577935E+03 -0.14222031592E+03  0.56494225501E+03  0.59572481805E+03  0.00000000000E+00 0.  1.
          2    1    6    6  502    0  0.82093225250E+02  0.78527336895E+02 -0.12996240952E+03  0.17261537637E+03  0.00000000000E+00 0. -1.
          1    1    5    5  503    0  0.68499023191E+00  0.51245319977E+01 -0.84805928177E+00  0.52392026453E+01  0.00000000000E+00 0. -1.
         -2    1    5    5    0  503 -0.26874698526E+03  0.10644277074E+03 -0.72702807965E+03  0.78238407072E+03  0.00000000000E+00 0.  1.
         -1    1    6    6    0  502  0.49118313781E+03  0.29028520733E+03 -0.44714391716E+03  0.72488899778E+03  0.00000000000E+00 0.  1.
<mgrwt>
<rscale>  0 0.37228308E+04</rscale>
<asrwt>0</asrwt>
<pdfrwt beam="1">  1        1 0.34722995E+00 0.37228308E+04</pdfrwt>
<pdfrwt beam="2">  1       -1 0.23617979E+00 0.37228308E+04</pdfrwt>
<totfact> 0.13703305E-01</totfact>
</mgrwt>
</event>
<event>
12    1  0.1980523E-007  0.1672776E+04  0.7818608E-02  0.8777046E-01
         -2   -1    0    0    0  501 -0.00000000000E+00  0.00000000000E+00  0.22895413125E+03  0.22895413125E+03  0.00000000000E+00 0. -1.
          2   -1    0    0  501    0  0.00000000000E+00 -0.00000000000E+00 -0.30553914710E+04  0.30553914710E+04  0.00000000000E+00 0.  1.
         23    2    1    2    0    0  0.36814797854E+03  0.39717156031E+03 -0.55165917140E+03  0.77850262381E+03  0.91979951461E+02 0.  0.
        254    2    1    2    0    0 -0.36814797854E+03 -0.39717156031E+03 -0.22747781683E+04  0.25058429784E+04  0.90075253816E+03 0.  0.
        -24    2    4    4    0    0 -0.62754958916E+03 -0.17228611003E+03 -0.11118444259E+04  0.12907131461E+04  0.79002579134E+02 0.  0.
         24    2    4    4    0    0  0.25940161063E+03 -0.22488545027E+03 -0.11629337424E+04  0.12151298323E+04  0.79138857840E+02 0.  0.
         11    1    3    3    0    0  0.12222166233E+03  0.15901151770E+03 -0.26272820629E+03  0.33052822555E+03  0.00000000000E+00 0.  1.
        -11    1    3    3    0    0  0.24592631621E+03  0.23816004260E+03 -0.28893096511E+03  0.44797439826E+03  0.00000000000E+00 0. -1.
          2    1    6    6  502    0 -0.45978130544E+01 -0.12803615049E+02 -0.40322457789E+02  0.42555528964E+02  0.00000000000E+00 0. -1.
          1    1    5    5  503    0 -0.34364478128E+03 -0.10978482439E+03 -0.54340289454E+03  0.65225083300E+03  0.00000000000E+00 0. -1.
         -2    1    5    5    0  503 -0.28390480789E+03 -0.62501285648E+02 -0.56844153138E+03  0.63846231310E+03  0.00000000000E+00 0.  1.
         -1    1    6    6    0  502  0.26399942368E+03 -0.21208183522E+03 -0.11226112846E+04  0.11725743034E+04  0.00000000000E+00 0.  1.
<mgrwt>
<rscale>  0 0.16727755E+04</rscale>
<asrwt>0</asrwt>
<pdfrwt beam="1">  1        2 0.47006023E+00 0.16727755E+04</pdfrwt>
<pdfrwt beam="2">  1       -2 0.35223712E-01 0.16727755E+04</pdfrwt>
<totfact> 0.11659250E+01</totfact>
</mgrwt>
</event>
<event>
12    1  0.1980523E-007  0.1763609E+04  0.7818608E-02  0.8725895E-01
         -2   -1    0    0    0  501 -0.00000000000E+00  0.00000000000E+00  0.10469594892E+04  0.10469594892E+04  0.00000000000E+00 0.  1.
          2   -1    0    0  501    0  0.00000000000E+00 -0.00000000000E+00 -0.74270230162E+03  0.74270230162E+03  0.00000000000E+00 0. -1.
         23    2    1    2    0    0 -0.60884487951E+03 -0.14852820434E+03 -0.61271241867E+02  0.63391202946E+03  0.73058751906E+02 0.  0.
        254    2    1    2    0    0  0.60884487951E+03  0.14852820434E+03  0.36552842948E+03  0.11557497614E+04  0.89966313884E+03 0.  0.
        -24    2    4    4    0    0 -0.48406334557E+02  0.35695107927E+03 -0.34494013356E+01  0.36942073710E+03  0.81869019849E+02 0.  0.
         24    2    4    4    0    0  0.65725121407E+03 -0.20842287493E+03  0.36897783082E+03  0.78632902428E+03  0.82154985310E+02 0.  0.
         11    1    3    3    0    0 -0.15759054219E+03 -0.12344383740E+02 -0.34512788140E+02  0.16179708076E+03  0.00000000000E+00 0.  1.
        -11    1    3    3    0    0 -0.45125433732E+03 -0.13618382060E+03 -0.26758453727E+02  0.47211494871E+03  0.00000000000E+00 0. -1.
          2    1    6    6  502    0  0.11800978442E+03 -0.23652368463E+02  0.33565701687E+02  0.12494959017E+03  0.00000000000E+00 0. -1.
          1    1    5    5  503    0 -0.74186004355E+01 -0.12559918184E+01 -0.47049471387E+01  0.88741013882E+01  0.00000000000E+00 0. -1.
         -2    1    5    5    0  503 -0.40987734121E+02  0.35820707109E+03  0.12555458031E+01  0.36054663571E+03  0.00000000000E+00 0.  1.
         -1    1    6    6    0  502  0.53924142964E+03 -0.18477050647E+03  0.33541212913E+03  0.66137943412E+03  0.00000000000E+00 0.  1.
<mgrwt>
<rscale>  0 0.17636091E+04</rscale>
<asrwt>0</asrwt>
<pdfrwt beam="1">  1        2 0.11426189E+00 0.17636091E+04</pdfrwt>
<pdfrwt beam="2">  1       -2 0.16107069E+00 0.17636091E+04</pdfrwt>
<totfact> 0.88891692E+00</totfact>
</mgrwt>
</event>
<event>
12    1  0.1980523E-007  0.2266148E+04  0.7818608E-02  0.8491389E-01
          2   -1    0    0  501    0  0.00000000000E+00  0.00000000000E+00  0.77715454598E+03  0.77715454598E+03  0.00000000000E+00 0. -1.
         -2   -1    0    0    0  501 -0.00000000000E+00 -0.00000000000E+00 -0.16519968286E+04  0.16519968286E+04  0.00000000000E+00 0.  1.
         23    2    1    2    0    0  0.34725266750E+03  0.37761765518E+03  0.49107765400E+03  0.71559844571E+03  0.88002071886E+02 0.  0.
        254    2    1    2    0    0 -0.34725266750E+03 -0.37761765518E+03 -0.13659199366E+04  0.17135529289E+04  0.89852482338E+03 0.  0.
        -24    2    4    4    0    0 -0.33586875570E+03 -0.30915024191E+03 -0.14130280177E+03  0.48430489107E+03  0.78759460356E+02 0.  0.
         24    2    4    4    0    0 -0.11383911801E+02 -0.68467413267E+02 -0.12246171349E+04  0.12292480378E+04  0.80908784177E+02 0.  0.
         13    1    3    3    0    0  0.17708503017E+03  0.21751611540E+03  0.32295974686E+03  0.42775619980E+03  0.00000000000E+00 0. -1.
        -13    1    3    3    0    0  0.17016763733E+03  0.16010153978E+03  0.16811790714E+03  0.28784224591E+03  0.00000000000E+00 0.  1.
          4    1    6    6  502    0 -0.16384145260E+02 -0.84794578401E+02 -0.88557590951E+03  0.88977708009E+03  0.00000000000E+00 0. -1.
          3    1    5    5  503    0 -0.13462876471E+03 -0.92907743830E+02 -0.19311046534E+02  0.16471086688E+03  0.00000000000E+00 0. -1.
         -4    1    5    5    0  503 -0.20123999099E+03 -0.21624249808E+03 -0.12199175524E+03  0.31959402419E+03  0.00000000000E+00 0.  1.
         -1    1    6    6    0  502  0.50002334591E+01  0.16327165134E+02 -0.33904122536E+03  0.33947095774E+03  0.00000000000E+00 0.  1.
<mgrwt>
<rscale>  0 0.22661481E+04</rscale>
<asrwt>0</asrwt>
<pdfrwt beam="1">  1        2 0.11956224E+00 0.22661481E+04</pdfrwt>
<pdfrwt beam="2">  1       -2 0.25415336E+00 0.22661481E+04</pdfrwt>
<totfact> 0.19714762E+00</totfact>
</mgrwt>
</event>
<event>
12    1  0.1980523E-007  0.1740044E+04  0.7818608E-02  0.8738849E-01
         -1   -1    0    0    0  501 -0.00000000000E+00  0.00000000000E+00  0.11963447073E+04  0.11963447073E+04  0.00000000000E+00 0.  1.
          1   -1    0    0  501    0  0.00000000000E+00 -0.00000000000E+00 -0.63270942638E+03  0.63270942638E+03  0.00000000000E+00 0. -1.
         23    2    1    2    0    0 -0.12329719575E+03 -0.60751065065E+03  0.34215034609E+03  0.71455833682E+03  0.96204824543E+02 0.  0.
        254    2    1    2    0    0  0.12329719575E+03  0.60751065065E+03  0.22148493485E+03  0.11144957969E+04  0.89931858413E+03 0.  0.
        -24    2    4    4    0    0 -0.25559313215E+03  0.63372763673E+03  0.47430254119E+02  0.68953829767E+03  0.79214065637E+02 0.  0.
         24    2    4    4    0    0  0.37889032790E+03 -0.26216986084E+02  0.17405468073E+03  0.42495749920E+03  0.77772960042E+02 0.  0.
         11    1    3    3    0    0 -0.55342345177E+02 -0.23844135489E+03  0.82872072579E+02  0.25842762101E+03  0.00000000000E+00 0. -1.
        -11    1    3    3    0    0 -0.67954850574E+02 -0.36906929576E+03  0.25927827351E+03  0.45613071581E+03  0.00000000000E+00 0.  1.
          4    1    6    6  502    0  0.37522918170E+03 -0.35676989804E+02  0.17309949119E+03  0.41476887570E+03  0.00000000000E+00 0. -1.
          3    1    5    5  503    0 -0.26044349145E+03  0.60768762666E+03  0.49315056466E+02  0.66298343767E+03  0.00000000000E+00 0. -1.
         -4    1    5    5    0  503  0.48503592991E+01  0.26040010071E+02 -0.18848023467E+01  0.26554860002E+02  0.00000000000E+00 0.  1.
         -3    1    6    6    0  502  0.36611462008E+01  0.94600037194E+01  0.95518953455E+00  0.10188623505E+02  0.00000000000E+00 0.  1.
<mgrwt>
<rscale>  0 0.17400443E+04</rscale>
<asrwt>0</asrwt>
<pdfrwt beam="1">  1        1 0.97339912E-01 0.17400443E+04</pdfrwt>
<pdfrwt beam="2">  1       -1 0.18405303E+00 0.17400443E+04</pdfrwt>
<totfact> 0.58508818E+00</totfact>
</mgrwt>
</event>
<event>
12    1  0.1980523E-007  0.1970152E+04  0.7818608E-02  0.8620704E-01
         -2   -1    0    0    0  501 -0.00000000000E+00  0.00000000000E+00  0.48724339326E+03  0.48724339326E+03  0.00000000000E+00 0.  1.
          2   -1    0    0  501    0  0.00000000000E+00 -0.00000000000E+00 -0.19915596726E+04  0.19915596726E+04  0.00000000000E+00 0. -1.
         23    2    1    2    0    0 -0.23609909879E+03 -0.47492309194E+03 -0.13079456726E+04  0.14150925256E+04  0.10232421950E+03 0.  0.
        254    2    1    2    0    0  0.23609909879E+03  0.47492309194E+03 -0.19637060676E+03  0.10637105403E+04  0.90090175411E+03 0.  0.
        -24    2    4    4    0    0  0.48975734628E+03  0.57287907659E+03 -0.10292633241E+03  0.76487583685E+03  0.79928225714E+02 0.  0.
         24    2    4    4    0    0 -0.25365824749E+03 -0.97955984653E+02 -0.93444274353E+02  0.29883470341E+03  0.81439953986E+02 0.  0.
         13    1    3    3    0    0 -0.23702275894E+03 -0.43812267795E+03 -0.11560942521E+04  0.12588427976E+04  0.00000000000E+00 0.  1.
        -13    1    3    3    0    0  0.92366014810E+00 -0.36800413983E+02 -0.15185142045E+03  0.15624972803E+03  0.00000000000E+00 0. -1.
          2    1    6    6  502    0 -0.24183670898E+03 -0.85440591948E+02 -0.10599998671E+03  0.27752672979E+03  0.00000000000E+00 0. -1.
          1    1    5    5  503    0  0.41714092992E+03  0.52106759074E+03 -0.76513640946E+02  0.67184248659E+03  0.00000000000E+00 0. -1.
         -4    1    5    5    0  503  0.72616416357E+02  0.51811485848E+02 -0.26412691460E+02  0.93033350260E+02  0.00000000000E+00 0.  1.
         -1    1    6    6    0  502 -0.11821538505E+02 -0.12515392705E+02  0.12555712356E+02  0.21307973624E+02  0.00000000000E+00 0.  1.
<mgrwt>
<rscale>  0 0.19701516E+04</rscale>
<asrwt>0</asrwt>
<pdfrwt beam="1">  1        2 0.30639380E+00 0.19701516E+04</pdfrwt>
<pdfrwt beam="2">  1       -2 0.74960522E-01 0.19701516E+04</pdfrwt>
<totfact> 0.10054693E+01</totfact>
</mgrwt>
</event>
<event>
12    1  0.1980523E-007  0.1390653E+04  0.7818608E-02  0.8960612E-01
          1   -1    0    0  501    0  0.00000000000E+00  0.00000000000E+00  0.12972461062E+04  0.12972461062E+04  0.00000000000E+00 0. -1.
         -1   -1    0    0    0  501 -0.00000000000E+00 -0.00000000000E+00 -0.37269660294E+03  0.37269660294E+03  0.00000000000E+00 0.  1.
         23    2    1    2    0    0 -0.31348247086E+03  0.17014886509E+03  0.44631863814E+03  0.57654366849E+03  0.77332910864E+02 0.  0.
        254    2    1    2    0    0  0.31348247086E+03 -0.17014886509E+03  0.47823086512E+03  0.10933990407E+04  0.91629406084E+03 0.  0.
        -24    2    4    4    0    0  0.18053829993E+03 -0.34027574325E+03 -0.15309026982E+03  0.42144201644E+03  0.76125444600E+02 0.  0.
         24    2    4    4    0    0  0.13294417092E+03  0.17012687817E+03  0.63132113494E+03  0.67195702422E+03  0.79640189056E+02 0.  0.
         11    1    3    3    0    0 -0.20767542063E+03  0.13324757416E+03  0.35315964810E+03  0.43081983868E+03  0.00000000000E+00 0. -1.
        -11    1    3    3    0    0 -0.10580705023E+03  0.36901290929E+02  0.93158990038E+02  0.14572382982E+03  0.00000000000E+00 0.  1.
          2    1    6    6  502    0  0.12154248559E+03  0.17766987672E+03  0.60722954872E+03  0.64425684764E+03  0.00000000000E+00 0. -1.
          3    1    5    5  503    0  0.12027352899E+03 -0.22550644171E+03 -0.13932190124E+03  0.29108326849E+03  0.00000000000E+00 0. -1.
         -4    1    5    5    0  503  0.60264770949E+02 -0.11476930154E+03 -0.13768368580E+02  0.13035874795E+03  0.00000000000E+00 0.  1.
         -1    1    6    6    0  502  0.11401685337E+02 -0.75429985488E+01  0.24091586226E+02  0.27700176579E+02  0.00000000000E+00 0.  1.
<mgrwt>
<rscale>  0 0.13906534E+04</rscale>
<asrwt>0</asrwt>
<pdfrwt beam="1">  1        1 0.19957632E+00 0.13906534E+04</pdfrwt>
<pdfrwt beam="2">  1       -1 0.57337940E-01 0.13906534E+04</pdfrwt>
<totfact> 0.27309452E+01</totfact>
</mgrwt>
</event>
<event>
12    1  0.1980523E-007  0.1398799E+04  0.7818608E-02  0.8954688E-01
         -2   -1    0    0    0  501 -0.00000000000E+00  0.00000000000E+00  0.18207106522E+04  0.18207106522E+04  0.00000000000E+00 0.  1.
          2   -1    0    0  501    0  0.00000000000E+00 -0.00000000000E+00 -0.26866427459E+03  0.26866427459E+03  0.00000000000E+00 0. -1.
         23    2    1    2    0    0  0.39906435792E+03  0.48838046767E+02  0.40399115824E+03  0.57651765821E+03  0.86753891692E+02 0.  0.
        254    2    1    2    0    0 -0.39906435792E+03 -0.48838046767E+02  0.11480552194E+04  0.15128572686E+04  0.89948252443E+03 0.  0.
        -24    2    4    4    0    0  0.95637981277E+02 -0.35672099249E+03  0.30729792667E+03  0.48687181551E+03  0.78839451177E+02 0.  0.
         24    2    4    4    0    0 -0.49470233920E+03  0.30788294572E+03  0.84075729269E+03  0.10259854530E+04  0.79063341502E+02 0.  0.
         11    1    3    3    0    0  0.13728419927E+03  0.14012792310E+02  0.19920111549E+03  0.24233116624E+03  0.00000000000E+00 0.  1.
        -11    1    3    3    0    0  0.26178015865E+03  0.34825254457E+02  0.20479004275E+03  0.33418649198E+03  0.00000000000E+00 0. -1.
          2    1    6    6  502    0 -0.49007276274E+03  0.29532159827E+03  0.83278416752E+03  0.10104036960E+04  0.00000000000E+00 0. -1.
          1    1    5    5  503    0  0.97507089807E+02 -0.35986470002E+03  0.29942161757E+03  0.47818776642E+03  0.00000000000E+00 0. -1.
         -2    1    5    5    0  503 -0.18691085303E+01  0.31437075296E+01  0.78763090943E+01  0.86840490947E+01  0.00000000000E+00 0.  1.
         -3    1    6    6    0  502 -0.46295764551E+01  0.12561347454E+02  0.79731251648E+01  0.15581757055E+02  0.00000000000E+00 0.  1.
<mgrwt>
<rscale>  0 0.13987994E+04</rscale>
<asrwt>0</asrwt>
<pdfrwt beam="1">  1        2 0.41332966E-01 0.13987994E+04</pdfrwt>
<pdfrwt beam="2">  1       -2 0.28010932E+00 0.13987994E+04</pdfrwt>
<totfact> 0.50990865E+00</totfact>
</mgrwt>
</event>
<event>
12    1  0.1980523E-007  0.2365894E+04  0.7818608E-02  0.8452384E-01
          2   -1    0    0  501    0  0.00000000000E+00  0.00000000000E+00  0.17302951173E+04  0.17302951173E+04  0.00000000000E+00 0. -1.
         -2   -1    0    0    0  501 -0.00000000000E+00 -0.00000000000E+00 -0.80874289524E+03  0.80874289524E+03  0.00000000000E+00 0.  1.
         23    2    1    2    0    0  0.33087547921E+03 -0.86744151291E+03 -0.33468614867E+02  0.93343994303E+03  0.90865934238E+02 0.  0.
        254    2    1    2    0    0 -0.33087547921E+03  0.86744151291E+03  0.95502083696E+03  0.16055980695E+04  0.89663091673E+03 0.  0.
        -24    2    4    4    0    0 -0.35177525246E+03  0.10388371223E+04  0.80233938828E+03  0.13613581546E+04  0.81358075055E+02 0.  0.
         24    2    4    4    0    0  0.20899773250E+02 -0.17139560935E+03  0.15268144868E+03  0.24423991491E+03  0.80797622742E+02 0.  0.
         13    1    3    3    0    0  0.13786626783E+03 -0.28093626861E+03 -0.43246332155E+02  0.31591540018E+03  0.00000000000E+00 0. -1.
        -13    1    3    3    0    0  0.19300921138E+03 -0.58650524430E+03  0.97777172877E+01  0.61752454285E+03  0.00000000000E+00 0.  1.
          4    1    6    6  502    0  0.22534676199E+02 -0.27002214946E+02  0.68733135097E+02  0.77208646560E+02  0.00000000000E+00 0. -1.
          1    1    5    5  503    0 -0.51321310107E+02  0.10705798735E+03  0.11381319992E+03  0.16446499324E+03  0.00000000000E+00 0. -1.
         -2    1    5    5    0  503 -0.30045394235E+03  0.93177913490E+03  0.68852618836E+03  0.11968931614E+04  0.00000000000E+00 0.  1.
         -3    1    6    6    0  502 -0.16349029489E+01 -0.14439339440E+03  0.83948313579E+02  0.16703126835E+03  0.00000000000E+00 0.  1.
<mgrwt>
<rscale>  0 0.23658942E+04</rscale>
<asrwt>0</asrwt>
<pdfrwt beam="1">  1        2 0.26619925E+00 0.23658942E+04</pdfrwt>
<pdfrwt beam="2">  1       -2 0.12442198E+00 0.23658942E+04</pdfrwt>
<totfact> 0.41270122E+00</totfact>
</mgrwt>
</event>
<event>
12    1  0.1980523E-007  0.3181574E+04  0.7818608E-02  0.8193700E-01
          2   -1    0    0  501    0  0.00000000000E+00  0.00000000000E+00  0.12281243438E+04  0.12281243438E+04  0.00000000000E+00 0. -1.
         -2   -1    0    0    0  501 -0.00000000000E+00 -0.00000000000E+00 -0.20605432643E+04  0.20605432643E+04  0.00000000000E+00 0.  1.
         23    2    1    2    0    0 -0.39274404964E+03 -0.15660780830E+02 -0.18382286407E+04  0.18823575393E+04  0.98449082222E+02 0.  0.
        254    2    1    2    0    0  0.39274404964E+03  0.15660780830E+02  0.10058097201E+04  0.14063100688E+04  0.90086717544E+03 0.  0.
        -24    2    4    4    0    0  0.26187631077E+03 -0.61376751752E+02  0.11487680978E+04  0.11824130109E+04  0.78013318751E+02 0.  0.
         24    2    4    4    0    0  0.13086773887E+03  0.77037532582E+02 -0.14295837770E+03  0.22389705788E+03  0.81434932730E+02 0.  0.
         13    1    3    3    0    0 -0.36668113387E+03  0.12408972854E+02 -0.16665743219E+04  0.17064814699E+04  0.00000000000E+00 0.  1.
        -13    1    3    3    0    0 -0.26062915770E+02 -0.28069753684E+02 -0.17165431878E+03  0.17587606945E+03  0.00000000000E+00 0. -1.
          4    1    6    6  502    0  0.13953581538E+03  0.81418304653E+02 -0.13991831150E+03  0.21372018622E+03  0.00000000000E+00 0. -1.
          3    1    5    5  503    0  0.23658576338E+03 -0.28416027748E+02  0.96065369429E+03  0.98976553507E+03  0.00000000000E+00 0. -1.
         -4    1    5    5    0  503  0.25290547386E+02 -0.32960724004E+02  0.18811440354E+03  0.19264747581E+03  0.00000000000E+00 0.  1.
         -3    1    6    6    0  502 -0.86680765053E+01 -0.43807720712E+01 -0.30400661998E+01  0.10176871658E+02  0.00000000000E+00 0.  1.
<mgrwt>
<rscale>  0 0.31815740E+04</rscale>
<asrwt>0</asrwt>
<pdfrwt beam="1">  1        2 0.18894221E+00 0.31815740E+04</pdfrwt>
<pdfrwt beam="2">  1       -2 0.31700666E+00 0.31815740E+04</pdfrwt>
<totfact> 0.38391359E-01</totfact>
</mgrwt>
</event>
<event>
12    1  0.1980523E-007  0.3232535E+04  0.7818608E-02  0.8180277E-01
          2   -1    0    0  501    0  0.00000000000E+00  0.00000000000E+00  0.77884286852E+03  0.77884286852E+03  0.00000000000E+00 0. -1.
         -2   -1    0    0    0  501 -0.00000000000E+00 -0.00000000000E+00 -0.33541052745E+04  0.33541052745E+04  0.00000000000E+00 0.  1.
         23    2    1    2    0    0 -0.48424370448E+03 -0.14083287936E+04 -0.11360041690E+04  0.18752677026E+04  0.90782864378E+02 0.  0.
        254    2    1    2    0    0  0.48424370448E+03  0.14083287936E+04 -0.14392582370E+04  0.22576804404E+04  0.89876289528E+03 0.  0.
        -24    2    4    4    0    0  0.63897875457E+03  0.93535877434E+03 -0.13168908116E+04  0.17388674273E+04  0.79174709131E+02 0.  0.
         24    2    4    4    0    0 -0.15473505009E+03  0.47297001924E+03 -0.12236742541E+03  0.51881301307E+03  0.80929481081E+02 0.  0.
         11    1    3    3    0    0 -0.38036272529E+03 -0.10385438258E+04 -0.80091480134E+03  0.13655451658E+04  0.00000000000E+00 0.  1.
        -11    1    3    3    0    0 -0.10388097919E+03 -0.36978496778E+03 -0.33508936762E+03  0.50972253680E+03  0.00000000000E+00 0. -1.
          4    1    6    6  502    0 -0.10730565496E+03  0.41463571211E+03 -0.94241837190E+02  0.43854167558E+03  0.00000000000E+00 0. -1.
          1    1    5    5  503    0  0.58628315186E+03  0.83244593770E+03 -0.11517813351E+04  0.15373010171E+04  0.00000000000E+00 0. -1.
         -2    1    5    5    0  503  0.52695602710E+02  0.10291283664E+03 -0.16510947644E+03  0.20156641014E+03  0.00000000000E+00 0.  1.
         -3    1    6    6    0  502 -0.47429395127E+02  0.58334307131E+02 -0.28125588218E+02  0.80271337494E+02  0.00000000000E+00 0.  1.
<mgrwt>
<rscale>  0 0.32325352E+04</rscale>
<asrwt>0</asrwt>
<pdfrwt beam="1">  1        2 0.11982198E+00 0.32325352E+04</pdfrwt>
<pdfrwt beam="2">  1       -2 0.51601619E+00 0.32325352E+04</pdfrwt>
<totfact> 0.39396351E-02</totfact>
</mgrwt>
</event>
<event>
12    1  0.1980523E-007  0.3012314E+04  0.7818608E-02  0.8240223E-01
         -1   -1    0    0    0  501 -0.00000000000E+00  0.00000000000E+00  0.21197618214E+04  0.21197618214E+04  0.00000000000E+00 0.  1.
          1   -1    0    0  501    0  0.00000000000E+00 -0.00000000000E+00 -0.10701713195E+04  0.10701713195E+04  0.00000000000E+00 0. -1.
         23    2    1    2    0    0  0.13114212581E+04  0.10881617589E+03  0.74683431688E+02  0.13210963243E+04  0.89728517852E+02 0.  0.
        254    2    1    2    0    0 -0.13114212581E+04 -0.10881617589E+03  0.97490707019E+03  0.18688368166E+04  0.90024473075E+03 0.  0.
        -24    2    4    4    0    0 -0.34713685831E+03  0.69580777657E+02 -0.13351887109E+03  0.38681299010E+03  0.80321338119E+02 0.  0.
         24    2    4    4    0    0 -0.96428439975E+03 -0.17839695354E+03  0.11084259413E+04  0.14820238265E+04  0.78209195661E+02 0.  0.
         13    1    3    3    0    0  0.91749527093E+03  0.10531907740E+03  0.81370396533E+02  0.92709806476E+03  0.00000000000E+00 0.  1.
        -13    1    3    3    0    0  0.39392598713E+03  0.34970984887E+01 -0.66869648449E+01  0.39399825956E+03  0.00000000000E+00 0. -1.
          2    1    6    6  502    0 -0.28895222354E+03 -0.53347871410E+02  0.27952005851E+03  0.40555005361E+03  0.00000000000E+00 0. -1.
          3    1    5    5  503    0 -0.96805786062E+02 -0.33279963579E+01 -0.66850841034E+02  0.11769227129E+03  0.00000000000E+00 0. -1.
         -4    1    5    5    0  503 -0.25033107225E+03  0.72908774015E+02 -0.66668030058E+02  0.26912071881E+03  0.00000000000E+00 0.  1.
         -1    1    6    6    0  502 -0.67533217622E+03 -0.12504908213E+03  0.82890588277E+03  0.10764737729E+04  0.00000000000E+00 0.  1.
<mgrwt>
<rscale>  0 0.30123136E+04</rscale>
<asrwt>0</asrwt>
<pdfrwt beam="1">  1        1 0.16464174E+00 0.30123136E+04</pdfrwt>
<pdfrwt beam="2">  1       -1 0.32611720E+00 0.30123136E+04</pdfrwt>
<totfact> 0.25341394E-01</totfact>
</mgrwt>
</event>
<event>
12    1  0.1980523E-007  0.1549988E+04  0.7818608E-02  0.8851876E-01
         -2   -1    0    0    0  501 -0.00000000000E+00  0.00000000000E+00  0.61540635348E+03  0.61540635348E+03  0.00000000000E+00 0. -1.
          2   -1    0    0  501    0  0.00000000000E+00 -0.00000000000E+00 -0.97596581985E+03  0.97596581985E+03  0.00000000000E+00 0.  1.
         23    2    1    2    0    0  0.27382309393E+02  0.29045626414E+03 -0.54250336626E+03  0.62829175700E+03  0.12379821185E+03 0.  0.
        254    2    1    2    0    0 -0.27382309393E+02 -0.29045626414E+03  0.18194389989E+03  0.96308041633E+03  0.89961418029E+03 0.  0.
        -24    2    4    4    0    0  0.17345964463E+03 -0.55034554845E+03  0.70932079301E+01  0.58260830501E+03  0.80085282393E+02 0.  0.
         24    2    4    4    0    0 -0.20084195402E+03  0.25988928431E+03  0.17485069196E+03  0.38047211132E+03  0.79412419846E+02 0.  0.
         11    1    3    3    0    0 -0.44452001523E+02  0.59455632385E+02 -0.10944946911E+03  0.13225028904E+03  0.00000000000E+00 0. -1.
        -11    1    3    3    0    0  0.71834310916E+02  0.23100063176E+03 -0.43305389715E+03  0.49604146796E+03  0.00000000000E+00 0.  1.
          2    1    6    6  502    0 -0.88488134556E+02  0.13066434968E+03  0.40778331228E+02  0.16299139404E+03  0.00000000000E+00 0. -1.
          3    1    5    5  503    0  0.52962649177E+02 -0.20442998557E+03  0.39625015504E+02  0.21486461565E+03  0.00000000000E+00 0. -1.
         -4    1    5    5    0  503  0.12049699545E+03 -0.34591556288E+03 -0.32531807574E+02  0.36774368936E+03  0.00000000000E+00 0.  1.
         -1    1    6    6    0  502 -0.11235381946E+03  0.12922493463E+03  0.13407236073E+03  0.21748071728E+03  0.00000000000E+00 0.  1.
<mgrwt>
<rscale>  0 0.15499878E+04</rscale>
<asrwt>0</asrwt>
<pdfrwt beam="1">  1        2 0.15014859E+00 0.15499878E+04</pdfrwt>
<pdfrwt beam="2">  1       -2 0.94677901E-01 0.15499878E+04</pdfrwt>
<totfact> 0.23613401E+01</totfact>
</mgrwt>
</event>
<event>
12    1  0.2416446E-007  0.1811628E+04  0.7818608E-02  0.8700140E-01
          2   -1    0    0  501    0  0.00000000000E+00  0.00000000000E+00  0.80377632796E+03  0.80377632796E+03  0.00000000000E+00 0. -1.
         -2   -1    0    0    0  501 -0.00000000000E+00 -0.00000000000E+00 -0.10208052905E+04  0.10208052905E+04  0.00000000000E+00 0.  1.
         23    2    1    2    0    0 -0.66707486630E+03 -0.80500803996E+02 -0.17183054417E+03  0.69938339242E+03  0.90233790732E+02 0.  0.
        254    2    1    2    0    0  0.66707486630E+03  0.80500803996E+02 -0.45198418321E+02  0.11251982260E+04  0.90142048683E+03 0.  0.
        -24    2    4    4    0    0 -0.11817689972E+03 -0.23152551587E+03  0.24748947043E+02  0.27348028082E+03  0.81296429749E+02 0.  0.
         24    2    4    4    0    0  0.78525176602E+03  0.31202631986E+03 -0.69947365364E+02  0.85171794518E+03  0.80932465007E+02 0.  0.
         11    1    3    3    0    0 -0.26319368036E+03  0.34389127441E+01 -0.94630814042E+02  0.27971008289E+03  0.00000000000E+00 0. -1.
        -11    1    3    3    0    0 -0.40388118594E+03 -0.83939716740E+02 -0.77199730128E+02  0.41967330953E+03  0.00000000000E+00 0.  1.
          2    1    6    6  502    0  0.50189639752E+03  0.15889164089E+03 -0.54489144504E+02  0.52925949615E+03  0.00000000000E+00 0. -1.
          3    1    5    5  503    0 -0.10970290567E+03 -0.14184491893E+03  0.35382368811E+02  0.18277478098E+03  0.00000000000E+00 0. -1.
         -4    1    5    5    0  503 -0.84739940504E+01 -0.89680596937E+02 -0.10633421768E+02  0.90705499837E+02  0.00000000000E+00 0.  1.
         -1    1    6    6    0  502  0.28335536850E+03  0.15313467897E+03 -0.15458220860E+02  0.32245844904E+03  0.00000000000E+00 0.  1.
<mgrwt>
<rscale>  0 0.18116281E+04</rscale>
<asrwt>0</asrwt>
<pdfrwt beam="1">  1        2 0.12365790E+00 0.18116281E+04</pdfrwt>
<pdfrwt beam="2">  1       -2 0.15704697E+00 0.18116281E+04</pdfrwt>
<totfact> 0.85510223E+00</totfact>
</mgrwt>
</event>
<event>
12    1  0.1980523E-007  0.1650964E+04  0.7818608E-02  0.8789836E-01
         -1   -1    0    0    0  501 -0.00000000000E+00  0.00000000000E+00  0.46722863447E+03  0.46722863447E+03  0.00000000000E+00 0.  1.
          1   -1    0    0  501    0  0.00000000000E+00 -0.00000000000E+00 -0.14584310255E+04  0.14584310255E+04  0.00000000000E+00 0. -1.
         23    2    1    2    0    0  0.41547904392E+03  0.34753193334E+03 -0.57724108966E+03  0.79689120932E+03  0.91798928546E+02 0.  0.
        254    2    1    2    0    0 -0.41547904392E+03 -0.34753193334E+03 -0.41396130133E+03  0.11287684506E+04  0.89964047010E+03 0.  0.
        -24    2    4    4    0    0  0.18054823105E+03 -0.95484618431E+02  0.15110500576E+03  0.26592471149E+03  0.78538228428E+02 0.  0.
         24    2    4    4    0    0 -0.59602727497E+03 -0.25204731491E+03 -0.56506630709E+03  0.86284373911E+03  0.80143778593E+02 0.  0.
         13    1    3    3    0    0  0.38363927601E+03  0.34729970171E+03 -0.54643927597E+03  0.75259023327E+03  0.00000000000E+00 0.  1.
        -13    1    3    3    0    0  0.31839767917E+02  0.23223163254E+00 -0.30801813690E+02  0.44300976052E+02  0.00000000000E+00 0. -1.
          4    1    6    6  502    0 -0.42788292135E+02 -0.10050668753E+02 -0.16262444088E+02  0.46864922639E+02  0.00000000000E+00 0. -1.
          3    1    5    5  503    0  0.29784239776E+02  0.83741671696E+00 -0.28009103580E+01  0.29927367152E+02  0.00000000000E+00 0. -1.
         -4    1    5    5    0  503  0.15076399127E+03 -0.96322035148E+02  0.15390591612E+03  0.23599734434E+03  0.00000000000E+00 0.  1.
         -3    1    6    6    0  502 -0.55323898284E+03 -0.24199664615E+03 -0.54880386300E+03  0.81597881647E+03  0.00000000000E+00 0.  1.
<mgrwt>
<rscale>  0 0.16509642E+04</rscale>
<asrwt>0</asrwt>
<pdfrwt beam="1">  1        1 0.22437400E+00 0.16509642E+04</pdfrwt>
<pdfrwt beam="2">  1       -1 0.71881328E-01 0.16509642E+04</pdfrwt>
<totfact> 0.13049566E+01</totfact>
</mgrwt>
</event>
<event>
12    1  0.1980523E-007  0.1617208E+04  0.7818608E-02  0.8810046E-01
          1   -1    0    0  501    0  0.00000000000E+00  0.00000000000E+00  0.82345022432E+03  0.82345022432E+03  0.00000000000E+00 0. -1.
         -1   -1    0    0    0  501 -0.00000000000E+00 -0.00000000000E+00 -0.79402500409E+03  0.79402500409E+03  0.00000000000E+00 0.  1.
         23    2    1    2    0    0 -0.46030306574E+03 -0.17968485829E+03 -0.23847490259E+03  0.55566786124E+03  0.87925719906E+02 0.  0.
        254    2    1    2    0    0  0.46030306574E+03  0.17968485829E+03  0.26790012281E+03  0.10618073672E+04  0.90083230879E+03 0.  0.
        -24    2    4    4    0    0  0.48674559562E+03 -0.26540673203E+03  0.23646400826E+03  0.60781629045E+03  0.78507372052E+02 0.  0.
         24    2    4    4    0    0 -0.26442529886E+02  0.44509159033E+03  0.31436114555E+02  0.45399107673E+03  0.79460287464E+02 0.  0.
         13    1    3    3    0    0 -0.11058928162E+03 -0.48096674176E+01 -0.46180542429E+02  0.11994067120E+03  0.00000000000E+00 0.  1.
        -13    1    3    3    0    0 -0.34971378412E+03 -0.17487519088E+03 -0.19229436016E+03  0.43572719003E+03  0.00000000000E+00 0. -1.
          2    1    6    6  502    0  0.13634620485E+02  0.68264425611E+02  0.27973206621E+02  0.75022896295E+02  0.00000000000E+00 0. -1.
          1    1    5    5  503    0  0.12217766438E+03 -0.29839168651E+02  0.58221713172E+02  0.13859121741E+03  0.00000000000E+00 0. -1.
         -2    1    5    5    0  503  0.36456793125E+03 -0.23556756338E+03  0.17824229509E+03  0.46922507304E+03  0.00000000000E+00 0.  1.
         -3    1    6    6    0  502 -0.40077150372E+02  0.37682716472E+03  0.34629079342E+01  0.37896818043E+03  0.00000000000E+00 0.  1.
<mgrwt>
<rscale>  0 0.16172076E+04</rscale>
<asrwt>0</asrwt>
<pdfrwt beam="1">  1        1 0.12668465E+00 0.16172076E+04</pdfrwt>
<pdfrwt beam="2">  1       -1 0.12215769E+00 0.16172076E+04</pdfrwt>
<totfact> 0.11981264E+01</totfact>
</mgrwt>
</event>
<event>
12    1  0.1980523E-007  0.2651772E+04  0.7818608E-02  0.8350825E-01
          2   -1    0    0  501    0  0.00000000000E+00  0.00000000000E+00  0.29226734467E+04  0.29226734467E+04  0.00000000000E+00 0.  1.
         -2   -1    0    0    0  501 -0.00000000000E+00 -0.00000000000E+00 -0.60149498433E+03  0.60149498433E+03  0.00000000000E+00 0. -1.
         23    2    1    2    0    0  0.23263684066E+03  0.11404663488E+04  0.85118069688E+03  0.14449303720E+04  0.92367790345E+02 0.  0.
        254    2    1    2    0    0 -0.23263684066E+03 -0.11404663488E+04  0.14699977655E+04  0.20792380591E+04  0.89864013007E+03 0.  0.
        -24    2    4    4    0    0  0.76110993087E+02  0.77691575767E+02 -0.11070660029E+02  0.13523910334E+03  0.79612758684E+02 0.  0.
         24    2    4    4    0    0 -0.30874783375E+03 -0.12181579246E+04  0.14810684255E+04  0.19439989558E+04  0.79588345768E+02 0.  0.
         11    1    3    3    0    0  0.81754247991E+02  0.60128735249E+03  0.47099925590E+03  0.76816048869E+03  0.00000000000E+00 0.  1.
        -11    1    3    3    0    0  0.15088259267E+03  0.53917899632E+03  0.38018144098E+03  0.67676988328E+03  0.00000000000E+00 0. -1.
          4    1    6    6  502    0 -0.88276369940E+02 -0.47311082360E+03  0.53036666542E+03  0.71618110048E+03  0.00000000000E+00 0. -1.
          1    1    5    5  503    0  0.15873899695E+02 -0.14601492686E+02  0.87215574741E+01  0.23264776916E+02  0.00000000000E+00 0. -1.
         -2    1    5    5    0  503  0.60237093392E+02  0.92293068452E+02 -0.19792217504E+02  0.11197432642E+03  0.00000000000E+00 0.  1.
         -1    1    6    6    0  502 -0.22047146381E+03 -0.74504710097E+03  0.95070176013E+03  0.12278178553E+04  0.00000000000E+00 0.  1.
<mgrwt>
<rscale>  0 0.26517718E+04</rscale>
<asrwt>0</asrwt>
<pdfrwt beam="1">  1        2 0.44964206E+00 0.26517718E+04</pdfrwt>
<pdfrwt beam="2">  1       -2 0.92537692E-01 0.26517718E+04</pdfrwt>
<totfact> 0.16973945E+00</totfact>
</mgrwt>
</event>
<event>
12    1  0.1980523E-007  0.1551894E+04  0.7818608E-02  0.8850659E-01
         -1   -1    0    0    0  501 -0.00000000000E+00  0.00000000000E+00  0.14901781299E+03  0.14901781299E+03  0.00000000000E+00 0. -1.
          1   -1    0    0  501    0  0.00000000000E+00 -0.00000000000E+00 -0.40404168862E+04  0.40404168862E+04  0.00000000000E+00 0.  1.
         23    2    1    2    0    0 -0.39579062580E+03 -0.10313478516E+03 -0.48047479697E+03  0.63781418298E+03  0.93080062862E+02 0.  0.
        254    2    1    2    0    0  0.39579062580E+03  0.10313478516E+03 -0.34109242762E+04  0.35516205162E+04  0.90128623064E+03 0.  0.
        -24    2    4    4    0    0 -0.99365673895E+02  0.37296728573E+03 -0.18055348045E+04  0.18481725738E+04  0.82509387869E+02 0.  0.
         24    2    4    4    0    0  0.49515629970E+03 -0.26983250057E+03 -0.16053894718E+04  0.17034479424E+04  0.80437533988E+02 0.  0.
         11    1    3    3    0    0 -0.81066146614E+02  0.13241975571E+02 -0.72377548792E+02  0.10947867195E+03  0.00000000000E+00 0. -1.
        -11    1    3    3    0    0 -0.31472447919E+03 -0.11637676073E+03 -0.40809724818E+03  0.52833551102E+03  0.00000000000E+00 0.  1.
          4    1    6    6  502    0  0.22786041056E+03 -0.95326700437E+02 -0.79369694479E+03  0.83124147315E+03  0.00000000000E+00 0. -1.
          1    1    5    5  503    0 -0.10996385687E+03  0.27651002948E+03 -0.13447005475E+04  0.13772325180E+04  0.00000000000E+00 0. -1.
         -4    1    5    5    0  503  0.10598182978E+02  0.96457256251E+02 -0.46083425701E+03  0.47094005584E+03  0.00000000000E+00 0.  1.
         -3    1    6    6    0  502  0.26729588914E+03 -0.17450580013E+03 -0.81169252697E+03  0.87220646923E+03  0.00000000000E+00 0.  1.
<mgrwt>
<rscale>  0 0.15518944E+04</rscale>
<asrwt>0</asrwt>
<pdfrwt beam="1">  1        1 0.62160265E+00 0.15518944E+04</pdfrwt>
<pdfrwt beam="2">  1       -1 0.22925815E-01 0.15518944E+04</pdfrwt>
<totfact> 0.14083200E+00</totfact>
</mgrwt>
</event>
<event>
12    1  0.1980523E-007  0.1103956E+04  0.7818608E-02  0.9201345E-01
         -2   -1    0    0    0  501 -0.00000000000E+00  0.00000000000E+00  0.26461833631E+03  0.26461833631E+03  0.00000000000E+00 0.  1.
          2   -1    0    0  501    0  0.00000000000E+00 -0.00000000000E+00 -0.11513922717E+04  0.11513922717E+04  0.00000000000E+00 0. -1.
         23    2    1    2    0    0  0.93980996879E+01  0.15341786398E+03 -0.11748125581E+03  0.21325062784E+03  0.89714098904E+02 0.  0.
        254    2    1    2    0    0 -0.93980996879E+01 -0.15341786398E+03 -0.76929267953E+03  0.12027599801E+04  0.91169895128E+03 0.  0.
        -24    2    4    4    0    0  0.14448423365E+03  0.31863043145E+03 -0.54400593313E+03  0.65174840584E+03  0.80202765578E+02 0.  0.
         24    2    4    4    0    0 -0.15388233334E+03 -0.47204829543E+03 -0.22528674640E+03  0.55101157430E+03  0.79688588720E+02 0.  0.
         11    1    3    3    0    0  0.36225209149E+02  0.14546482405E+03 -0.96590412441E+02  0.17833112065E+03  0.00000000000E+00 0. -1.
        -11    1    3    3    0    0 -0.26827109461E+02  0.79530399243E+01 -0.20890843374E+02  0.34919507198E+02  0.00000000000E+00 0.  1.
          2    1    6    6  502    0 -0.12478368060E+02 -0.36168596825E+02 -0.43750730533E+02  0.58120594352E+02  0.00000000000E+00 0. -1.
          1    1    5    5  503    0  0.26658879350E+01  0.20254830849E+02 -0.76529216096E+01  0.21815873587E+02  0.00000000000E+00 0. -1.
         -2    1    5    5    0  503  0.14181834572E+03  0.29837560060E+03 -0.53635301152E+03  0.62993253225E+03  0.00000000000E+00 0.  1.
         -1    1    6    6    0  502 -0.14140396528E+03 -0.43587969860E+03 -0.18153601587E+03  0.49289097994E+03  0.00000000000E+00 0.  1.
<mgrwt>
<rscale>  0 0.11039556E+04</rscale>
<asrwt>0</asrwt>
<pdfrwt beam="1">  1        2 0.17713727E+00 0.11039556E+04</pdfrwt>
<pdfrwt beam="2">  1       -2 0.40710514E-01 0.11039556E+04</pdfrwt>
<totfact> 0.11482889E+02</totfact>
</mgrwt>
</event>
<event>
12    1  0.1980523E-007  0.1395318E+04  0.7818608E-02  0.8957214E-01
         -2   -1    0    0    0  501 -0.00000000000E+00  0.00000000000E+00  0.29879117691E+03  0.29879117691E+03  0.00000000000E+00 0.  1.
          2   -1    0    0  501    0  0.00000000000E+00 -0.00000000000E+00 -0.16289914259E+04  0.16289914259E+04  0.00000000000E+00 0. -1.
         23    2    1    2    0    0 -0.74473408653E+00  0.15101955355E+03 -0.90515048075E+03  0.92192778090E+03  0.88577537792E+02 0.  0.
        254    2    1    2    0    0  0.74473408653E+00 -0.15101955355E+03 -0.42504976819E+03  0.10058548219E+04  0.89903790635E+03 0.  0.
        -24    2    4    4    0    0  0.34715565801E+03  0.88492997317E+01 -0.49343271808E+03  0.60874562114E+03  0.80622720105E+02 0.  0.
         24    2    4    4    0    0 -0.34641092392E+03 -0.15986885328E+03  0.68382949885E+02  0.39710920073E+03  0.86376565150E+02 0.  0.
         13    1    3    3    0    0 -0.44034967444E+02  0.70446127475E+02 -0.46702427952E+03  0.47435578725E+03  0.00000000000E+00 0.  1.
        -13    1    3    3    0    0  0.43290233358E+02  0.80573426071E+02 -0.43812620123E+03  0.44757199364E+03  0.00000000000E+00 0. -1.
          2    1    6    6  502    0 -0.30322576477E+03 -0.10769637047E+03  0.42379115290E+02  0.32456180004E+03  0.00000000000E+00 0. -1.
          3    1    5    5  503    0  0.19623586849E+03  0.42854980430E+02 -0.30047866383E+03  0.36143117304E+03  0.00000000000E+00 0. -1.
         -4    1    5    5    0  503  0.15091978952E+03 -0.34005680698E+02 -0.19295405424E+03  0.24731444810E+03  0.00000000000E+00 0.  1.
         -1    1    6    6    0  502 -0.43185159156E+02 -0.52172482803E+02  0.26003834595E+02  0.72547400690E+02  0.00000000000E+00 0.  1.
<mgrwt>
<rscale>  0 0.13953183E+04</rscale>
<asrwt>0</asrwt>
<pdfrwt beam="1">  1        2 0.25061407E+00 0.13953183E+04</pdfrwt>
<pdfrwt beam="2">  1       -2 0.45967873E-01 0.13953183E+04</pdfrwt>
<totfact> 0.46928484E+01</totfact>
</mgrwt>
</event>
<event>
12    1  0.1980523E-007  0.1680340E+04  0.7818608E-02  0.8772657E-01
         -2   -1    0    0    0  501 -0.00000000000E+00  0.00000000000E+00  0.35124536914E+03  0.35124536914E+03  0.00000000000E+00 0.  1.
          2   -1    0    0  501    0  0.00000000000E+00 -0.00000000000E+00 -0.20096658640E+04  0.20096658640E+04  0.00000000000E+00 0. -1.
         23    2    1    2    0    0 -0.34652600484E+03  0.17738663334E+03  0.37886416690E+02  0.40135239030E+03  0.90011504360E+02 0.  0.
        254    2    1    2    0    0  0.34652600484E+03 -0.17738663334E+03 -0.16963069116E+04  0.19595588429E+04  0.90048177697E+03 0.  0.
        -24    2    4    4    0    0  0.14687418769E+03 -0.34310902510E+03 -0.16383650283E+04  0.16822497062E+04  0.80176542248E+02 0.  0.
         24    2    4    4    0    0  0.19965181714E+03  0.16572239176E+03 -0.57941883245E+02  0.27730913663E+03  0.78856427804E+02 0.  0.
         11    1    3    3    0    0 -0.19953921624E+03  0.95856725960E+02  0.65854938223E+02  0.23095731990E+03  0.00000000000E+00 0.  1.
        -11    1    3    3    0    0 -0.14698678860E+03  0.81529907383E+02 -0.27968521533E+02  0.17039507040E+03  0.00000000000E+00 0. -1.
          4    1    6    6  502    0  0.19028375132E+03  0.17286696238E+03 -0.62677035584E+02  0.26461160875E+03  0.00000000000E+00 0. -1.
          1    1    5    5  503    0  0.14353013009E+03 -0.28829336702E+03 -0.14799857951E+04  0.15146193969E+04  0.00000000000E+00 0. -1.
         -2    1    5    5    0  503  0.33440576019E+01 -0.54815658086E+02 -0.15837923321E+03  0.16763030933E+03  0.00000000000E+00 0.  1.
         -3    1    6    6    0  502  0.93680658220E+01 -0.71445706153E+01  0.47351523390E+01  0.12697527877E+02  0.00000000000E+00 0.  1.
<mgrwt>
<rscale>  0 0.16803402E+04</rscale>
<asrwt>0</asrwt>
<pdfrwt beam="1">  1        2 0.30917936E+00 0.16803402E+04</pdfrwt>
<pdfrwt beam="2">  1       -2 0.54037749E-01 0.16803402E+04</pdfrwt>
<totfact> 0.20285245E+01</totfact>
</mgrwt>
</event>
<event>
12    1  0.1980523E-007  0.2510498E+04  0.7818608E-02  0.8399255E-01
         -2   -1    0    0    0  501 -0.00000000000E+00  0.00000000000E+00  0.15964402172E+04  0.15964402172E+04  0.00000000000E+00 0.  1.
          2   -1    0    0  501    0  0.00000000000E+00 -0.00000000000E+00 -0.98697729065E+03  0.98697729065E+03  0.00000000000E+00 0. -1.
         23    2    1    2    0    0  0.68890733295E+02 -0.10827677666E+04  0.39046659945E+03  0.11559371588E+04  0.81207020413E+02 0.  0.
        254    2    1    2    0    0 -0.68890733295E+02  0.10827677666E+04  0.21899632713E+03  0.14274803491E+04  0.90144816063E+03 0.  0.
        -24    2    4    4    0    0  0.12088390514E+03  0.89929323995E+03 -0.19282589012E+03  0.93103229892E+03  0.79360366535E+02 0.  0.
         24    2    4    4    0    0 -0.18977463843E+03  0.18347452666E+03  0.41182221726E+03  0.49644805021E+03  0.84769172515E+02 0.  0.
         11    1    3    3    0    0  0.51896577030E+02 -0.85248872877E+03  0.27147084074E+03  0.89617336758E+03  0.00000000000E+00 0. -1.
        -11    1    3    3    0    0  0.16994156265E+02 -0.23027903784E+03  0.11899575871E+03  0.25976379117E+03  0.00000000000E+00 0.  1.
          2    1    6    6  502    0 -0.14681936234E+02 -0.20609353694E+01  0.60393099156E+02  0.62186277681E+02  0.00000000000E+00 0. -1.
          1    1    5    5  503    0  0.39711234564E+02  0.17349740181E+03 -0.65738053251E+02  0.18973619114E+03  0.00000000000E+00 0. -1.
         -2    1    5    5    0  503  0.81172670574E+02  0.72579583814E+03 -0.12708783687E+03  0.74129610777E+03  0.00000000000E+00 0.  1.
         -1    1    6    6    0  502 -0.17509270220E+03  0.18553546203E+03  0.35142911810E+03  0.43426177253E+03  0.00000000000E+00 0.  1.
<mgrwt>
<rscale>  0 0.25104982E+04</rscale>
<asrwt>0</asrwt>
<pdfrwt beam="1">  1        2 0.15184266E+00 0.25104982E+04</pdfrwt>
<pdfrwt beam="2">  1       -2 0.24560619E+00 0.25104982E+04</pdfrwt>
<totfact> 0.15649901E+00</totfact>
</mgrwt>
</event>
<event>
12    1  0.1980523E-007  0.1880437E+04  0.7818608E-02  0.8664656E-01
         -1   -1    0    0    0  501 -0.00000000000E+00  0.00000000000E+00  0.64644136492E+03  0.64644136492E+03  0.00000000000E+00 0.  1.
          1   -1    0    0  501    0  0.00000000000E+00 -0.00000000000E+00 -0.13675041002E+04  0.13675041002E+04  0.00000000000E+00 0. -1.
         23    2    1    2    0    0 -0.11042692000E+03 -0.71276067962E+03 -0.32112825891E+03  0.79478715169E+03  0.91331083140E+02 0.  0.
        254    2    1    2    0    0  0.11042692000E+03  0.71276067962E+03 -0.39993447637E+03  0.12191583134E+04  0.89787388687E+03 0.  0.
        -24    2    4    4    0    0 -0.23822071776E+03  0.66595579341E+03 -0.46947026967E+03  0.85263088771E+03  0.79566748209E+02 0.  0.
         24    2    4    4    0    0  0.34864763777E+03  0.46804886209E+02  0.69535793307E+02  0.36652742571E+03  0.75902928510E+02 0.  0.
         13    1    3    3    0    0 -0.10063094460E+02 -0.93080814466E+02 -0.77048911777E+02  0.12125113895E+03  0.00000000000E+00 0. -1.
        -13    1    3    3    0    0 -0.10036382554E+03 -0.61967986515E+03 -0.24407934713E+03  0.67353601273E+03  0.00000000000E+00 0.  1.
          4    1    6    6  502    0  0.13507967710E+03 -0.38420507155E+01 -0.35707303916E+01  0.13518147297E+03  0.00000000000E+00 0. -1.
          3    1    5    5  503    0 -0.12919931427E+03  0.44199019821E+03 -0.27251536642E+03  0.53508169755E+03  0.00000000000E+00 0. -1.
         -4    1    5    5    0  503 -0.10902140350E+03  0.22396559520E+03 -0.19695490325E+03  0.31754919016E+03  0.00000000000E+00 0.  1.
         -3    1    6    6    0  502  0.21356796067E+03  0.50646936924E+02  0.73106523699E+02  0.23134595274E+03  0.00000000000E+00 0.  1.
<mgrwt>
<rscale>  0 0.18804374E+04</rscale>
<asrwt>0</asrwt>
<pdfrwt beam="1">  1        1 0.21038524E+00 0.18804374E+04</pdfrwt>
<pdfrwt beam="2">  1       -1 0.99452519E-01 0.18804374E+04</pdfrwt>
<totfact> 0.73259690E+00</totfact>
</mgrwt>
</event>
<event>
12    1  0.1980523E-007  0.2665912E+04  0.7818608E-02  0.8346151E-01
         -2   -1    0    0    0  501 -0.00000000000E+00  0.00000000000E+00  0.79222714722E+03  0.79222714722E+03  0.00000000000E+00 0.  1.
          2   -1    0    0  501    0  0.00000000000E+00 -0.00000000000E+00 -0.22427550803E+04  0.22427550803E+04  0.00000000000E+00 0. -1.
         23    2    1    2    0    0 -0.56770843339E+03  0.99392085745E+03 -0.32338540899E+03  0.11936607348E+04  0.10038072913E+03 0.  0.
        254    2    1    2    0    0  0.56770843339E+03 -0.99392085745E+03 -0.11271425240E+04  0.18413214927E+04  0.89991279234E+03 0.  0.
        -24    2    4    4    0    0  0.55079958841E+03 -0.12343958475E+03 -0.55665141724E+03  0.79679327356E+03  0.80007517096E+02 0.  0.
         24    2    4    4    0    0  0.16908844979E+02 -0.87048127270E+03 -0.57049110681E+03  0.10445282192E+04  0.86922623746E+02 0.  0.
         11    1    3    3    0    0 -0.38789269985E+02  0.13358466652E+03 -0.39412580698E+02  0.14457808310E+03  0.00000000000E+00 0.  1.
        -11    1    3    3    0    0 -0.52891916341E+03  0.86033619093E+03 -0.28397282829E+03  0.10490826517E+04  0.00000000000E+00 0. -1.
          2    1    6    6  502    0 -0.25144891309E+02 -0.58451253699E+03 -0.40363932445E+03  0.71078257977E+03  0.00000000000E+00 0. -1.
          3    1    5    5  503    0  0.12682359901E+03 -0.49513990430E+02 -0.97378942673E+02  0.16738733223E+03  0.00000000000E+00 0. -1.
         -4    1    5    5    0  503  0.42397598940E+03 -0.73925594319E+02 -0.45927247457E+03  0.62940594133E+03  0.00000000000E+00 0.  1.
         -1    1    6    6    0  502  0.42053736287E+02 -0.28596873570E+03 -0.16685178235E+03  0.33374563939E+03  0.00000000000E+00 0.  1.
<mgrwt>
<rscale>  0 0.26659118E+04</rscale>
<asrwt>0</asrwt>
<pdfrwt beam="1">  1        2 0.34503924E+00 0.26659118E+04</pdfrwt>
<pdfrwt beam="2">  1       -2 0.12188110E+00 0.26659118E+04</pdfrwt>
<totfact> 0.21950031E+00</totfact>
</mgrwt>
</event>
<event>
12    1  0.1980523E-007  0.3969183E+04  0.7818608E-02  0.8010792E-01
         -2   -1    0    0    0  501 -0.00000000000E+00  0.00000000000E+00  0.92696515605E+03  0.92696515605E+03  0.00000000000E+00 0.  1.
          2   -1    0    0  501    0  0.00000000000E+00 -0.00000000000E+00 -0.42489222215E+04  0.42489222215E+04  0.00000000000E+00 0. -1.
         23    2    1    2    0    0  0.22499555291E+03  0.18399017218E+04 -0.19990577315E+04  0.27277291347E+04  0.91722808824E+02 0.  0.
        254    2    1    2    0    0 -0.22499555291E+03 -0.18399017218E+04 -0.13228993339E+04  0.24481582428E+04  0.89864052296E+03 0.  0.
        -24    2    4    4    0    0 -0.88162596668E+01 -0.65621496448E+03 -0.10016088513E+04  0.12001845815E+04  0.80789433964E+02 0.  0.
         24    2    4    4    0    0 -0.21617929325E+03 -0.11836867573E+04 -0.32129048269E+03  0.12479736614E+04  0.79767530399E+02 0.  0.
         13    1    3    3    0    0  0.15185047151E+03  0.11469579030E+04 -0.13101566223E+04  0.17478791067E+04  0.00000000000E+00 0. -1.
        -13    1    3    3    0    0  0.73145081402E+02  0.69294381883E+03 -0.68890110925E+03  0.97985002797E+03  0.00000000000E+00 0.  1.
          4    1    6    6  502    0 -0.18450796826E+03 -0.10951558062E+04 -0.28039219048E+03  0.11454384360E+04  0.00000000000E+00 0. -1.
          1    1    5    5  503    0 -0.24560552454E+02 -0.61465655750E+03 -0.91064239960E+03  0.10989428940E+04  0.00000000000E+00 0. -1.
         -2    1    5    5    0  503  0.15744292788E+02 -0.41558406971E+02 -0.90966451657E+02  0.10124168742E+03  0.00000000000E+00 0.  1.
         -1    1    6    6    0  502 -0.31671324987E+02 -0.88530951111E+02 -0.40898292206E+02  0.10253522534E+03  0.00000000000E+00 0.  1.
<mgrwt>
<rscale>  0 0.39691827E+04</rscale>
<asrwt>0</asrwt>
<pdfrwt beam="1">  1        2 0.65368034E+00 0.39691827E+04</pdfrwt>
<pdfrwt beam="2">  1       -2 0.14261002E+00 0.39691827E+04</pdfrwt>
<totfact> 0.56736298E-02</totfact>
</mgrwt>
</event>
<event>
12    1  0.1980523E-007  0.1514510E+04  0.7818608E-02  0.8874861E-01
          3   -1    0    0  501    0  0.00000000000E+00  0.00000000000E+00  0.29794998074E+04  0.29794998074E+04  0.00000000000E+00 0. -1.
         -3   -1    0    0    0  501 -0.00000000000E+00 -0.00000000000E+00 -0.19246013698E+03  0.19246013698E+03  0.00000000000E+00 0.  1.
         23    2    1    2    0    0  0.19769024956E+03  0.41948938122E+03  0.61762118765E+03  0.77791122784E+03  0.92936382735E+02 0.  0.
        254    2    1    2    0    0 -0.19769024956E+03 -0.41948938122E+03  0.21694184827E+04  0.23940487165E+04  0.90002218195E+03 0.  0.
        -24    2    4    4    0    0  0.18927690933E+03  0.23844424723E+02  0.80551552918E+02  0.22245797183E+03  0.81269253449E+02 0.  0.
         24    2    4    4    0    0 -0.38696715889E+03 -0.44333380594E+03  0.20888669298E+04  0.21715907447E+04  0.78440208457E+02 0.  0.
         13    1    3    3    0    0  0.15180327437E+03  0.38212218186E+03  0.51011224882E+03  0.65519165317E+03  0.00000000000E+00 0.  1.
        -13    1    3    3    0    0  0.45886975191E+02  0.37367199358E+02  0.10750893882E+03  0.12271957467E+03  0.00000000000E+00 0. -1.
          2    1    6    6  502    0 -0.12677095959E+03 -0.12504355189E+03  0.51489206505E+03  0.54481244912E+03  0.00000000000E+00 0. -1.
          1    1    5    5  503    0  0.37524269700E+02  0.39173940223E+02  0.28628989455E+02  0.61337488100E+02  0.00000000000E+00 0. -1.
         -2    1    5    5    0  503  0.15175263963E+03 -0.15329515500E+02  0.51922563463E+02  0.16112048373E+03  0.00000000000E+00 0.  1.
         -1    1    6    6    0  502 -0.26019619930E+03 -0.31829025405E+03  0.15739748648E+04  0.16267782956E+04  0.00000000000E+00 0.  1.
<mgrwt>
<rscale>  0 0.15145097E+04</rscale>
<asrwt>0</asrwt>
<pdfrwt beam="1">  1        3 0.45838455E+00 0.15145097E+04</pdfrwt>
<pdfrwt beam="2">  1       -3 0.29609254E-01 0.15145097E+04</pdfrwt>
<totfact> 0.15734822E-01</totfact>
</mgrwt>
</event>
<event>
12    1  0.2643037E-007  0.2202018E+04  0.7818608E-02  0.8517589E-01
         -2   -1    0    0    0  501 -0.00000000000E+00  0.00000000000E+00  0.55490977059E+03  0.55490977059E+03  0.00000000000E+00 0.  1.
          2   -1    0    0  501    0  0.00000000000E+00 -0.00000000000E+00 -0.21845372004E+04  0.21845372004E+04  0.00000000000E+00 0. -1.
         23    2    1    2    0    0 -0.54989270983E+03 -0.64275995670E+03 -0.11097033707E+04  0.13987949191E+04  0.98302087797E+02 0.  0.
        254    2    1    2    0    0  0.54989270983E+03  0.64275995670E+03 -0.51992405907E+03  0.13406520519E+04  0.90083546928E+03 0.  0.
        -24    2    4    4    0    0  0.24449282866E+03  0.69409368113E+03 -0.66002199055E+03  0.99158669926E+03  0.77925430212E+02 0.  0.
         24    2    4    4    0    0  0.30539988117E+03 -0.51333724430E+02  0.14009793149E+03  0.34906535261E+03  0.79466667882E+02 0.  0.
         13    1    3    3    0    0 -0.23374550338E+03 -0.22956923097E+03 -0.36655287586E+03  0.49162994515E+03  0.00000000000E+00 0.  1.
        -13    1    3    3    0    0 -0.31614720645E+03 -0.41319072573E+03 -0.74315049487E+03  0.90716497397E+03  0.00000000000E+00 0. -1.
          4    1    6    6  502    0  0.30506997272E+03 -0.48310148765E+02  0.14659304083E+03  0.34189337278E+03  0.00000000000E+00 0. -1.
          3    1    5    5  503    0  0.21542029892E+03  0.65137140697E+03 -0.59209749232E+03  0.90623951327E+03  0.00000000000E+00 0. -1.
         -4    1    5    5    0  503  0.29072529744E+02  0.42722274166E+02 -0.67924498236E+02  0.85347185989E+02  0.00000000000E+00 0.  1.
         -3    1    6    6    0  502  0.32990845567E+00 -0.30235756648E+01 -0.64951093455E+01  0.71719798382E+01  0.00000000000E+00 0.  1.
<mgrwt>
<rscale>  0 0.22020182E+04</rscale>
<asrwt>0</asrwt>
<pdfrwt beam="1">  1        2 0.33608265E+00 0.22020182E+04</pdfrwt>
<pdfrwt beam="2">  1       -2 0.85370733E-01 0.22020182E+04</pdfrwt>
<totfact> 0.57432370E+00</totfact>
</mgrwt>
</event>
<event>
12    1  0.1980523E-007  0.1382016E+04  0.7818608E-02  0.8966940E-01
         -2   -1    0    0    0  501 -0.00000000000E+00  0.00000000000E+00  0.71535018249E+03  0.71535018249E+03  0.00000000000E+00 0.  1.
          2   -1    0    0  501    0  0.00000000000E+00 -0.00000000000E+00 -0.66749421503E+03  0.66749421503E+03  0.00000000000E+00 0. -1.
         23    2    1    2    0    0 -0.22016358351E+03 -0.29850644183E+03  0.13676798895E+03  0.40578453248E+03  0.91528709614E+02 0.  0.
        254    2    1    2    0    0  0.22016358351E+03  0.29850644183E+03 -0.88912021490E+02  0.97705986504E+03  0.89953462023E+03 0.  0.
        -24    2    4    4    0    0 -0.27070338251E+03  0.27692839757E+03  0.15243668087E+03  0.42390573332E+03  0.80557249140E+02 0.  0.
         24    2    4    4    0    0  0.49086696602E+03  0.21578044260E+02 -0.24134870236E+03  0.55315413171E+03  0.79462613738E+02 0.  0.
         11    1    3    3    0    0 -0.14942150670E+03 -0.25781256256E+03  0.12575924355E+03  0.32343390579E+03  0.00000000000E+00 0.  1.
        -11    1    3    3    0    0 -0.70742076808E+02 -0.40693879271E+02  0.11008745405E+02  0.82350626692E+02  0.00000000000E+00 0. -1.
          4    1    6    6  502    0  0.10417384418E+03  0.36441669845E+02 -0.62673524347E+02  0.12691790956E+03  0.00000000000E+00 0. -1.
          3    1    5    5  503    0 -0.14923831117E+02  0.19133107735E+02 -0.97869399922E+01  0.26164493904E+02  0.00000000000E+00 0. -1.
         -4    1    5    5    0  503 -0.25577955139E+03  0.25779528983E+03  0.16222362086E+03  0.39774123942E+03  0.00000000000E+00 0.  1.
         -3    1    6    6    0  502  0.38669312184E+03 -0.14863625585E+02 -0.17867517801E+03  0.42623622216E+03  0.00000000000E+00 0.  1.
<mgrwt>
<rscale>  0 0.13820161E+04</rscale>
<asrwt>0</asrwt>
<pdfrwt beam="1">  1        2 0.10269142E+00 0.13820161E+04</pdfrwt>
<pdfrwt beam="2">  1       -2 0.11005387E+00 0.13820161E+04</pdfrwt>
<totfact> 0.27822101E+01</totfact>
</mgrwt>
</event>
<event>
12    1  0.1980523E-007  0.1646518E+04  0.7818608E-02  0.8792469E-01
          1   -1    0    0  501    0  0.00000000000E+00  0.00000000000E+00  0.68576334519E+03  0.68576334519E+03  0.00000000000E+00 0. -1.
         -1   -1    0    0    0  501 -0.00000000000E+00 -0.00000000000E+00 -0.98832232105E+03  0.98832232105E+03  0.00000000000E+00 0.  1.
         23    2    1    2    0    0 -0.19263662558E+02 -0.34150621303E+03  0.35798089378E+03  0.50352823750E+03  0.91612135726E+02 0.  0.
        254    2    1    2    0    0  0.19263662558E+02  0.34150621303E+03 -0.66053986964E+03  0.11705574287E+04  0.90382199152E+03 0.  0.
        -24    2    4    4    0    0 -0.40453139404E+03  0.11414777928E+03 -0.49828807080E+03  0.65673205563E+03  0.79565238046E+02 0.  0.
         24    2    4    4    0    0  0.42379505660E+03  0.22735843375E+03 -0.16225179883E+03  0.51382537311E+03  0.79979750127E+02 0.  0.
         13    1    3    3    0    0  0.30770830623E+02 -0.18037239265E+03  0.15688738028E+03  0.24102840940E+03  0.00000000000E+00 0.  1.
        -13    1    3    3    0    0 -0.50034493180E+02 -0.16113382038E+03  0.20109351350E+03  0.26249982810E+03  0.00000000000E+00 0. -1.
          2    1    6    6  502    0  0.35905028830E+03  0.21730355586E+03 -0.15700661761E+03  0.44809488157E+03  0.00000000000E+00 0. -1.
          1    1    5    5  503    0 -0.16841705405E+03  0.29685656743E+02 -0.25724557858E+03  0.30890262221E+03  0.00000000000E+00 0. -1.
         -2    1    5    5    0  503 -0.23611433999E+03  0.84462122537E+02 -0.24104249223E+03  0.34782943342E+03  0.00000000000E+00 0.  1.
         -1    1    6    6    0  502  0.64744768301E+02  0.10054877889E+02 -0.52451812240E+01  0.65730491537E+02  0.00000000000E+00 0.  1.
<mgrwt>
<rscale>  0 0.16465178E+04</rscale>
<asrwt>0</asrwt>
<pdfrwt beam="1">  1        1 0.10550205E+00 0.16465178E+04</pdfrwt>
<pdfrwt beam="2">  1       -1 0.15204959E+00 0.16465178E+04</pdfrwt>
<totfact> 0.90360339E+00</totfact>
</mgrwt>
</event>
<event>
12    1  0.1980523E-007  0.1662988E+04  0.7818608E-02  0.8782760E-01
         -2   -1    0    0    0  501 -0.00000000000E+00  0.00000000000E+00  0.43701643028E+03  0.43701643028E+03  0.00000000000E+00 0.  1.
          2   -1    0    0  501    0  0.00000000000E+00 -0.00000000000E+00 -0.15820504054E+04  0.15820504054E+04  0.00000000000E+00 0. -1.
         23    2    1    2    0    0  0.17365186191E+03 -0.38070760775E+03 -0.89775709866E+03  0.99459619560E+03  0.90335664929E+02 0.  0.
        254    2    1    2    0    0 -0.17365186191E+03  0.38070760775E+03 -0.24727687645E+03  0.10244706401E+04  0.90183201706E+03 0.  0.
        -24    2    4    4    0    0  0.30433522563E+03  0.18682724875E+02  0.95902896093E+02  0.32874434607E+03  0.76853795112E+02 0.  0.
         24    2    4    4    0    0 -0.47798708754E+03  0.36202488287E+03 -0.34317977254E+03  0.69572629399E+03  0.82030775926E+02 0.  0.
         13    1    3    3    0    0  0.34675661961E+02 -0.10110960002E+03 -0.14926583770E+03  0.18359151139E+03  0.00000000000E+00 0. -1.
        -13    1    3    3    0    0  0.13897619995E+03 -0.27959800773E+03 -0.74849126096E+03  0.81100468421E+03  0.00000000000E+00 0.  1.
          4    1    6    6  502    0 -0.14658589260E+03  0.11704663134E+03 -0.15194132483E+03  0.24139905552E+03  0.00000000000E+00 0. -1.
          3    1    5    5  503    0  0.75618274907E+02  0.37946218831E+02  0.19368768162E+02  0.86793941053E+02  0.00000000000E+00 0. -1.
         -4    1    5    5    0  503  0.22871695073E+03 -0.19263493956E+02  0.76534127930E+02  0.24195040502E+03  0.00000000000E+00 0.  1.
         -3    1    6    6    0  502 -0.33140119494E+03  0.24497825153E+03 -0.19123844771E+03  0.45432723847E+03  0.00000000000E+00 0.  1.
<mgrwt>
<rscale>  0 0.16629877E+04</rscale>
<asrwt>0</asrwt>
<pdfrwt beam="1">  1        2 0.24339237E+00 0.16629877E+04</pdfrwt>
<pdfrwt beam="2">  1       -2 0.67233297E-01 0.16629877E+04</pdfrwt>
<totfact> 0.22102372E+01</totfact>
</mgrwt>
</event>
<event>
12    1  0.1980523E-007  0.2746148E+04  0.7818608E-02  0.8320185E-01
         -1   -1    0    0    0  501 -0.00000000000E+00  0.00000000000E+00  0.95304793869E+03  0.95304793869E+03  0.00000000000E+00 0.  1.
          1   -1    0    0  501    0  0.00000000000E+00 -0.00000000000E+00 -0.19782138879E+04  0.19782138879E+04  0.00000000000E+00 0. -1.
         23    2    1    2    0    0  0.98683278619E+03 -0.71965994281E+03 -0.38627762320E+03  0.12843765015E+04  0.93076389346E+02 0.  0.
        254    2    1    2    0    0 -0.98683278619E+03  0.71965994281E+03 -0.63888832598E+03  0.16468853250E+04  0.90127886894E+03 0.  0.
        -24    2    4    4    0    0 -0.65239507530E+03  0.54972714653E+03  0.50110013113E+02  0.85828600153E+03  0.79527209793E+02 0.  0.
         24    2    4    4    0    0 -0.33443771088E+03  0.16993279628E+03 -0.68899833910E+03  0.78859932352E+03  0.80277294818E+02 0.  0.
         11    1    3    3    0    0  0.30587212481E+03 -0.19997924576E+03 -0.75681938712E+02  0.37319862181E+03  0.00000000000E+00 0.  1.
        -11    1    3    3    0    0  0.68096066137E+03 -0.51968069706E+03 -0.31059568449E+03  0.91117787970E+03  0.00000000000E+00 0. -1.
          2    1    6    6  502    0 -0.32673386745E+03  0.14495801039E+03 -0.63892372813E+03  0.73211431845E+03  0.00000000000E+00 0. -1.
          1    1    5    5  503    0 -0.21025403876E+03  0.22011743714E+03 -0.14301248507E+01  0.30440185973E+03  0.00000000000E+00 0. -1.
         -2    1    5    5    0  503 -0.44214103655E+03  0.32960970939E+03  0.51540137963E+02  0.55388414180E+03  0.00000000000E+00 0.  1.
         -1    1    6    6    0  502 -0.77038434374E+01  0.24974785895E+02 -0.50074610967E+02  0.56485005069E+02  0.00000000000E+00 0.  1.
<mgrwt>
<rscale>  0 0.27461483E+04</rscale>
<asrwt>0</asrwt>
<pdfrwt beam="1">  1        1 0.30434060E+00 0.27461483E+04</pdfrwt>
<pdfrwt beam="2">  1       -1 0.14662276E+00 0.27461483E+04</pdfrwt>
<totfact> 0.99450504E-01</totfact>
</mgrwt>
</event>
<event>
12    1  0.1980523E-007  0.4333365E+04  0.7818608E-02  0.7940477E-01
         -2   -1    0    0    0  501 -0.00000000000E+00  0.00000000000E+00  0.17132199936E+04  0.17132199936E+04  0.00000000000E+00 0.  1.
          2   -1    0    0  501    0  0.00000000000E+00 -0.00000000000E+00 -0.27401699077E+04  0.27401699077E+04  0.00000000000E+00 0. -1.
         23    2    1    2    0    0  0.15948191342E+04 -0.89418415454E+03  0.51046401380E+03  0.19005260177E+04  0.91718381821E+02 0.  0.
        254    2    1    2    0    0 -0.15948191342E+04  0.89418415454E+03 -0.15374139279E+04  0.25528638835E+04  0.90025499124E+03 0.  0.
        -24    2    4    4    0    0 -0.45063269690E+01  0.31778754685E+02  0.82308535438E+02  0.12329149812E+03  0.85999431807E+02 0.  0.
         24    2    4    4    0    0 -0.15903128072E+04  0.86240539985E+03 -0.16197224633E+04  0.24295723854E+04  0.80518440894E+02 0.  0.
         11    1    3    3    0    0  0.38229367012E+03 -0.24798691991E+03  0.99575807293E+02  0.46643467287E+03  0.00000000000E+00 0. -1.
        -11    1    3    3    0    0  0.12125254641E+04 -0.64619723462E+03  0.41088820651E+03  0.14340913448E+04  0.00000000000E+00 0.  1.
          4    1    6    6  502    0 -0.45545692142E+03  0.28377128228E+03 -0.50370989046E+03  0.73599646851E+03  0.00000000000E+00 0. -1.
          1    1    5    5  503    0 -0.27608336664E+02 -0.20362312685E+02  0.25052477775E+02  0.42479061594E+02  0.00000000000E+00 0. -1.
         -2    1    5    5    0  503  0.23102009695E+02  0.52141067370E+02  0.57256057663E+02  0.80812436528E+02  0.00000000000E+00 0.  1.
         -3    1    6    6    0  502 -0.11348558858E+04  0.57863411757E+03 -0.11160125728E+04  0.16935759169E+04  0.00000000000E+00 0.  1.
<mgrwt>
<rscale>  0 0.43333654E+04</rscale>
<asrwt>0</asrwt>
<pdfrwt beam="1">  1        2 0.42156460E+00 0.43333654E+04</pdfrwt>
<pdfrwt beam="2">  1       -2 0.26357231E+00 0.43333654E+04</pdfrwt>
<totfact> 0.10235851E-01</totfact>
</mgrwt>
</event>
<event>
12    1  0.1980523E-007  0.3018643E+04  0.7818608E-02  0.8238427E-01
          1   -1    0    0  501    0  0.00000000000E+00  0.00000000000E+00  0.16022065075E+04  0.16022065075E+04  0.00000000000E+00 0. -1.
         -1   -1    0    0    0  501 -0.00000000000E+00 -0.00000000000E+00 -0.14218217819E+04  0.14218217819E+04  0.00000000000E+00 0.  1.
         23    2    1    2    0    0  0.58405080101E+03  0.12264138954E+04 -0.10614033845E+03  0.13654680236E+04  0.89614569772E+02 0.  0.
        254    2    1    2    0    0 -0.58405080101E+03 -0.12264138954E+04  0.28652506409E+03  0.16585602657E+04  0.90747956544E+03 0.  0.
        -24    2    4    4    0    0 -0.44560026299E+03 -0.20874552143E+03  0.37622791915E+03  0.62456391990E+03  0.79989723115E+02 0.  0.
         24    2    4    4    0    0 -0.13845053802E+03 -0.10176683740E+04 -0.89702855059E+02  0.10339963458E+04  0.79274019117E+02 0.  0.
         11    1    3    3    0    0  0.21409850365E+03  0.54734130088E+03 -0.60133942202E+02  0.59079333097E+03  0.00000000000E+00 0. -1.
        -11    1    3    3    0    0  0.36995229736E+03  0.67907259453E+03 -0.46006396251E+02  0.77467469267E+03  0.00000000000E+00 0.  1.
          2    1    6    6  502    0 -0.68143911115E+02 -0.24739327060E+03 -0.24692579786E+02  0.25779206050E+03  0.00000000000E+00 0. -1.
          3    1    5    5  503    0 -0.49319734142E+02  0.20489637317E+01  0.44064027111E+02  0.66168519052E+02  0.00000000000E+00 0. -1.
         -4    1    5    5    0  503 -0.39628052885E+03 -0.21079448517E+03  0.33216389204E+03  0.55839540085E+03  0.00000000000E+00 0.  1.
         -1    1    6    6    0  502 -0.70306626904E+02 -0.77027510338E+03 -0.65010275273E+02  0.77620428533E+03  0.00000000000E+00 0.  1.
<mgrwt>
<rscale>  0 0.30186435E+04</rscale>
<asrwt>0</asrwt>
<pdfrwt beam="1">  1        1 0.24649331E+00 0.30186435E+04</pdfrwt>
<pdfrwt beam="2">  1       -1 0.21874181E+00 0.30186435E+04</pdfrwt>
<totfact> 0.53021435E-01</totfact>
</mgrwt>
</event>
<event>
12    1  0.1980523E-007  0.2916906E+04  0.7818608E-02  0.8267865E-01
          2   -1    0    0  501    0  0.00000000000E+00  0.00000000000E+00  0.30225211563E+04  0.30225211563E+04  0.00000000000E+00 0. -1.
         -2   -1    0    0    0  501 -0.00000000000E+00 -0.00000000000E+00 -0.70374545562E+03  0.70374545562E+03  0.00000000000E+00 0.  1.
         23    2    1    2    0    0 -0.60262756856E+03  0.11057223428E+04  0.55366955828E+03  0.13777699092E+04  0.76928910725E+02 0.  0.
        254    2    1    2    0    0  0.60262756856E+03 -0.11057223428E+04  0.17651061424E+04  0.23484967027E+04  0.90225006682E+03 0.  0.
        -24    2    4    4    0    0  0.53280190242E+03 -0.37682903108E+03  0.13533282048E+04  0.15045294048E+04  0.78952607419E+02 0.  0.
         24    2    4    4    0    0  0.69825666140E+02 -0.72889331168E+03  0.41177793759E+03  0.84396729787E+03  0.80985471140E+02 0.  0.
         11    1    3    3    0    0 -0.28760646186E+03  0.60370369896E+03  0.30696254736E+03  0.73579999900E+03  0.00000000000E+00 0. -1.
        -11    1    3    3    0    0 -0.31502110669E+03  0.50201864379E+03  0.24670701092E+03  0.64196991021E+03  0.00000000000E+00 0.  1.
          4    1    6    6  502    0  0.15799116463E+02 -0.52847400535E+03  0.30828095665E+03  0.61202249522E+03  0.00000000000E+00 0. -1.
          3    1    5    5  503    0  0.26501093251E+03 -0.18608630692E+03  0.58128211159E+03  0.66539296752E+03  0.00000000000E+00 0. -1.
         -4    1    5    5    0  503  0.26779096991E+03 -0.19074272416E+03  0.77204609320E+03  0.83913643731E+03  0.00000000000E+00 0.  1.
         -3    1    6    6    0  502  0.54026549676E+02 -0.20041930632E+03  0.10349698094E+03  0.23194480266E+03  0.00000000000E+00 0.  1.
<mgrwt>
<rscale>  0 0.29169063E+04</rscale>
<asrwt>0</asrwt>
<pdfrwt beam="1">  1        2 0.46500325E+00 0.29169063E+04</pdfrwt>
<pdfrwt beam="2">  1       -2 0.10826853E+00 0.29169063E+04</pdfrwt>
<totfact> 0.99114176E-01</totfact>
</mgrwt>
</event>
<event>
12    1  0.1980523E-007  0.4952720E+04  0.7818608E-02  0.7835842E-01
          2   -1    0    0  501    0  0.00000000000E+00  0.00000000000E+00  0.23171946890E+04  0.23171946890E+04  0.00000000000E+00 0. -1.
         -2   -1    0    0    0  501 -0.00000000000E+00 -0.00000000000E+00 -0.26464577693E+04  0.26464577693E+04  0.00000000000E+00 0.  1.
         23    2    1    2    0    0 -0.14665096596E+03  0.23224326300E+04  0.40160429490E+03  0.23633260143E+04  0.93936221745E+02 0.  0.
        254    2    1    2    0    0  0.14665096596E+03 -0.23224326300E+04 -0.73086737526E+03  0.26003264440E+04  0.90129388574E+03 0.  0.
        -24    2    4    4    0    0  0.46063213522E+03 -0.93916455870E+03 -0.12538959306E+03  0.10559923032E+04  0.72008068725E+02 0.  0.
         24    2    4    4    0    0 -0.31398116926E+03 -0.13832680713E+04 -0.60547778220E+03  0.15443341408E+04  0.79686022191E+02 0.  0.
         13    1    3    3    0    0 -0.99270871277E+02  0.18463376290E+04  0.28458672446E+03  0.18707770979E+04  0.00000000000E+00 0. -1.
        -13    1    3    3    0    0 -0.47380094685E+02  0.47609500098E+03  0.11701757045E+03  0.49254891648E+03  0.00000000000E+00 0.  1.
          2    1    6    6  502    0 -0.14137221811E+03 -0.45306762352E+03 -0.20256484202E+03  0.51603186991E+03  0.00000000000E+00 0. -1.
          1    1    5    5  503    0  0.24285997081E+03 -0.51479686441E+03 -0.10325107447E+03  0.57849594761E+03  0.00000000000E+00 0. -1.
         -2    1    5    5    0  503  0.21777216441E+03 -0.42436769429E+03 -0.22138518585E+02  0.47749635554E+03  0.00000000000E+00 0.  1.
         -1    1    6    6    0  502 -0.17260895114E+03 -0.93020044776E+03 -0.40291294018E+03  0.10283022709E+04  0.00000000000E+00 0.  1.
<mgrwt>
<rscale>  0 0.49527196E+04</rscale>
<asrwt>0</asrwt>
<pdfrwt beam="1">  1        2 0.35649149E+00 0.49527196E+04</pdfrwt>
<pdfrwt beam="2">  1       -2 0.40714735E+00 0.49527196E+04</pdfrwt>
<totfact> 0.21602318E-02</totfact>
</mgrwt>
</event>
<event>
12    1  0.1980523E-007  0.3403870E+04  0.7818608E-02  0.8136957E-01
          2   -1    0    0  501    0  0.00000000000E+00  0.00000000000E+00  0.17308120973E+04  0.17308120973E+04  0.00000000000E+00 0. -1.
         -2   -1    0    0    0  501 -0.00000000000E+00 -0.00000000000E+00 -0.16735392369E+04  0.16735392369E+04  0.00000000000E+00 0.  1.
         23    2    1    2    0    0  0.13711769340E+04 -0.27878824728E+03  0.76344418548E+03  0.15965178773E+04  0.90405956107E+02 0.  0.
        254    2    1    2    0    0 -0.13711769340E+04  0.27878824728E+03 -0.70617132506E+03  0.18078334569E+04  0.90096326030E+03 0.  0.
        -24    2    4    4    0    0 -0.65204340793E+03  0.10802805902E+03 -0.81901376520E+03  0.10558925952E+04  0.85410523772E+02 0.  0.
         24    2    4    4    0    0 -0.71913352607E+03  0.17076018826E+03  0.11284244014E+03  0.75194086174E+03  0.79809605030E+02 0.  0.
         13    1    3    3    0    0  0.78505221761E+03 -0.19736247748E+03  0.46944013267E+03  0.93575262225E+03  0.00000000000E+00 0. -1.
        -13    1    3    3    0    0  0.58612471639E+03 -0.81425769795E+02  0.29400405281E+03  0.66076525500E+03  0.00000000000E+00 0.  1.
          2    1    6    6  502    0 -0.21387485479E+02  0.32873365743E+00  0.16984809600E+02  0.27313300022E+02  0.00000000000E+00 0. -1.
          1    1    5    5  503    0 -0.42903013314E+02  0.17360589712E+01 -0.91691400173E+02  0.10124719906E+03  0.00000000000E+00 0. -1.
         -2    1    5    5    0  503 -0.60914039462E+03  0.10629200005E+03 -0.72732236502E+03  0.95464539610E+03  0.00000000000E+00 0.  1.
         -1    1    6    6    0  502 -0.69774604059E+03  0.17043145460E+03  0.95857630538E+02  0.72462756172E+03  0.00000000000E+00 0.  1.
<mgrwt>
<rscale>  0 0.34038695E+04</rscale>
<asrwt>0</asrwt>
<pdfrwt beam="1">  1        2 0.26627878E+00 0.34038695E+04</pdfrwt>
<pdfrwt beam="2">  1       -2 0.25746758E+00 0.34038695E+04</pdfrwt>
<totfact> 0.45145569E-01</totfact>
</mgrwt>
</event>
<event>
12    1  0.1980523E-007  0.2661242E+04  0.7818608E-02  0.8347691E-01
         -2   -1    0    0    0  501 -0.00000000000E+00  0.00000000000E+00  0.13462903883E+04  0.13462903883E+04  0.00000000000E+00 0.  1.
          2   -1    0    0  501    0  0.00000000000E+00 -0.00000000000E+00 -0.13151336631E+04  0.13151336631E+04  0.00000000000E+00 0. -1.
         23    2    1    2    0    0 -0.52144834344E+03 -0.41055953450E+03  0.98583822727E+03  0.11919172001E+04  0.91225518362E+02 0.  0.
        254    2    1    2    0    0  0.52144834344E+03  0.41055953450E+03 -0.95468150210E+03  0.14695068514E+04  0.89864682141E+03 0.  0.
        -24    2    4    4    0    0  0.91962214231E+02 -0.18766563238E+03 -0.61580220966E+03  0.65496958959E+03  0.78085616092E+02 0.  0.
         24    2    4    4    0    0  0.42948612921E+03  0.59822516688E+03 -0.33887929244E+03  0.81453726182E+03  0.79373109877E+02 0.  0.
         13    1    3    3    0    0 -0.18376189338E+03 -0.15771444257E+03  0.28584045924E+03  0.37462921268E+03  0.00000000000E+00 0. -1.
        -13    1    3    3    0    0 -0.33768645006E+03 -0.25284509193E+03  0.69999776802E+03  0.81728798737E+03  0.00000000000E+00 0.  1.
          2    1    6    6  502    0  0.22614886565E+03  0.34273341822E+03 -0.14903973820E+03  0.43683217483E+03  0.00000000000E+00 0. -1.
          3    1    5    5  503    0  0.45419336003E+02 -0.27306852754E+02 -0.10584030220E+03  0.11836701339E+03  0.00000000000E+00 0. -1.
         -4    1    5    5    0  503  0.46542878228E+02 -0.16035877963E+03 -0.50996190746E+03  0.53660257620E+03  0.00000000000E+00 0.  1.
         -1    1    6    6    0  502  0.20333726357E+03  0.25549174865E+03 -0.18983955424E+03  0.37770508699E+03  0.00000000000E+00 0.  1.
<mgrwt>
<rscale>  0 0.26612417E+04</rscale>
<asrwt>0</asrwt>
<pdfrwt beam="1">  1        2 0.20232825E+00 0.26612417E+04</pdfrwt>
<pdfrwt beam="2">  1       -2 0.20712160E+00 0.26612417E+04</pdfrwt>
<totfact> 0.17039278E+00</totfact>
</mgrwt>
</event>
<event>
12    1  0.1980523E-007  0.1124715E+04  0.7818608E-02  0.9181432E-01
          2   -1    0    0  501    0  0.00000000000E+00  0.00000000000E+00  0.91712941952E+03  0.91712941952E+03  0.00000000000E+00 0. -1.
         -2   -1    0    0    0  501 -0.00000000000E+00 -0.00000000000E+00 -0.34482140262E+03  0.34482140262E+03  0.00000000000E+00 0.  1.
         23    2    1    2    0    0  0.17676961306E+03  0.31318803142E+02  0.62001102788E+02  0.21270665222E+03  0.95768573248E+02 0.  0.
        254    2    1    2    0    0 -0.17676961306E+03 -0.31318803142E+02  0.51030691411E+03  0.10492441699E+04  0.89903938623E+03 0.  0.
        -24    2    4    4    0    0  0.19692410212E+03  0.65698927809E+02 -0.15820236613E+03  0.27302541844E+03  0.80121403868E+02 0.  0.
         24    2    4    4    0    0 -0.37369371518E+03 -0.97017730951E+02  0.66850928024E+03  0.77621875148E+03  0.80941086592E+02 0.  0.
         13    1    3    3    0    0  0.73833147477E+01 -0.16500648788E+01  0.37685032064E+02  0.38436931361E+02  0.00000000000E+00 0. -1.
        -13    1    3    3    0    0  0.16938629831E+03  0.32968868021E+02  0.24316070724E+02  0.17426972086E+03  0.00000000000E+00 0.  1.
          2    1    6    6  502    0 -0.32696025998E+03 -0.10270503274E+03  0.54229434055E+03  0.64150953785E+03  0.00000000000E+00 0. -1.
          3    1    5    5  503    0  0.49577744839E+02  0.54342112660E+02 -0.39639719324E+02  0.83560309596E+02  0.00000000000E+00 0. -1.
         -4    1    5    5    0  503  0.14734635728E+03  0.11356815149E+02 -0.11856264681E+03  0.18946510885E+03  0.00000000000E+00 0.  1.
         -1    1    6    6    0  502 -0.46733455193E+02  0.56873017863E+01  0.12621493969E+03  0.13470921363E+03  0.00000000000E+00 0.  1.
<mgrwt>
<rscale>  0 0.11247148E+04</rscale>
<asrwt>0</asrwt>
<pdfrwt beam="1">  1        2 0.14109683E+00 0.11247148E+04</pdfrwt>
<pdfrwt beam="2">  1       -2 0.53049447E-01 0.11247148E+04</pdfrwt>
<totfact> 0.94848293E+01</totfact>
</mgrwt>
</event>
<event>
12    1  0.1980523E-007  0.2630009E+04  0.7818608E-02  0.8358079E-01
          2   -1    0    0  501    0  0.00000000000E+00  0.00000000000E+00  0.81215782523E+03  0.81215782523E+03  0.00000000000E+00 0. -1.
         -2   -1    0    0    0  501 -0.00000000000E+00 -0.00000000000E+00 -0.21291876491E+04  0.21291876491E+04  0.00000000000E+00 0.  1.
         23    2    1    2    0    0  0.11109493124E+04 -0.29204037093E+02 -0.94137327202E+03  0.14597022494E+04  0.97394912950E+02 0.  0.
        254    2    1    2    0    0 -0.11109493124E+04  0.29204037093E+02 -0.37565655184E+03  0.14816432250E+04  0.90503455773E+03 0.  0.
        -24    2    4    4    0    0 -0.19506704826E+02  0.27691508416E+02 -0.37759515888E+03  0.38740150794E+03  0.79715074934E+02 0.  0.
         24    2    4    4    0    0 -0.10914426075E+04  0.15125286773E+01  0.19386070390E+01  0.10942417170E+04  0.78178793566E+02 0.  0.
         11    1    3    3    0    0  0.90035815094E+03 -0.58842987500E+02 -0.74193918746E+03  0.11681528389E+04  0.00000000000E+00 0.  1.
        -11    1    3    3    0    0  0.21059116143E+03  0.29638950407E+02 -0.19943408457E+03  0.29154941046E+03  0.00000000000E+00 0. -1.
          2    1    6    6  502    0 -0.33061881179E+03 -0.26912797099E+01  0.36392474033E+02  0.33262659825E+03  0.00000000000E+00 0. -1.
          3    1    5    5  503    0 -0.19776960630E+02  0.63628808786E+01 -0.18941026525E+02  0.28113642785E+02  0.00000000000E+00 0. -1.
         -4    1    5    5    0  503  0.27025580443E+00  0.21328627537E+02 -0.35865413235E+03  0.35928786515E+03  0.00000000000E+00 0.  1.
         -1    1    6    6    0  502 -0.76082379576E+03  0.42038083872E+01 -0.34453866994E+02  0.76161511877E+03  0.00000000000E+00 0.  1.
<mgrwt>
<rscale>  0 0.26300087E+04</rscale>
<asrwt>0</asrwt>
<pdfrwt beam="1">  1        2 0.12494736E+00 0.26300087E+04</pdfrwt>
<pdfrwt beam="2">  1       -2 0.32756732E+00 0.26300087E+04</pdfrwt>
<totfact> 0.64036115E-01</totfact>
</mgrwt>
</event>
<event>
12    1  0.1980523E-007  0.2298331E+04  0.7818608E-02  0.8478580E-01
          2   -1    0    0  501    0  0.00000000000E+00  0.00000000000E+00  0.18448354844E+04  0.18448354844E+04  0.00000000000E+00 0. -1.
         -2   -1    0    0    0  501 -0.00000000000E+00 -0.00000000000E+00 -0.71582600382E+03  0.71582600382E+03  0.00000000000E+00 0.  1.
         23    2    1    2    0    0  0.28993211965E+03  0.92263623878E+03  0.39270993398E+03  0.10477434795E+04  0.90703050937E+02 0.  0.
        254    2    1    2    0    0 -0.28993211965E+03 -0.92263623878E+03  0.73629954663E+03  0.15129180088E+04  0.90081386299E+03 0.  0.
        -24    2    4    4    0    0 -0.30324628996E+03 -0.82514018750E+03  0.92968572070E+03  0.12820197666E+04  0.80277650933E+02 0.  0.
         24    2    4    4    0    0  0.13314170310E+02 -0.97496051280E+02 -0.19338617407E+03  0.23089824218E+03  0.78949596401E+02 0.  0.
         11    1    3    3    0    0  0.20807906531E+03  0.65053191860E+03  0.32107504434E+03  0.75470382180E+03  0.00000000000E+00 0. -1.
        -11    1    3    3    0    0  0.81853054338E+02  0.27210432017E+03  0.71634889632E+02  0.29303965768E+03  0.00000000000E+00 0.  1.
          2    1    6    6  502    0  0.40242166007E+02 -0.82388402138E+02 -0.16593650445E+03  0.18958429323E+03  0.00000000000E+00 0. -1.
          3    1    5    5  503    0 -0.24926397632E+03 -0.57260390481E+03  0.65506635479E+03  0.90505231389E+03  0.00000000000E+00 0. -1.
         -4    1    5    5    0  503 -0.53982313638E+02 -0.25253628269E+03  0.27461936591E+03  0.37696745269E+03  0.00000000000E+00 0.  1.
         -1    1    6    6    0  502 -0.26927995698E+02 -0.15107649142E+02 -0.27449669620E+02  0.41313948941E+02  0.00000000000E+00 0.  1.
<mgrwt>
<rscale>  0 0.22983309E+04</rscale>
<asrwt>0</asrwt>
<pdfrwt beam="1">  1        2 0.28382084E+00 0.22983309E+04</pdfrwt>
<pdfrwt beam="2">  1       -2 0.11012708E+00 0.22983309E+04</pdfrwt>
<totfact> 0.48407817E+00</totfact>
</mgrwt>
</event>
<event>
12    1  0.1980523E-007  0.2314081E+04  0.7818608E-02  0.8472390E-01
         -1   -1    0    0    0  501 -0.00000000000E+00  0.00000000000E+00  0.10479112657E+04  0.10479112657E+04  0.00000000000E+00 0.  1.
          1   -1    0    0  501    0  0.00000000000E+00 -0.00000000000E+00 -0.12775341981E+04  0.12775341981E+04  0.00000000000E+00 0. -1.
         23    2    1    2    0    0  0.70969832030E+03 -0.14947781890E+02  0.58052765511E+03  0.92167704845E+03  0.92634125836E+02 0.  0.
        254    2    1    2    0    0 -0.70969832030E+03  0.14947781890E+02 -0.81015058756E+03  0.14037684153E+04  0.90018145248E+03 0.  0.
        -24    2    4    4    0    0 -0.44150179935E+03  0.13128917090E+03  0.69884887153E+02  0.47300627490E+03  0.81794580645E+02 0.  0.
         24    2    4    4    0    0 -0.26819652095E+03 -0.11634138901E+03 -0.88003547471E+03  0.93076214044E+03  0.79943934662E+02 0.  0.
         13    1    3    3    0    0  0.33458540751E+03 -0.37803811766E+02  0.31896106098E+03  0.46380241647E+03  0.00000000000E+00 0.  1.
        -13    1    3    3    0    0  0.37511291279E+03  0.22856029876E+02  0.26156659412E+03  0.45787463197E+03  0.00000000000E+00 0. -1.
          2    1    6    6  502    0 -0.19552969226E+03 -0.51800246308E+02 -0.65795132208E+03  0.68834226101E+03  0.00000000000E+00 0. -1.
          3    1    5    5  503    0 -0.43377975680E+03  0.11565165397E+03  0.74242671030E+02  0.45502984152E+03  0.00000000000E+00 0. -1.
         -4    1    5    5    0  503 -0.77220425499E+01  0.15637516927E+02 -0.43577838773E+01  0.17976433381E+02  0.00000000000E+00 0.  1.
         -1    1    6    6    0  502 -0.72666828690E+02 -0.64541142698E+02 -0.22208415263E+03  0.24241987943E+03  0.00000000000E+00 0.  1.
<mgrwt>
<rscale>  0 0.23140808E+04</rscale>
<asrwt>0</asrwt>
<pdfrwt beam="1">  1        1 0.19654372E+00 0.23140808E+04</pdfrwt>
<pdfrwt beam="2">  1       -1 0.16121712E+00 0.23140808E+04</pdfrwt>
<totfact> 0.24249327E+00</totfact>
</mgrwt>
</event>
<event>
12    1  0.1980523E-007  0.2529264E+04  0.7818608E-02  0.8392634E-01
          2   -1    0    0  501    0  0.00000000000E+00  0.00000000000E+00  0.70449531621E+03  0.70449531621E+03  0.00000000000E+00 0. -1.
         -2   -1    0    0    0  501 -0.00000000000E+00 -0.00000000000E+00 -0.22701277202E+04  0.22701277202E+04  0.00000000000E+00 0.  1.
         23    2    1    2    0    0  0.99422280480E+03  0.19819937364E+03 -0.11941295731E+04  0.15691450090E+04  0.92242314703E+02 0.  0.
        254    2    1    2    0    0 -0.99422280480E+03 -0.19819937364E+03 -0.37150283088E+03  0.14054780274E+04  0.89977339085E+03 0.  0.
        -24    2    4    4    0    0  0.15601534095E+03 -0.88059754545E+02 -0.48730153804E+02  0.20255149092E+03  0.80976364459E+02 0.  0.
         24    2    4    4    0    0 -0.11502381458E+04 -0.11013961909E+03 -0.32277267708E+03  0.12029265365E+04  0.87587233552E+02 0.  0.
         11    1    3    3    0    0  0.86316908385E+03  0.19987478165E+03 -0.10173257110E+04  0.13490598200E+04  0.00000000000E+00 0. -1.
        -11    1    3    3    0    0  0.13105372095E+03 -0.16754080130E+01 -0.17680386212E+03  0.22008518902E+03  0.00000000000E+00 0.  1.
          2    1    6    6  502    0 -0.11312122390E+04 -0.99538017634E+02 -0.32461380364E+03  0.11810686128E+04  0.00000000000E+00 0. -1.
          1    1    5    5  503    0  0.95513252786E+02 -0.63235595940E+02  0.95598848418E+01  0.11494743777E+03  0.00000000000E+00 0. -1.
         -2    1    5    5    0  503  0.60502088166E+02 -0.24824158605E+02 -0.58290038646E+02  0.87604053150E+02  0.00000000000E+00 0.  1.
         -1    1    6    6    0  502 -0.19025906767E+02 -0.10601601457E+02  0.18411265600E+01  0.21857923707E+02  0.00000000000E+00 0.  1.
<mgrwt>
<rscale>  0 0.25292642E+04</rscale>
<asrwt>0</asrwt>
<pdfrwt beam="1">  1        2 0.10838389E+00 0.25292642E+04</pdfrwt>
<pdfrwt beam="2">  1       -2 0.34925042E+00 0.25292642E+04</pdfrwt>
<totfact> 0.56898179E-01</totfact>
</mgrwt>
</event>
<event>
12    1  0.1980523E-007  0.2792379E+04  0.7818608E-02  0.8305638E-01
          2   -1    0    0  501    0  0.00000000000E+00  0.00000000000E+00  0.20784392430E+04  0.20784392430E+04  0.00000000000E+00 0. -1.
         -2   -1    0    0    0  501 -0.00000000000E+00 -0.00000000000E+00 -0.93788922314E+03  0.93788922314E+03  0.00000000000E+00 0.  1.
         23    2    1    2    0    0 -0.58346266397E+02 -0.85797970572E+03 -0.45982382372E+03  0.97935780939E+03  0.90389754504E+02 0.  0.
        254    2    1    2    0    0  0.58346266397E+02  0.85797970572E+03  0.16003738436E+04  0.20369706568E+04  0.92115121182E+03 0.  0.
        -24    2    4    4    0    0  0.32911710463E+03  0.78595274229E+03  0.75055879093E+03  0.11384546085E+04  0.81857285960E+02 0.  0.
         24    2    4    4    0    0 -0.27077083824E+03  0.72026963438E+02  0.84981505270E+03  0.89851604831E+03  0.81490704873E+02 0.  0.
         13    1    3    3    0    0 -0.69369956473E+02 -0.52591742616E+03 -0.25025445821E+03  0.58653953307E+03  0.00000000000E+00 0.  1.
        -13    1    3    3    0    0  0.11023690076E+02 -0.33206227956E+03 -0.20956936551E+03  0.39281827632E+03  0.00000000000E+00 0. -1.
          2    1    6    6  502    0 -0.82027563079E+02 -0.15841623919E+02  0.23524319697E+03  0.24963741681E+03  0.00000000000E+00 0. -1.
          3    1    5    5  503    0  0.27749205730E+03  0.71854543794E+03  0.69048501169E+03  0.10344461995E+04  0.00000000000E+00 0. -1.
         -4    1    5    5    0  503  0.51625047332E+02  0.67407304350E+02  0.60073779239E+02  0.10400840901E+03  0.00000000000E+00 0.  1.
         -1    1    6    6    0  502 -0.18874327516E+03  0.87868587357E+02  0.61457185573E+03  0.64887863150E+03  0.00000000000E+00 0.  1.
<mgrwt>
<rscale>  0 0.27923795E+04</rscale>
<asrwt>0</asrwt>
<pdfrwt beam="1">  1        2 0.31975988E+00 0.27923795E+04</pdfrwt>
<pdfrwt beam="2">  1       -2 0.14429065E+00 0.27923795E+04</pdfrwt>
<totfact> 0.17459813E+00</totfact>
</mgrwt>
</event>
<event>
12    1  0.2332350E-007  0.2880170E+04  0.7818608E-02  0.8278802E-01
          2   -1    0    0  501    0  0.00000000000E+00  0.00000000000E+00  0.21180039727E+04  0.21180039727E+04  0.00000000000E+00 0. -1.
         -2   -1    0    0    0  501 -0.00000000000E+00 -0.00000000000E+00 -0.97915088803E+03  0.97915088803E+03  0.00000000000E+00 0.  1.
         23    2    1    2    0    0 -0.84013958994E+03 -0.59163104191E+03  0.13724435934E+04  0.17168840062E+04  0.90705311214E+02 0.  0.
        254    2    1    2    0    0  0.84013958994E+03  0.59163104191E+03 -0.23359050877E+03  0.13802708544E+04  0.89147141597E+03 0.  0.
        -24    2    4    4    0    0  0.87496827335E+03  0.75558485852E+03 -0.12810145033E+03  0.11660366509E+04  0.82179875640E+02 0.  0.
         24    2    4    4    0    0 -0.34828683413E+02 -0.16395381661E+03 -0.10548905844E+03  0.21423420350E+03  0.81697376501E+02 0.  0.
         11    1    3    3    0    0 -0.25957151418E+03 -0.23518189792E+03  0.47092594902E+03  0.58690641975E+03  0.00000000000E+00 0.  1.
        -11    1    3    3    0    0 -0.58056807576E+03 -0.35644914399E+03  0.90151764438E+03  0.11299775865E+04  0.00000000000E+00 0. -1.
          2    1    6    6  502    0 -0.53786607601E+02 -0.74413425297E+02 -0.33311008253E+02  0.97672822692E+02  0.00000000000E+00 0. -1.
          3    1    5    5  503    0  0.43834748196E+03  0.33451951513E+03 -0.85121847181E+02  0.55794045364E+03  0.00000000000E+00 0. -1.
         -4    1    5    5    0  503  0.43662079140E+03  0.42106534340E+03 -0.42979603153E+02  0.60809619730E+03  0.00000000000E+00 0.  1.
         -1    1    6    6    0  502  0.18957924188E+02 -0.89540391316E+02 -0.72178050186E+02  0.11656138080E+03  0.00000000000E+00 0.  1.
<mgrwt>
<rscale>  0 0.28801705E+04</rscale>
<asrwt>0</asrwt>
<pdfrwt beam="1">  1        2 0.32584676E+00 0.28801705E+04</pdfrwt>
<pdfrwt beam="2">  1       -2 0.15063860E+00 0.28801705E+04</pdfrwt>
<totfact> 0.14703528E+00</totfact>
</mgrwt>
</event>
<event>
12    1  0.1980523E-007  0.1661999E+04  0.7818608E-02  0.8783339E-01
          1   -1    0    0  501    0  0.00000000000E+00  0.00000000000E+00  0.15762684759E+04  0.15762684759E+04  0.00000000000E+00 0. -1.
         -1   -1    0    0    0  501 -0.00000000000E+00 -0.00000000000E+00 -0.43809828183E+03  0.43809828183E+03  0.00000000000E+00 0.  1.
         23    2    1    2    0    0  0.14001497239E+03 -0.17626129170E+03 -0.24759178763E+03  0.34610453195E+03  0.88399198468E+02 0.  0.
        254    2    1    2    0    0 -0.14001497239E+03  0.17626129170E+03  0.13857619817E+04  0.16682622258E+04  0.90116055650E+03 0.  0.
        -24    2    4    4    0    0  0.26024788767E+02 -0.17306993611E+03 -0.33393290767E+02  0.19518712935E+03  0.79702014922E+02 0.  0.
         24    2    4    4    0    0 -0.16603976116E+03  0.34933122781E+03  0.14191552725E+04  0.14730750964E+04  0.79668333330E+02 0.  0.
         11    1    3    3    0    0  0.12068606615E+03 -0.94111085368E+02 -0.12677382319E+03  0.19873003094E+03  0.00000000000E+00 0. -1.
        -11    1    3    3    0    0  0.19328906247E+02 -0.82150206333E+02 -0.12081796444E+03  0.14737450101E+03  0.00000000000E+00 0.  1.
          2    1    6    6  502    0 -0.15083726524E+03  0.27759087762E+03  0.12371591733E+04  0.12768599750E+04  0.00000000000E+00 0. -1.
          1    1    5    5  503    0  0.37495149848E+02 -0.90759630815E+02 -0.50370950668E+02  0.11036498321E+03  0.00000000000E+00 0. -1.
         -2    1    5    5    0  503 -0.11470361081E+02 -0.82310305293E+02  0.16977659901E+02  0.84822146144E+02  0.00000000000E+00 0.  1.
         -1    1    6    6    0  502 -0.15202495917E+02  0.71740350193E+02  0.18199609921E+03  0.19621512138E+03  0.00000000000E+00 0.  1.
<mgrwt>
<rscale>  0 0.16619994E+04</rscale>
<asrwt>0</asrwt>
<pdfrwt beam="1">  1        1 0.24250284E+00 0.16619994E+04</pdfrwt>
<pdfrwt beam="2">  1       -1 0.67399736E-01 0.16619994E+04</pdfrwt>
<totfact> 0.12331002E+01</totfact>
</mgrwt>
</event>
<event>
12    1  0.1980523E-007  0.1641184E+04  0.7818608E-02  0.8795639E-01
         -1   -1    0    0    0  501 -0.00000000000E+00  0.00000000000E+00  0.12753517144E+04  0.12753517144E+04  0.00000000000E+00 0.  1.
          1   -1    0    0  501    0  0.00000000000E+00 -0.00000000000E+00 -0.52798857708E+03  0.52798857708E+03  0.00000000000E+00 0. -1.
         23    2    1    2    0    0 -0.19904942075E+03  0.20007180231E+03  0.80506830133E+03  0.85797063733E+03  0.91264706899E+02 0.  0.
        254    2    1    2    0    0  0.19904942075E+03 -0.20007180231E+03 -0.57705164012E+02  0.94536965416E+03  0.90041351560E+03 0.  0.
        -24    2    4    4    0    0  0.48652952836E+03  0.87823156478E+02  0.82200804130E+02  0.50746208015E+03  0.79604659438E+02 0.  0.
         24    2    4    4    0    0 -0.28748010761E+03 -0.28789495879E+03 -0.13990596814E+03  0.43790757401E+03  0.81615218470E+02 0.  0.
         11    1    3    3    0    0 -0.67153957490E+02  0.56304188499E+02  0.14265549247E+03  0.16742283351E+03  0.00000000000E+00 0. -1.
        -11    1    3    3    0    0 -0.13189546326E+03  0.14376761381E+03  0.66241280887E+03  0.69054780382E+03  0.00000000000E+00 0.  1.
          2    1    6    6  502    0 -0.88594497920E+02 -0.61563779538E+02 -0.70001722246E+02  0.12860530755E+03  0.00000000000E+00 0. -1.
          1    1    5    5  503    0  0.45367736696E+03  0.60219156678E+02  0.79084906272E+02  0.46443936367E+03  0.00000000000E+00 0. -1.
         -2    1    5    5    0  503  0.32852161399E+02  0.27603999800E+02  0.31158978587E+01  0.43022716476E+02  0.00000000000E+00 0.  1.
         -1    1    6    6    0  502 -0.19888560969E+03 -0.22633117925E+03 -0.69904245897E+02  0.30930226646E+03  0.00000000000E+00 0.  1.
<mgrwt>
<rscale>  0 0.16411839E+04</rscale>
<asrwt>0</asrwt>
<pdfrwt beam="1">  1        1 0.81229012E-01 0.16411839E+04</pdfrwt>
<pdfrwt beam="2">  1       -1 0.19620796E+00 0.16411839E+04</pdfrwt>
<totfact> 0.62810162E+00</totfact>
</mgrwt>
</event>
<event>
12    1  0.1980523E-007  0.2557853E+04  0.7818608E-02  0.8382660E-01
         -2   -1    0    0    0  501 -0.00000000000E+00  0.00000000000E+00  0.59610136663E+03  0.59610136663E+03  0.00000000000E+00 0. -1.
          2   -1    0    0  501    0  0.00000000000E+00 -0.00000000000E+00 -0.27439165766E+04  0.27439165766E+04  0.00000000000E+00 0.  1.
         23    2    1    2    0    0  0.98557232289E+03 -0.25837571974E+02 -0.16386896040E+04  0.19144705720E+04  0.88733133230E+02 0.  0.
        254    2    1    2    0    0 -0.98557232289E+03  0.25837571974E+02 -0.50912560599E+03  0.14255473713E+04  0.89496147475E+03 0.  0.
        -24    2    4    4    0    0 -0.87557964721E+03 -0.23393172445E+03 -0.63184459616E+03  0.11076362203E+04  0.79162064944E+02 0.  0.
         24    2    4    4    0    0 -0.10999267568E+03  0.25976929642E+03  0.12271899017E+03  0.31791115097E+03  0.80181502199E+02 0.  0.
         13    1    3    3    0    0  0.29924840022E+03 -0.15675833003E+02 -0.57799701284E+03  0.65105751176E+03  0.00000000000E+00 0.  1.
        -13    1    3    3    0    0  0.68632392268E+03 -0.10161738971E+02 -0.10606925912E+04  0.12634130602E+04  0.00000000000E+00 0. -1.
          4    1    6    6  502    0 -0.44450970000E+02  0.19302218823E+03  0.98837784528E+02  0.22136477031E+03  0.00000000000E+00 0. -1.
          3    1    5    5  503    0 -0.74301455949E+03 -0.19749714549E+03 -0.56900926716E+03  0.95647650479E+03  0.00000000000E+00 0. -1.
         -4    1    5    5    0  503 -0.13256508772E+03 -0.36434578959E+02 -0.62835328998E+02  0.15115971552E+03  0.00000000000E+00 0.  1.
         -3    1    6    6    0  502 -0.65541705684E+02  0.66747108193E+02  0.23881205638E+02  0.96546380662E+02  0.00000000000E+00 0.  1.
<mgrwt>
<rscale>  0 0.25578526E+04</rscale>
<asrwt>0</asrwt>
<pdfrwt beam="1">  1        2 0.42214102E+00 0.25578526E+04</pdfrwt>
<pdfrwt beam="2">  1       -2 0.91707900E-01 0.25578526E+04</pdfrwt>
<totfact> 0.22446175E+00</totfact>
</mgrwt>
</event>
<event>
12    1  0.1980523E-007  0.1524033E+04  0.7818608E-02  0.8868627E-01
          2   -1    0    0  501    0  0.00000000000E+00  0.00000000000E+00  0.92379466102E+03  0.92379466102E+03  0.00000000000E+00 0. -1.
         -2   -1    0    0    0  501 -0.00000000000E+00 -0.00000000000E+00 -0.62856915165E+03  0.62856915165E+03  0.00000000000E+00 0.  1.
         23    2    1    2    0    0  0.18013523816E+03  0.30469257510E+03 -0.24999008087E+03  0.44299376205E+03  0.91990017574E+02 0.  0.
        254    2    1    2    0    0 -0.18013523816E+03 -0.30469257510E+03  0.54521559025E+03  0.11093700506E+04  0.89897474937E+03 0.  0.
        -24    2    4    4    0    0 -0.11270450452E+03 -0.57967110112E+03  0.55619860169E+03  0.81493310290E+03  0.77705771118E+02 0.  0.
         24    2    4    4    0    0 -0.67430733634E+02  0.27497852602E+03 -0.10983011444E+02  0.29443694772E+03  0.80077437727E+02 0.  0.
         11    1    3    3    0    0  0.13439570253E+03  0.23085441507E+03 -0.13620510922E+03  0.29984628995E+03  0.00000000000E+00 0. -1.
        -11    1    3    3    0    0  0.45739535624E+02  0.73838160033E+02 -0.11378497166E+03  0.14314747211E+03  0.00000000000E+00 0.  1.
          2    1    6    6  502    0 -0.79292825932E+02  0.21549842897E+03 -0.28302644514E+02  0.23136111345E+03  0.00000000000E+00 0. -1.
          1    1    5    5  503    0 -0.18896436265E+02 -0.21540619359E+03  0.24467854948E+03  0.32653406578E+03  0.00000000000E+00 0. -1.
         -2    1    5    5    0  503 -0.93808068259E+02 -0.36426490753E+03  0.31152005222E+03  0.48839903712E+03  0.00000000000E+00 0.  1.
         -1    1    6    6    0  502  0.11862092298E+02  0.59480097047E+02  0.17319633070E+02  0.63075834264E+02  0.00000000000E+00 0.  1.
<mgrwt>
<rscale>  0 0.15240326E+04</rscale>
<asrwt>0</asrwt>
<pdfrwt beam="1">  1        2 0.14212226E+00 0.15240326E+04</pdfrwt>
<pdfrwt beam="2">  1       -2 0.96702946E-01 0.15240326E+04</pdfrwt>
<totfact> 0.24371477E+01</totfact>
</mgrwt>
</event>
<event>
12    1  0.1980523E-007  0.5357288E+04  0.7818608E-02  0.7775637E-01
          2   -1    0    0  501    0  0.00000000000E+00  0.00000000000E+00  0.43889681456E+04  0.43889681456E+04  0.00000000000E+00 0. -1.
         -2   -1    0    0    0  501 -0.00000000000E+00 -0.00000000000E+00 -0.16348113275E+04  0.16348113275E+04  0.00000000000E+00 0.  1.
         23    2    1    2    0    0  0.24884281784E+04  0.49021629705E+03  0.68428659996E+03  0.26283542857E+04  0.86088811575E+02 0.  0.
        254    2    1    2    0    0 -0.24884281784E+04 -0.49021629705E+03  0.20698702181E+04  0.33954251873E+04  0.90108971036E+03 0.  0.
        -24    2    4    4    0    0 -0.51255350803E+03  0.24816616839E+03  0.53271993147E+03  0.78424069565E+03  0.83339052094E+02 0.  0.
         24    2    4    4    0    0 -0.19758746704E+04 -0.73838246544E+03  0.15371502866E+04  0.26111844917E+04  0.78511576742E+02 0.  0.
         13    1    3    3    0    0  0.22864168874E+04  0.46657045147E+03  0.61144090781E+03  0.24123122005E+04  0.00000000000E+00 0. -1.
        -13    1    3    3    0    0  0.20201129102E+03  0.23645845585E+02  0.72845692150E+02  0.21604208520E+03  0.00000000000E+00 0.  1.
          2    1    6    6  502    0 -0.85400593471E+03 -0.28528735499E+03  0.62817941809E+03  0.10978726669E+04  0.00000000000E+00 0. -1.
          1    1    5    5  503    0 -0.14263966579E+03  0.42069343814E+02  0.17718871440E+03  0.23132605658E+03  0.00000000000E+00 0. -1.
         -2    1    5    5    0  503 -0.36991384224E+03  0.20609682457E+03  0.35553121707E+03  0.55291463906E+03  0.00000000000E+00 0.  1.
         -1    1    6    6    0  502 -0.11218687357E+04 -0.45309511045E+03  0.90897086856E+03  0.15133118248E+04  0.00000000000E+00 0.  1.
<mgrwt>
<rscale>  0 0.53572884E+04</rscale>
<asrwt>0</asrwt>
<pdfrwt beam="1">  1        2 0.67522586E+00 0.53572884E+04</pdfrwt>
<pdfrwt beam="2">  1       -2 0.25150944E+00 0.53572884E+04</pdfrwt>
<totfact> 0.69341343E-03</totfact>
</mgrwt>
</event>
<event>
12    1  0.1980523E-007  0.1136017E+04  0.7818608E-02  0.9170781E-01
          2   -1    0    0  501    0  0.00000000000E+00  0.00000000000E+00  0.97872848050E+03  0.97872848050E+03  0.00000000000E+00 0. -1.
         -2   -1    0    0    0  501 -0.00000000000E+00 -0.00000000000E+00 -0.32964592637E+03  0.32964592637E+03  0.00000000000E+00 0.  1.
         23    2    1    2    0    0 -0.71349418957E+02 -0.15419329372E+03  0.30216104716E+03  0.35898074322E+03  0.93271454196E+02 0.  0.
        254    2    1    2    0    0  0.71349418957E+02  0.15419329372E+03  0.34692150698E+03  0.94939366365E+03  0.86725283808E+03 0.  0.
        -24    2    4    4    0    0 -0.19085219945E+03 -0.24461371115E+03  0.33726118818E+03  0.46530365604E+03  0.80634691960E+02 0.  0.
         24    2    4    4    0    0  0.26220161841E+03  0.39880700487E+03  0.96603187945E+01  0.48409000761E+03  0.80331176264E+02 0.  0.
         13    1    3    3    0    0 -0.60834712801E+02 -0.14727194095E+03  0.30668113719E+03  0.34560556532E+03  0.00000000000E+00 0. -1.
        -13    1    3    3    0    0 -0.10514706157E+02 -0.69213527765E+01 -0.45200900361E+01  0.13375177896E+02  0.00000000000E+00 0.  1.
          4    1    6    6  502    0  0.13163634492E+03  0.14573165790E+03  0.29699580921E+02  0.19861497558E+03  0.00000000000E+00 0. -1.
          3    1    5    5  503    0 -0.63611249857E+02 -0.98356924115E+02  0.74686339145E+02  0.13891913074E+03  0.00000000000E+00 0. -1.
         -4    1    5    5    0  503 -0.12724094959E+03 -0.14625678704E+03  0.26257484904E+03  0.32638452530E+03  0.00000000000E+00 0.  1.
         -3    1    6    6    0  502  0.13056527348E+03  0.25307534698E+03 -0.20039262127E+02  0.28547503203E+03  0.00000000000E+00 0.  1.
<mgrwt>
<rscale>  0 0.11360174E+04</rscale>
<asrwt>0</asrwt>
<pdfrwt beam="1">  1        2 0.15057361E+00 0.11360174E+04</pdfrwt>
<pdfrwt beam="2">  1       -2 0.50714758E-01 0.11360174E+04</pdfrwt>
<totfact> 0.94670700E+01</totfact>
</mgrwt>
</event>
<event>
12    1  0.1980523E-007  0.2975922E+04  0.7818608E-02  0.8250640E-01
         -2   -1    0    0    0  501 -0.00000000000E+00  0.00000000000E+00  0.95674299839E+03  0.95674299839E+03  0.00000000000E+00 0.  1.
          2   -1    0    0  501    0  0.00000000000E+00 -0.00000000000E+00 -0.23141307315E+04  0.23141307315E+04  0.00000000000E+00 0. -1.
         23    2    1    2    0    0  0.81287697898E+03  0.68265506929E+03 -0.15289949777E+04  0.18634530092E+04  0.88569458217E+02 0.  0.
        254    2    1    2    0    0 -0.81287697898E+03 -0.68265506929E+03  0.17160724458E+03  0.14074207207E+04  0.90807329671E+03 0.  0.
        -24    2    4    4    0    0 -0.27070191598E+03 -0.96818824070E+02  0.46566078386E+03  0.55291446123E+03  0.78873467067E+02 0.  0.
         24    2    4    4    0    0 -0.54217506299E+03 -0.58583624522E+03 -0.29405353927E+03  0.85450625951E+03  0.80966403112E+02 0.  0.
         11    1    3    3    0    0  0.54841844905E+03  0.51240084601E+03 -0.10644844655E+04  0.13024763336E+04  0.00000000000E+00 0. -1.
        -11    1    3    3    0    0  0.26445852993E+03  0.17025422328E+03 -0.46451051219E+03  0.56097667557E+03  0.00000000000E+00 0.  1.
          2    1    6    6  502    0 -0.52841610193E+03 -0.54797994966E+03 -0.28731191258E+03  0.81366684652E+03  0.00000000000E+00 0. -1.
          1    1    5    5  503    0 -0.13652225714E+03 -0.30697287267E+02  0.29139740213E+03  0.32325391893E+03  0.00000000000E+00 0. -1.
         -2    1    5    5    0  503 -0.13417965885E+03 -0.66121536803E+02  0.17426338173E+03  0.22966054230E+03  0.00000000000E+00 0.  1.
         -1    1    6    6    0  502 -0.13758961067E+02 -0.37856295560E+02 -0.67416266888E+01  0.40839412993E+02  0.00000000000E+00 0.  1.
<mgrwt>
<rscale>  0 0.29759223E+04</rscale>
<asrwt>0</asrwt>
<pdfrwt beam="1">  1        2 0.35602011E+00 0.29759223E+04</pdfrwt>
<pdfrwt beam="2">  1       -2 0.14719123E+00 0.29759223E+04</pdfrwt>
<totfact> 0.12022893E+00</totfact>
</mgrwt>
</event>
<event>
12    1  0.1980523E-007  0.1727045E+04  0.7818608E-02  0.8746088E-01
          1   -1    0    0  501    0  0.00000000000E+00  0.00000000000E+00  0.11804081220E+04  0.11804081220E+04  0.00000000000E+00 0. -1.
         -1   -1    0    0    0  501 -0.00000000000E+00 -0.00000000000E+00 -0.63170593312E+03  0.63170593312E+03  0.00000000000E+00 0.  1.
         23    2    1    2    0    0  0.45215887137E+03  0.36216974015E+03 -0.42928177891E+02  0.58796896281E+03  0.90830100329E+02 0.  0.
        254    2    1    2    0    0 -0.45215887137E+03 -0.36216974015E+03  0.59163036676E+03  0.12241450923E+04  0.90160420945E+03 0.  0.
        -24    2    4    4    0    0 -0.43664724060E+03 -0.16177309330E+03  0.79662561324E+03  0.92618179463E+03  0.79806030964E+02 0.  0.
         24    2    4    4    0    0 -0.15511630774E+02 -0.20039664685E+03 -0.20499524648E+03  0.29796329768E+03  0.79747407017E+02 0.  0.
         13    1    3    3    0    0  0.13284751009E+03  0.11308562788E+03  0.28415029280E+02  0.17676038600E+03  0.00000000000E+00 0. -1.
        -13    1    3    3    0    0  0.31931136128E+03  0.24908411227E+03 -0.71343207171E+02  0.41120857681E+03  0.00000000000E+00 0.  1.
          2    1    6    6  502    0 -0.29150553909E+02 -0.36321282675E+02 -0.74583581142E+02  0.87930091234E+02  0.00000000000E+00 0. -1.
          1    1    5    5  503    0 -0.25409618205E+02 -0.28604476826E+02  0.90487112777E+02  0.98243485130E+02  0.00000000000E+00 0. -1.
         -2    1    5    5    0  503 -0.41123762240E+03 -0.13316861647E+03  0.70613850047E+03  0.82793830949E+03  0.00000000000E+00 0.  1.
         -1    1    6    6    0  502  0.13638923135E+02 -0.16407536417E+03 -0.13041166534E+03  0.21003320645E+03  0.00000000000E+00 0.  1.
<mgrwt>
<rscale>  0 0.17270447E+04</rscale>
<asrwt>0</asrwt>
<pdfrwt beam="1">  1        1 0.18160125E+00 0.17270447E+04</pdfrwt>
<pdfrwt beam="2">  1       -1 0.97185529E-01 0.17270447E+04</pdfrwt>
<totfact> 0.10668458E+01</totfact>
</mgrwt>
</event>
<event>
12    1  0.1980523E-007  0.1466710E+04  0.7818608E-02  0.8906897E-01
          4   -1    0    0  501    0  0.00000000000E+00  0.00000000000E+00  0.52865212268E+03  0.52865212268E+03  0.00000000000E+00 0. -1.
         -4   -1    0    0    0  501 -0.00000000000E+00 -0.00000000000E+00 -0.10173221115E+04  0.10173221115E+04  0.00000000000E+00 0.  1.
         23    2    1    2    0    0  0.69466647836E+02 -0.96412324612E+02  0.30451240486E+03  0.33986805219E+03  0.93067377156E+02 0.  0.
        254    2    1    2    0    0 -0.69466647836E+02  0.96412324612E+02 -0.79318239363E+03  0.12061061819E+04  0.90079568219E+03 0.  0.
        -24    2    4    4    0    0  0.19745905684E+03 -0.25961176935E+03 -0.64996525584E+03  0.73185415815E+03  0.82263753243E+02 0.  0.
         24    2    4    4    0    0 -0.26692570468E+03  0.35602409396E+03 -0.14321713779E+03  0.47425202379E+03  0.80008413376E+02 0.  0.
         13    1    3    3    0    0  0.88803469849E+01 -0.86566226770E+01  0.15890062177E+03  0.15938383004E+03  0.00000000000E+00 0. -1.
        -13    1    3    3    0    0  0.60586300851E+02 -0.87755701934E+02  0.14561178309E+03  0.18048422215E+03  0.00000000000E+00 0.  1.
          4    1    6    6  502    0 -0.11409548468E+03  0.14216322317E+03 -0.99851114042E+02  0.20784226380E+03  0.00000000000E+00 0. -1.
          1    1    5    5  503    0  0.14399251277E+03 -0.13092121655E+03 -0.33478355213E+03  0.38723924834E+03  0.00000000000E+00 0. -1.
         -2    1    5    5    0  503  0.53466544070E+02 -0.12869055280E+03 -0.31518170371E+03  0.34461490982E+03  0.00000000000E+00 0.  1.
         -3    1    6    6    0  502 -0.15283022000E+03  0.21386087079E+03 -0.43366023748E+02  0.26640975999E+03  0.00000000000E+00 0.  1.
<mgrwt>
<rscale>  0 0.14667099E+04</rscale>
<asrwt>0</asrwt>
<pdfrwt beam="1">  1        4 0.81331097E-01 0.14667099E+04</pdfrwt>
<pdfrwt beam="2">  1       -4 0.15651109E+00 0.14667099E+04</pdfrwt>
<totfact> 0.68756685E-01</totfact>
</mgrwt>
</event>
<event>
12    1  0.1980523E-007  0.1185497E+04  0.7818608E-02  0.9125646E-01
         -2   -1    0    0    0  501 -0.00000000000E+00  0.00000000000E+00  0.10130639400E+03  0.10130639400E+03  0.00000000000E+00 0.  1.
          2   -1    0    0  501    0  0.00000000000E+00 -0.00000000000E+00 -0.34682023445E+04  0.34682023445E+04  0.00000000000E+00 0. -1.
         23    2    1    2    0    0 -0.90010866921E+02  0.20271640987E+03 -0.97934666328E+03  0.10084727334E+04  0.93281660006E+02 0.  0.
        254    2    1    2    0    0  0.90010866921E+02 -0.20271640987E+03 -0.23875492873E+04  0.25610360052E+04  0.89962098780E+03 0.  0.
        -24    2    4    4    0    0  0.34362199895E+03 -0.43188209446E+03 -0.16970388294E+04  0.17863554312E+04  0.80788096322E+02 0.  0.
         24    2    4    4    0    0 -0.25361113203E+03  0.22916568459E+03 -0.69051045787E+03  0.77468057396E+03  0.80559182927E+02 0.  0.
         13    1    3    3    0    0 -0.10561543278E+03  0.15346304534E+03 -0.69867138024E+03  0.72308175436E+03  0.00000000000E+00 0.  1.
        -13    1    3    3    0    0  0.15604565859E+02  0.49253364529E+02 -0.28067528304E+03  0.28539097902E+03  0.00000000000E+00 0. -1.
          4    1    6    6  502    0 -0.19422423583E+02  0.37456289058E+02 -0.14293567753E+03  0.14903292266E+03  0.00000000000E+00 0. -1.
          3    1    5    5  503    0  0.49149192830E+02 -0.11284050009E+03 -0.40829648934E+03  0.42644418723E+03  0.00000000000E+00 0. -1.
         -4    1    5    5    0  503  0.29447280612E+03 -0.31904159436E+03 -0.12887423400E+04  0.13599112440E+04  0.00000000000E+00 0.  1.
         -3    1    6    6    0  502 -0.23418870844E+03  0.19170939553E+03 -0.54757478035E+03  0.62564765129E+03  0.00000000000E+00 0.  1.
<mgrwt>
<rscale>  0 0.11854975E+04</rscale>
<asrwt>0</asrwt>
<pdfrwt beam="1">  1        2 0.53356957E+00 0.11854975E+04</pdfrwt>
<pdfrwt beam="2">  1       -2 0.15585600E-01 0.11854975E+04</pdfrwt>
<totfact> 0.28529828E+01</totfact>
</mgrwt>
</event>
<event>
12    1  0.1980523E-007  0.1442149E+04  0.7818608E-02  0.8923862E-01
          1   -1    0    0  501    0  0.00000000000E+00  0.00000000000E+00  0.21697361582E+04  0.21697361582E+04  0.00000000000E+00 0. -1.
         -1   -1    0    0    0  501 -0.00000000000E+00 -0.00000000000E+00 -0.23963662810E+03  0.23963662810E+03  0.00000000000E+00 0.  1.
         23    2    1    2    0    0  0.13814024252E+03  0.36236260013E+03  0.26929407843E+03  0.48067525678E+03  0.90222066166E+02 0.  0.
        254    2    1    2    0    0 -0.13814024252E+03 -0.36236260013E+03  0.16608054517E+04  0.19286975295E+04  0.90067198883E+03 0.  0.
        -24    2    4    4    0    0  0.20538747036E+03 -0.48819765522E+03  0.13106346772E+04  0.14161959013E+04  0.85595621496E+02 0.  0.
         24    2    4    4    0    0 -0.34352771289E+03  0.12583505509E+03  0.35017077448E+03  0.51250162816E+03  0.78693055320E+02 0.  0.
         13    1    3    3    0    0  0.14568529373E+03  0.36241705246E+03  0.26372566228E+03  0.47129772932E+03  0.00000000000E+00 0. -1.
        -13    1    3    3    0    0 -0.75450512077E+01 -0.54452322749E-01  0.55684161434E+01  0.93775274528E+01  0.00000000000E+00 0.  1.
          4    1    6    6  502    0 -0.10730340639E+03  0.30326351483E+02  0.15786906237E+03  0.19327790735E+03  0.00000000000E+00 0. -1.
          3    1    5    5  503    0  0.10216604991E+03 -0.24407908857E+03  0.54181696737E+03  0.60297440191E+03  0.00000000000E+00 0. -1.
         -4    1    5    5    0  503  0.10322142045E+03 -0.24411856664E+03  0.76881770981E+03  0.81322149943E+03  0.00000000000E+00 0.  1.
         -3    1    6    6    0  502 -0.23622430650E+03  0.95508703602E+02  0.19230171211E+03  0.31922372080E+03  0.00000000000E+00 0.  1.
<mgrwt>
<rscale>  0 0.14421488E+04</rscale>
<asrwt>0</asrwt>
<pdfrwt beam="1">  1        1 0.33380555E+00 0.14421488E+04</pdfrwt>
<pdfrwt beam="2">  1       -1 0.36867175E-01 0.14421488E+04</pdfrwt>
<totfact> 0.15710178E+01</totfact>
</mgrwt>
</event>
<event>
12    1  0.1980523E-007  0.2567711E+04  0.7818608E-02  0.8379252E-01
          1   -1    0    0  501    0  0.00000000000E+00  0.00000000000E+00  0.77209664748E+03  0.77209664748E+03  0.00000000000E+00 0. -1.
         -1   -1    0    0    0  501 -0.00000000000E+00 -0.00000000000E+00 -0.21348169145E+04  0.21348169145E+04  0.00000000000E+00 0.  1.
         23    2    1    2    0    0 -0.26726820812E+03  0.89063826512E+03 -0.13136313605E+04  0.16120152891E+04  0.91088564073E+02 0.  0.
        254    2    1    2    0    0  0.26726820812E+03 -0.89063826512E+03 -0.49088906525E+02  0.12948982729E+04  0.89982387284E+03 0.  0.
        -24    2    4    4    0    0  0.33242909181E+02  0.16609896812E+03 -0.92075121559E+02  0.20865590622E+03  0.79784089693E+02 0.  0.
         24    2    4    4    0    0  0.23402529894E+03 -0.10567372332E+04  0.42986215034E+02  0.10862423667E+04  0.81321853691E+02 0.  0.
         11    1    3    3    0    0 -0.23731268827E+03  0.65294430411E+03 -0.97221604572E+03  0.11949299627E+04  0.00000000000E+00 0.  1.
        -11    1    3    3    0    0 -0.29955519851E+02  0.23769396100E+03 -0.34141531481E+03  0.41708532635E+03  0.00000000000E+00 0. -1.
          4    1    6    6  502    0  0.21631148328E+03 -0.10190813684E+04  0.54035812469E+02  0.10431861590E+04  0.00000000000E+00 0. -1.
          3    1    5    5  503    0  0.55968280656E+02  0.78507291195E+02 -0.53726891650E+02  0.11037401006E+03  0.00000000000E+00 0. -1.
         -4    1    5    5    0  503 -0.22725371474E+02  0.87591676930E+02 -0.38348229909E+02  0.98281896162E+02  0.00000000000E+00 0.  1.
         -3    1    6    6    0  502  0.17713815657E+02 -0.37655864839E+02 -0.11049597435E+02  0.43056207745E+02  0.00000000000E+00 0.  1.
<mgrwt>
<rscale>  0 0.25677110E+04</rscale>
<asrwt>0</asrwt>
<pdfrwt beam="1">  1        1 0.11878410E+00 0.25677110E+04</pdfrwt>
<pdfrwt beam="2">  1       -1 0.32843337E+00 0.25677110E+04</pdfrwt>
<totfact> 0.44552407E-01</totfact>
</mgrwt>
</event>
<event>
12    1  0.1980523E-007  0.1145827E+04  0.7818608E-02  0.9161642E-01
          2   -1    0    0  501    0  0.00000000000E+00  0.00000000000E+00  0.11780190725E+04  0.11780190725E+04  0.00000000000E+00 0. -1.
         -2   -1    0    0    0  501 -0.00000000000E+00 -0.00000000000E+00 -0.27862850098E+03  0.27862850098E+03  0.00000000000E+00 0.  1.
         23    2    1    2    0    0  0.17974614797E+03 -0.94220468418E+02  0.19122257765E+03  0.29336075400E+03  0.91149785541E+02 0.  0.
        254    2    1    2    0    0 -0.17974614797E+03  0.94220468418E+02  0.70816799390E+03  0.11632868195E+04  0.90030447209E+03 0.  0.
        -24    2    4    4    0    0  0.27762703597E+02  0.41801045483E+03  0.98575938612E+02  0.43780472932E+03  0.80325944025E+02 0.  0.
         24    2    4    4    0    0 -0.20750885157E+03 -0.32378998641E+03  0.60959205529E+03  0.72548209019E+03  0.82594857821E+02 0.  0.
         13    1    3    3    0    0  0.25751819039E+02 -0.89993248045E+01  0.81532848090E+02  0.85975283358E+02  0.00000000000E+00 0. -1.
        -13    1    3    3    0    0  0.15399432893E+03 -0.85221143614E+02  0.10968972956E+03  0.20738547064E+03  0.00000000000E+00 0.  1.
          4    1    6    6  502    0 -0.17239073852E+03 -0.28982161498E+03  0.57132771104E+03  0.66342331029E+03  0.00000000000E+00 0. -1.
          3    1    5    5  503    0  0.35231796864E+02  0.38096871010E+03  0.11041126815E+03  0.39820734011E+03  0.00000000000E+00 0. -1.
         -4    1    5    5    0  503 -0.74690932673E+01  0.37041744727E+02 -0.11835329534E+02  0.39597389204E+02  0.00000000000E+00 0.  1.
         -3    1    6    6    0  502 -0.35118113051E+02 -0.33968371431E+02  0.38264344251E+02  0.62058779902E+02  0.00000000000E+00 0.  1.
<mgrwt>
<rscale>  0 0.11458267E+04</rscale>
<asrwt>0</asrwt>
<pdfrwt beam="1">  1        2 0.18123370E+00 0.11458267E+04</pdfrwt>
<pdfrwt beam="2">  1       -2 0.42865924E-01 0.11458267E+04</pdfrwt>
<totfact> 0.99687955E+01</totfact>
</mgrwt>
</event>
<event>
12    1  0.1980523E-007  0.1379474E+04  0.7818608E-02  0.8968812E-01
         -2   -1    0    0    0  501 -0.00000000000E+00  0.00000000000E+00  0.46145777091E+03  0.46145777091E+03  0.00000000000E+00 0.  1.
          2   -1    0    0  501    0  0.00000000000E+00 -0.00000000000E+00 -0.10309437328E+04  0.10309437328E+04  0.00000000000E+00 0. -1.
         23    2    1    2    0    0  0.12912892142E+03 -0.25354338260E+03 -0.44904871002E+03  0.53965682702E+03  0.92877455651E+02 0.  0.
        254    2    1    2    0    0 -0.12912892142E+03  0.25354338260E+03 -0.12043725186E+03  0.95274467669E+03  0.90125399423E+03 0.  0.
        -24    2    4    4    0    0 -0.13232750716E+03  0.32415286541E+03 -0.46762336935E+03  0.58980141138E+03  0.81292312061E+02 0.  0.
         24    2    4    4    0    0  0.31985857421E+01 -0.70609482811E+02  0.34718611749E+03  0.36294326531E+03  0.78699959619E+02 0.  0.
         13    1    3    3    0    0  0.11881264982E+03 -0.14658682015E+03 -0.32247924721E+03  0.37362682784E+03  0.00000000000E+00 0. -1.
        -13    1    3    3    0    0  0.10316271593E+02 -0.10695656245E+03 -0.12656946281E+03  0.16602999918E+03  0.00000000000E+00 0.  1.
          4    1    6    6  502    0  0.24118558458E+02 -0.57204235966E+02  0.12701715262E+03  0.14137675387E+03  0.00000000000E+00 0. -1.
          1    1    5    5  503    0 -0.51134224783E+02  0.21975026123E+03 -0.26780797996E+03  0.35017995429E+03  0.00000000000E+00 0. -1.
         -2    1    5    5    0  503 -0.81193282377E+02  0.10440260418E+03 -0.19981538939E+03  0.23962145709E+03  0.00000000000E+00 0.  1.
         -3    1    6    6    0  502 -0.20919972716E+02 -0.13405246845E+02  0.22016896487E+03  0.22156651144E+03  0.00000000000E+00 0.  1.
<mgrwt>
<rscale>  0 0.13794738E+04</rscale>
<asrwt>0</asrwt>
<pdfrwt beam="1">  1        2 0.15860673E+00 0.13794738E+04</pdfrwt>
<pdfrwt beam="2">  1       -2 0.70993504E-01 0.13794738E+04</pdfrwt>
<totfact> 0.42292341E+01</totfact>
</mgrwt>
</event>
<event>
12    1  0.1980523E-007  0.1559886E+04  0.7818608E-02  0.8845578E-01
          1   -1    0    0  501    0  0.00000000000E+00  0.00000000000E+00  0.17862248743E+04  0.17862248743E+04  0.00000000000E+00 0. -1.
         -1   -1    0    0    0  501 -0.00000000000E+00 -0.00000000000E+00 -0.34055677448E+03  0.34055677448E+03  0.00000000000E+00 0.  1.
         23    2    1    2    0    0  0.44352238857E+03  0.19640021661E+03  0.72156548542E+03  0.87402633462E+03  0.89331571209E+02 0.  0.
        254    2    1    2    0    0 -0.44352238857E+03 -0.19640021661E+03  0.72410261443E+03  0.12527553142E+04  0.89988117369E+03 0.  0.
        -24    2    4    4    0    0 -0.69916976342E+03 -0.36862681602E+02  0.43777883975E+03  0.82958235109E+03  0.79745528583E+02 0.  0.
         24    2    4    4    0    0  0.25564737484E+03 -0.15953753501E+03  0.28632377468E+03  0.42317296311E+03  0.79285858865E+02 0.  0.
         13    1    3    3    0    0  0.21312921802E+02  0.59773260928E+01  0.84367148938E+01  0.23688546202E+02  0.00000000000E+00 0.  1.
        -13    1    3    3    0    0  0.42220946677E+03  0.19042289052E+03  0.71312877053E+03  0.85033778842E+03  0.00000000000E+00 0. -1.
          4    1    6    6  502    0  0.11961118786E+02 -0.76092842500E+00  0.40878245016E+02  0.42599040955E+02  0.00000000000E+00 0. -1.
          1    1    5    5  503    0 -0.97466104013E+02 -0.28144369405E+02  0.45051305380E+02  0.11100165349E+03  0.00000000000E+00 0. -1.
         -2    1    5    5    0  503 -0.60170365940E+03 -0.87183121964E+01  0.39272753437E+03  0.71858069760E+03  0.00000000000E+00 0.  1.
         -3    1    6    6    0  502  0.24368625606E+03 -0.15877660659E+03  0.24544552967E+03  0.38057392216E+03  0.00000000000E+00 0.  1.
<mgrwt>
<rscale>  0 0.15598859E+04</rscale>
<asrwt>0</asrwt>
<pdfrwt beam="1">  1        1 0.27480382E+00 0.15598859E+04</pdfrwt>
<pdfrwt beam="2">  1       -1 0.52393351E-01 0.15598859E+04</pdfrwt>
<totfact> 0.14709385E+01</totfact>
</mgrwt>
</event>
<event>
12    1  0.1980523E-007  0.1881617E+04  0.7818608E-02  0.8664061E-01
         -2   -1    0    0    0  501 -0.00000000000E+00  0.00000000000E+00  0.10783676282E+04  0.10783676282E+04  0.00000000000E+00 0.  1.
          2   -1    0    0  501    0  0.00000000000E+00 -0.00000000000E+00 -0.82079653226E+03  0.82079653226E+03  0.00000000000E+00 0. -1.
         23    2    1    2    0    0  0.16221491470E+03  0.66620984610E+03  0.33132676037E+03  0.76643620702E+03  0.86589836005E+02 0.  0.
        254    2    1    2    0    0 -0.16221491470E+03 -0.66620984610E+03 -0.73755664402E+02  0.11327279535E+04  0.89860084629E+03 0.  0.
        -24    2    4    4    0    0 -0.13568022962E+03 -0.37176908645E+03  0.40004544044E+03  0.56822365073E+03  0.78869414094E+02 0.  0.
         24    2    4    4    0    0 -0.26534685076E+02 -0.29444075966E+03 -0.47380110484E+03  0.56450430275E+03  0.82329644768E+02 0.  0.
         13    1    3    3    0    0  0.46639937590E+02  0.17936551900E+03  0.48123784840E+02  0.19147629580E+03  0.00000000000E+00 0. -1.
        -13    1    3    3    0    0  0.11557497711E+03  0.48684432710E+03  0.28320297553E+03  0.57495991122E+03  0.00000000000E+00 0.  1.
          4    1    6    6  502    0 -0.84670310455E+01 -0.14261178531E+02 -0.74835159221E+02  0.76650980969E+02  0.00000000000E+00 0. -1.
          1    1    5    5  503    0  0.89281665879E+01 -0.26859924214E+02  0.40651773847E+02  0.49535183499E+02  0.00000000000E+00 0. -1.
         -2    1    5    5    0  503 -0.14460839621E+03 -0.34490916223E+03  0.35939366660E+03  0.51868846723E+03  0.00000000000E+00 0.  1.
         -3    1    6    6    0  502 -0.18067654031E+02 -0.28017958113E+03 -0.39896594562E+03  0.48785332178E+03  0.00000000000E+00 0.  1.
<mgrwt>
<rscale>  0 0.18816168E+04</rscale>
<asrwt>0</asrwt>
<pdfrwt beam="1">  1        2 0.12627639E+00 0.18816168E+04</pdfrwt>
<pdfrwt beam="2">  1       -2 0.16590271E+00 0.18816168E+04</pdfrwt>
<totfact> 0.71159367E+00</totfact>
</mgrwt>
</event>
<event>
12    1  0.1980523E-007  0.1901419E+04  0.7818608E-02  0.8654150E-01
         -2   -1    0    0    0  501 -0.00000000000E+00  0.00000000000E+00  0.32739179874E+03  0.32739179874E+03  0.00000000000E+00 0.  1.
          2   -1    0    0  501    0  0.00000000000E+00 -0.00000000000E+00 -0.27607549044E+04  0.27607549044E+04  0.00000000000E+00 0. -1.
         23    2    1    2    0    0 -0.48573720845E+03 -0.50638884383E+03 -0.13019998061E+04  0.14819056656E+04  0.92035916664E+02 0.  0.
        254    2    1    2    0    0  0.48573720845E+03  0.50638884383E+03 -0.11313632996E+04  0.16062410375E+04  0.89869742301E+03 0.  0.
        -24    2    4    4    0    0  0.12783064525E+03  0.70436457526E+03 -0.77072775066E+03  0.10549565033E+04  0.80261008769E+02 0.  0.
         24    2    4    4    0    0  0.35790656319E+03 -0.19797573143E+03 -0.36063554890E+03  0.55128453417E+03  0.81025553225E+02 0.  0.
         11    1    3    3    0    0 -0.34915063165E+03 -0.35968781132E+03 -0.10123922385E+04  0.11296988669E+04  0.00000000000E+00 0. -1.
        -11    1    3    3    0    0 -0.13658657680E+03 -0.14670103251E+03 -0.28960756756E+03  0.35220679875E+03  0.00000000000E+00 0.  1.
          4    1    6    6  502    0  0.26417620222E+03 -0.17398224464E+03 -0.30631083858E+03  0.44032399106E+03  0.00000000000E+00 0. -1.
          3    1    5    5  503    0  0.61326202418E+02  0.52367801116E+03 -0.58273112060E+03  0.78585947942E+03  0.00000000000E+00 0. -1.
         -4    1    5    5    0  503  0.66504442834E+02  0.18068656410E+03 -0.18799663006E+03  0.26909702391E+03  0.00000000000E+00 0.  1.
         -3    1    6    6    0  502  0.93730360973E+02 -0.23993486785E+02 -0.54324710311E+02  0.11096054311E+03  0.00000000000E+00 0.  1.
<mgrwt>
<rscale>  0 0.19014190E+04</rscale>
<asrwt>0</asrwt>
<pdfrwt beam="1">  1        2 0.42473150E+00 0.19014190E+04</pdfrwt>
<pdfrwt beam="2">  1       -2 0.50367971E-01 0.19014190E+04</pdfrwt>
<totfact> 0.85408702E+00</totfact>
</mgrwt>
</event>
<event>
12    1  0.1980523E-007  0.1787944E+04  0.7818608E-02  0.8712737E-01
         -2   -1    0    0    0  501 -0.00000000000E+00  0.00000000000E+00  0.60791274893E+03  0.60791274893E+03  0.00000000000E+00 0.  1.
          2   -1    0    0  501    0  0.00000000000E+00 -0.00000000000E+00 -0.13146396459E+04  0.13146396459E+04  0.00000000000E+00 0. -1.
         23    2    1    2    0    0  0.59204454299E+03 -0.24150860788E+03 -0.45815353421E+03  0.79195431109E+03  0.91890268134E+02 0.  0.
        254    2    1    2    0    0 -0.59204454299E+03  0.24150860788E+03 -0.24857336277E+03  0.11305980838E+04  0.89867689508E+03 0.  0.
        -24    2    4    4    0    0 -0.31052429472E+03  0.11842350626E+02  0.31883815492E+03  0.45218723360E+03  0.79056601988E+02 0.  0.
         24    2    4    4    0    0 -0.28152024827E+03  0.22966625726E+03 -0.56741151769E+03  0.67841085016E+03  0.79279324548E+02 0.  0.
         11    1    3    3    0    0  0.44213092004E+03 -0.18770704293E+03 -0.29364860605E+03  0.56297707614E+03  0.00000000000E+00 0.  1.
        -11    1    3    3    0    0  0.14991362296E+03 -0.53801564946E+02 -0.16450492816E+03  0.22897723495E+03  0.00000000000E+00 0. -1.
          4    1    6    6  502    0 -0.16211169901E+03  0.11461770634E+03 -0.24058342312E+03  0.31192596084E+03  0.00000000000E+00 0. -1.
          3    1    5    5  503    0 -0.10081400091E+03 -0.49734488031E+01  0.15747586195E+03  0.18704770800E+03  0.00000000000E+00 0. -1.
         -4    1    5    5    0  503 -0.20971029381E+03  0.16815799429E+02  0.16136229297E+03  0.26513952560E+03  0.00000000000E+00 0.  1.
         -3    1    6    6    0  502 -0.11940854926E+03  0.11504855091E+03 -0.32682809456E+03  0.36648488932E+03  0.00000000000E+00 0.  1.
<mgrwt>
<rscale>  0 0.17879443E+04</rscale>
<asrwt>0</asrwt>
<pdfrwt beam="1">  1        2 0.20225225E+00 0.17879443E+04</pdfrwt>
<pdfrwt beam="2">  1       -2 0.93525039E-01 0.17879443E+04</pdfrwt>
<totfact> 0.14809451E+01</totfact>
</mgrwt>
</event>
<event>
12    1  0.1980523E-007  0.3584265E+04  0.7818608E-02  0.8094105E-01
          2   -1    0    0  501    0  0.00000000000E+00  0.00000000000E+00  0.33706884513E+04  0.33706884513E+04  0.00000000000E+00 0. -1.
         -2   -1    0    0    0  501 -0.00000000000E+00 -0.00000000000E+00 -0.95284374933E+03  0.95284374933E+03  0.00000000000E+00 0.  1.
         23    2    1    2    0    0 -0.15378152737E+04 -0.58933666092E+03  0.74336876010E+03  0.18096609117E+04  0.10040909332E+03 0.  0.
        254    2    1    2    0    0  0.15378152737E+04  0.58933666092E+03  0.16744759419E+04  0.25138712889E+04  0.89637361691E+03 0.  0.
        -24    2    4    4    0    0  0.56945917570E+03  0.38889214303E+03  0.17518968824E+03  0.71607606803E+03  0.80948481388E+02 0.  0.
         24    2    4    4    0    0  0.96835609802E+03  0.20044451788E+03  0.14992862536E+04  0.17977952208E+04  0.79478603547E+02 0.  0.
         11    1    3    3    0    0 -0.75370658826E+03 -0.24219202431E+03  0.38414132436E+03  0.87994042691E+03  0.00000000000E+00 0. -1.
        -11    1    3    3    0    0 -0.78410868547E+03 -0.34714463660E+03  0.35922743573E+03  0.92972048484E+03  0.00000000000E+00 0.  1.
          4    1    6    6  502    0  0.74449435229E+03  0.18178346364E+03  0.11236097572E+04  0.13600793928E+04  0.00000000000E+00 0. -1.
          3    1    5    5  503    0  0.26183973679E+03  0.13695446817E+03  0.53915816260E+02  0.30037225131E+03  0.00000000000E+00 0. -1.
         -4    1    5    5    0  503  0.30761943891E+03  0.25193767487E+03  0.12127387198E+03  0.41570381672E+03  0.00000000000E+00 0.  1.
         -3    1    6    6    0  502  0.22386174574E+03  0.18661054248E+02  0.37567649637E+03  0.43771582800E+03  0.00000000000E+00 0.  1.
<mgrwt>
<rscale>  0 0.35842653E+04</rscale>
<asrwt>0</asrwt>
<pdfrwt beam="1">  1        2 0.51856745E+00 0.35842653E+04</pdfrwt>
<pdfrwt beam="2">  1       -2 0.14659135E+00 0.35842653E+04</pdfrwt>
<totfact> 0.25902481E-01</totfact>
</mgrwt>
</event>
<event>
12    1  0.1980523E-007  0.2123544E+04  0.7818608E-02  0.8550943E-01
          2   -1    0    0  501    0  0.00000000000E+00  0.00000000000E+00  0.78296534328E+03  0.78296534328E+03  0.00000000000E+00 0. -1.
         -2   -1    0    0    0  501 -0.00000000000E+00 -0.00000000000E+00 -0.14398586620E+04  0.14398586620E+04  0.00000000000E+00 0.  1.
         23    2    1    2    0    0 -0.13361708389E+03 -0.74756990928E+03 -0.71120980579E+03  0.10442051273E+04  0.88491048329E+02 0.  0.
        254    2    1    2    0    0  0.13361708389E+03  0.74756990928E+03  0.54316487117E+02  0.11786188780E+04  0.89970988898E+03 0.  0.
        -24    2    4    4    0    0 -0.13055533788E+03 -0.14033981613E+03 -0.10892894754E+03  0.23465321849E+03  0.80353326595E+02 0.  0.
         24    2    4    4    0    0  0.26417242178E+03  0.88790972541E+03  0.16324543466E+03  0.94396565946E+03  0.79065450149E+02 0.  0.
         13    1    3    3    0    0 -0.17136876241E+02 -0.24136665438E+03 -0.18297428020E+03  0.30336631585E+03  0.00000000000E+00 0. -1.
        -13    1    3    3    0    0 -0.11648020765E+03 -0.50620325489E+03 -0.52823552559E+03  0.74083881144E+03  0.00000000000E+00 0.  1.
          2    1    6    6  502    0  0.19336514328E+03  0.61966547699E+03  0.14987399047E+03  0.66621137413E+03  0.00000000000E+00 0. -1.
          3    1    5    5  503    0 -0.80632334201E+02 -0.13476946253E+03 -0.89739066691E+02  0.18087974303E+03  0.00000000000E+00 0. -1.
         -4    1    5    5    0  503 -0.49923003684E+02 -0.55703536014E+01 -0.19189880848E+02  0.53773475460E+02  0.00000000000E+00 0.  1.
         -1    1    6    6    0  502  0.70807278502E+02  0.26824424842E+03  0.13371444184E+02  0.27775428533E+03  0.00000000000E+00 0.  1.
<mgrwt>
<rscale>  0 0.21235437E+04</rscale>
<asrwt>0</asrwt>
<pdfrwt beam="1">  1        2 0.12045621E+00 0.21235437E+04</pdfrwt>
<pdfrwt beam="2">  1       -2 0.22151672E+00 0.21235437E+04</pdfrwt>
<totfact> 0.31503375E+00</totfact>
</mgrwt>
</event>
<event>
12    1  0.1980523E-007  0.1739333E+04  0.7818608E-02  0.8739244E-01
          2   -1    0    0  501    0  0.00000000000E+00  0.00000000000E+00  0.23103416383E+04  0.23103416383E+04  0.00000000000E+00 0. -1.
         -2   -1    0    0    0  501 -0.00000000000E+00 -0.00000000000E+00 -0.32736290942E+03  0.32736290942E+03  0.00000000000E+00 0.  1.
         23    2    1    2    0    0  0.30643820299E+03 -0.42809881372E+03  0.19908075705E+03  0.56991200637E+03  0.89406826454E+02 0.  0.
        254    2    1    2    0    0 -0.30643820299E+03  0.42809881372E+03  0.17838979719E+04  0.20677925414E+04  0.90349380387E+03 0.  0.
        -24    2    4    4    0    0 -0.49210717710E+03  0.40830009399E+03  0.64774941063E+03  0.91363829838E+03  0.79228787629E+02 0.  0.
         24    2    4    4    0    0  0.18566897411E+03  0.19798719732E+02  0.11361485612E+04  0.11541542430E+04  0.79834242074E+02 0.  0.
         11    1    3    3    0    0  0.69859691957E+02 -0.15429486832E+03  0.90950432078E+02  0.19224792338E+03  0.00000000000E+00 0. -1.
        -11    1    3    3    0    0  0.23657851103E+03 -0.27380394541E+03  0.10813032497E+03  0.37766408299E+03  0.00000000000E+00 0.  1.
          2    1    6    6  502    0  0.23429956221E+02  0.27307616451E+02  0.12616913898E+03  0.13119954419E+03  0.00000000000E+00 0. -1.
          3    1    5    5  503    0 -0.14037781929E+03  0.11784485898E+03  0.23861855685E+03  0.30088562380E+03  0.00000000000E+00 0. -1.
         -4    1    5    5    0  503 -0.35172935781E+03  0.29045523501E+03  0.40913085378E+03  0.61275267458E+03  0.00000000000E+00 0.  1.
         -1    1    6    6    0  502  0.16223901789E+03 -0.75088967191E+01  0.10099794223E+04  0.10229546988E+04  0.00000000000E+00 0.  1.
<mgrwt>
<rscale>  0 0.17393334E+04</rscale>
<asrwt>0</asrwt>
<pdfrwt beam="1">  1        2 0.35543717E+00 0.17393334E+04</pdfrwt>
<pdfrwt beam="2">  1       -2 0.50363526E-01 0.17393334E+04</pdfrwt>
<totfact> 0.15831674E+01</totfact>
</mgrwt>
</event>
<event>
12    1  0.1980523E-007  0.1429708E+04  0.7818608E-02  0.8932591E-01
         -2   -1    0    0    0  501 -0.00000000000E+00  0.00000000000E+00  0.10342665339E+04  0.10342665339E+04  0.00000000000E+00 0.  1.
          2   -1    0    0  501    0  0.00000000000E+00 -0.00000000000E+00 -0.49408540178E+03  0.49408540178E+03  0.00000000000E+00 0. -1.
         23    2    1    2    0    0 -0.15294840745E+03 -0.16320223338E+03  0.55199206180E+03  0.60273989224E+03  0.92584864217E+02 0.  0.
        254    2    1    2    0    0  0.15294840745E+03  0.16320223338E+03 -0.11810929657E+02  0.92561204346E+03  0.89810354226E+03 0.  0.
        -24    2    4    4    0    0  0.29284570373E+03  0.11078604693E+03  0.38007195945E+03  0.49877203383E+03  0.79288668652E+02 0.  0.
         24    2    4    4    0    0 -0.13989729629E+03  0.52416186445E+02 -0.39188288911E+03  0.42684000963E+03  0.79381893002E+02 0.  0.
         13    1    3    3    0    0 -0.44060915235E+02 -0.77822161083E+01  0.17566355573E+03  0.18127220402E+03  0.00000000000E+00 0. -1.
        -13    1    3    3    0    0 -0.10888749221E+03 -0.15542001727E+03  0.37632850607E+03  0.42146768822E+03  0.00000000000E+00 0.  1.
          4    1    6    6  502    0 -0.14028549984E+03  0.64723184670E+02 -0.37759031085E+03  0.40797494402E+03  0.00000000000E+00 0. -1.
          3    1    5    5  503    0  0.27214322415E+03  0.12151687109E+03  0.36400182671E+03  0.47045256324E+03  0.00000000000E+00 0. -1.
         -4    1    5    5    0  503  0.20702479581E+02 -0.10730824160E+02  0.16070132745E+02  0.28319470589E+02  0.00000000000E+00 0.  1.
         -3    1    6    6    0  502  0.38820355309E+00 -0.12306998225E+02 -0.14292578260E+02  0.18865065614E+02  0.00000000000E+00 0.  1.
<mgrwt>
<rscale>  0 0.14297077E+04</rscale>
<asrwt>0</asrwt>
<pdfrwt beam="1">  1        2 0.76013139E-01 0.14297077E+04</pdfrwt>
<pdfrwt beam="2">  1       -2 0.15911793E+00 0.14297077E+04</pdfrwt>
<totfact> 0.15491141E+01</totfact>
</mgrwt>
</event>
<event>
12    1  0.2510983E-007  0.1952052E+04  0.7818608E-02  0.8629372E-01
          2   -1    0    0  501    0  0.00000000000E+00  0.00000000000E+00  0.11979460299E+04  0.11979460299E+04  0.00000000000E+00 0.  1.
         -2   -1    0    0    0  501 -0.00000000000E+00 -0.00000000000E+00 -0.79521712383E+03  0.79521712383E+03  0.00000000000E+00 0. -1.
         23    2    1    2    0    0 -0.60034582365E+03 -0.11770786163E+03  0.62627802983E+03  0.88045285081E+03  0.93288815980E+02 0.  0.
        254    2    1    2    0    0  0.60034582365E+03  0.11770786163E+03 -0.22354912372E+03  0.11127103030E+04  0.90215284676E+03 0.  0.
        -24    2    4    4    0    0  0.61145383055E+03 -0.17810467505E+03 -0.40273575005E+03  0.75759652158E+03  0.78481481671E+02 0.  0.
         24    2    4    4    0    0 -0.11108006901E+02  0.29581253668E+03  0.17918662632E+03  0.35511378138E+03  0.79809184906E+02 0.  0.
         11    1    3    3    0    0 -0.26863807324E+03 -0.99011202843E+02  0.27600385647E+03  0.39767796201E+03  0.00000000000E+00 0. -1.
        -11    1    3    3    0    0 -0.33170775041E+03 -0.18696658788E+02  0.35027417336E+03  0.48277488880E+03  0.00000000000E+00 0.  1.
          2    1    6    6  502    0  0.11068886525E+02  0.27433819150E+03  0.15117540673E+03  0.31342936551E+03  0.00000000000E+00 0. -1.
          1    1    5    5  503    0  0.57773197489E+03 -0.18595600540E+03 -0.38446444521E+03  0.71844747921E+03  0.00000000000E+00 0. -1.
         -2    1    5    5    0  503  0.33721855668E+02  0.78513303488E+01 -0.18271304837E+02  0.39149042368E+02  0.00000000000E+00 0.  1.
         -1    1    6    6    0  502 -0.22176893426E+02  0.21474345184E+02  0.28011219597E+02  0.41684415870E+02  0.00000000000E+00 0.  1.
<mgrwt>
<rscale>  0 0.19520525E+04</rscale>
<asrwt>0</asrwt>
<pdfrwt beam="1">  1        2 0.18429939E+00 0.19520525E+04</pdfrwt>
<pdfrwt beam="2">  1       -2 0.12234110E+00 0.19520525E+04</pdfrwt>
<totfact> 0.89658209E+00</totfact>
</mgrwt>
</event>
<event>
12    1  0.1980523E-007  0.2068432E+04  0.7818608E-02  0.8575278E-01
          2   -1    0    0  501    0  0.00000000000E+00  0.00000000000E+00  0.18991008871E+04  0.18991008871E+04  0.00000000000E+00 0. -1.
         -2   -1    0    0    0  501 -0.00000000000E+00 -0.00000000000E+00 -0.56321507704E+03  0.56321507704E+03  0.00000000000E+00 0.  1.
         23    2    1    2    0    0 -0.61355170302E+02  0.66955308582E+03 -0.46975448271E+02  0.68005563383E+03  0.90571412268E+02 0.  0.
        254    2    1    2    0    0  0.61355170302E+02 -0.66955308582E+03  0.13828612583E+04  0.17822603303E+04  0.90115527713E+03 0.  0.
        -24    2    4    4    0    0 -0.20553393396E+02 -0.87640430069E+03  0.11700042521E+04  0.14641927490E+04  0.80271514601E+02 0.  0.
         24    2    4    4    0    0  0.81908563697E+02  0.20685121488E+03  0.21285700623E+03  0.31806758129E+03  0.79764925019E+02 0.  0.
         11    1    3    3    0    0 -0.82053177066E+02  0.41610445280E+03 -0.31981137664E+02  0.42532156385E+03  0.00000000000E+00 0. -1.
        -11    1    3    3    0    0  0.20698006764E+02  0.25344863301E+03 -0.14994310607E+02  0.25473406998E+03  0.00000000000E+00 0.  1.
          2    1    6    6  502    0  0.92312919049E+02  0.13687166746E+03  0.15833555676E+03  0.22874806428E+03  0.00000000000E+00 0. -1.
          3    1    5    5  503    0 -0.31755564341E+02 -0.29148014366E+03  0.43894135809E+03  0.52786229819E+03  0.00000000000E+00 0. -1.
         -2    1    5    5    0  503  0.11202170945E+02 -0.58492415704E+03  0.73106289398E+03  0.93633045079E+03  0.00000000000E+00 0.  1.
         -3    1    6    6    0  502 -0.10404355352E+02  0.69979547413E+02  0.54521449472E+02  0.89319517010E+02  0.00000000000E+00 0.  1.
<mgrwt>
<rscale>  0 0.20684315E+04</rscale>
<asrwt>0</asrwt>
<pdfrwt beam="1">  1        2 0.29216936E+00 0.20684315E+04</pdfrwt>
<pdfrwt beam="2">  1       -2 0.86648474E-01 0.20684315E+04</pdfrwt>
<totfact> 0.80991454E+00</totfact>
</mgrwt>
</event>
<event>
12    1  0.1980523E-007  0.2497836E+04  0.7818608E-02  0.8403757E-01
         -2   -1    0    0    0  501 -0.00000000000E+00  0.00000000000E+00  0.45220884434E+03  0.45220884434E+03  0.00000000000E+00 0.  1.
          2   -1    0    0  501    0  0.00000000000E+00 -0.00000000000E+00 -0.34492837739E+04  0.34492837739E+04  0.00000000000E+00 0. -1.
         23    2    1    2    0    0 -0.23278954186E+03  0.85822985252E+03 -0.33493861990E+03  0.95474428366E+03  0.92754070093E+02 0.  0.
        254    2    1    2    0    0  0.23278954186E+03 -0.85822985252E+03 -0.26621363097E+04  0.29467483346E+04  0.89755588440E+03 0.  0.
        -24    2    4    4    0    0  0.51083843582E+03 -0.65861345808E+03 -0.13471729047E+04  0.15857520307E+04  0.70760674389E+02 0.  0.
         24    2    4    4    0    0 -0.27804889397E+03 -0.19961639445E+03 -0.13149634050E+04  0.13609963039E+04  0.77616302619E+02 0.  0.
         11    1    3    3    0    0 -0.17373774156E+03  0.50286546133E+03 -0.16990859787E+03  0.55850461652E+03  0.00000000000E+00 0.  1.
        -11    1    3    3    0    0 -0.59051800302E+02  0.35536439119E+03 -0.16503002202E+03  0.39623966714E+03  0.00000000000E+00 0. -1.
          4    1    6    6  502    0 -0.22860070769E+03 -0.16395250473E+03 -0.94290955633E+03  0.98398025325E+03  0.00000000000E+00 0. -1.
          3    1    5    5  503    0  0.42324264499E+03 -0.51938261725E+03 -0.11234573844E+04  0.13080707680E+04  0.00000000000E+00 0. -1.
         -4    1    5    5    0  503  0.87595790830E+02 -0.13923084083E+03 -0.22371552029E+03  0.27768126265E+03  0.00000000000E+00 0.  1.
         -3    1    6    6    0  502 -0.49448186277E+02 -0.35663889711E+02 -0.37205384865E+03  0.37701605065E+03  0.00000000000E+00 0.  1.
<mgrwt>
<rscale>  0 0.24978364E+04</rscale>
<asrwt>0</asrwt>
<pdfrwt beam="1">  1        2 0.53065905E+00 0.24978364E+04</pdfrwt>
<pdfrwt beam="2">  1       -2 0.69570590E-01 0.24978364E+04</pdfrwt>
<totfact> 0.14837939E+00</totfact>
</mgrwt>
</event>
<event>
12    1  0.1980523E-007  0.1368915E+04  0.7818608E-02  0.8976632E-01
         -2   -1    0    0    0  501 -0.00000000000E+00  0.00000000000E+00  0.53506128909E+03  0.53506128909E+03  0.00000000000E+00 0. -1.
          2   -1    0    0  501    0  0.00000000000E+00 -0.00000000000E+00 -0.87556737509E+03  0.87556737509E+03  0.00000000000E+00 0.  1.
         23    2    1    2    0    0  0.32699077599E+03  0.14889345541E+03 -0.15564242596E+03  0.40176261231E+03  0.89980015843E+02 0.  0.
        254    2    1    2    0    0 -0.32699077599E+03 -0.14889345541E+03 -0.18486366005E+03  0.10088660519E+04  0.92441544187E+03 0.  0.
        -24    2    4    4    0    0 -0.11181481784E+03 -0.48547882926E+03 -0.29873045730E+03  0.58622789408E+03  0.78936750164E+02 0.  0.
         24    2    4    4    0    0 -0.21517595815E+03  0.33658537386E+03  0.11386679725E+03  0.42263815779E+03  0.77890680079E+02 0.  0.
         13    1    3    3    0    0  0.22447802395E+03  0.76677393561E+02 -0.61771125367E+02  0.24512339311E+03  0.00000000000E+00 0. -1.
        -13    1    3    3    0    0  0.10251275204E+03  0.72216061845E+02 -0.93871300590E+02  0.15663921921E+03  0.00000000000E+00 0.  1.
          4    1    6    6  502    0 -0.10446445110E+02  0.18572083749E+02  0.27319907174E+02  0.34647190914E+02  0.00000000000E+00 0. -1.
          3    1    5    5  503    0 -0.82356339240E+02 -0.20651404939E+03 -0.15505505416E+03  0.27105846054E+03  0.00000000000E+00 0. -1.
         -4    1    5    5    0  503 -0.29458478597E+02 -0.27896477987E+03 -0.14367540313E+03  0.31516943354E+03  0.00000000000E+00 0.  1.
         -3    1    6    6    0  502 -0.20472951304E+03  0.31801329011E+03  0.86546890074E+02  0.38799096688E+03  0.00000000000E+00 0.  1.
<mgrwt>
<rscale>  0 0.13689152E+04</rscale>
<asrwt>0</asrwt>
<pdfrwt beam="1">  1        2 0.13470267E+00 0.13689152E+04</pdfrwt>
<pdfrwt beam="2">  1       -2 0.82317123E-01 0.13689152E+04</pdfrwt>
<totfact> 0.38532595E+01</totfact>
</mgrwt>
</event>
<event>
12    1  0.1980523E-007  0.1620700E+04  0.7818608E-02  0.8807931E-01
         -2   -1    0    0    0  501 -0.00000000000E+00  0.00000000000E+00  0.82623362436E+03  0.82623362436E+03  0.00000000000E+00 0.  1.
          2   -1    0    0  501    0  0.00000000000E+00 -0.00000000000E+00 -0.79477171709E+03  0.79477171709E+03  0.00000000000E+00 0. -1.
         23    2    1    2    0    0 -0.55146048463E+03 -0.27399171106E+02  0.45511672345E+02  0.56117075374E+03  0.89341602039E+02 0.  0.
        254    2    1    2    0    0  0.55146048463E+03  0.27399171106E+02 -0.14049765073E+02  0.10598345877E+04  0.90453998071E+03 0.  0.
        -24    2    4    4    0    0  0.67253918569E+02 -0.39471667462E+03  0.37283594287E+02  0.41006783829E+03  0.80257229053E+02 0.  0.
         24    2    4    4    0    0  0.48420656606E+03  0.42211584572E+03 -0.51333359360E+02  0.64976674941E+03  0.83210149812E+02 0.  0.
         11    1    3    3    0    0 -0.90958327517E+02 -0.17944811888E+02 -0.22953970561E+02  0.95510828616E+02  0.00000000000E+00 0. -1.
        -11    1    3    3    0    0 -0.46050215711E+03 -0.94543592181E+01  0.68465642906E+02  0.46565992513E+03  0.00000000000E+00 0.  1.
          2    1    6    6  502    0  0.36664676312E+03  0.32293033915E+03 -0.31812678431E+01  0.48859387359E+03  0.00000000000E+00 0. -1.
          1    1    5    5  503    0  0.68862111750E+02 -0.36515471423E+03  0.54888774453E+02  0.37562312671E+03  0.00000000000E+00 0. -1.
         -2    1    5    5    0  503 -0.16081931814E+01 -0.29561960382E+02 -0.17605180166E+02  0.34444711577E+02  0.00000000000E+00 0.  1.
         -1    1    6    6    0  502  0.11755980294E+03  0.99185506576E+02 -0.48152091517E+02  0.16117287582E+03  0.00000000000E+00 0.  1.
<mgrwt>
<rscale>  0 0.16207000E+04</rscale>
<asrwt>0</asrwt>
<pdfrwt beam="1">  1        2 0.12227257E+00 0.16207000E+04</pdfrwt>
<pdfrwt beam="2">  1       -2 0.12711286E+00 0.16207000E+04</pdfrwt>
<totfact> 0.15290240E+01</totfact>
</mgrwt>
</event>
<event>
12    1  0.1980523E-007  0.2852428E+04  0.7818608E-02  0.8287174E-01
         -1   -1    0    0    0  501 -0.00000000000E+00  0.00000000000E+00  0.92132566746E+03  0.92132566746E+03  0.00000000000E+00 0.  1.
          1   -1    0    0  501    0  0.00000000000E+00 -0.00000000000E+00 -0.22077818454E+04  0.22077818454E+04  0.00000000000E+00 0. -1.
         23    2    1    2    0    0 -0.27363965593E+03  0.57357943178E+03 -0.18007218364E+04  0.19117919239E+04  0.92071722541E+02 0.  0.
        254    2    1    2    0    0  0.27363965593E+03 -0.57357943178E+03  0.51426565850E+03  0.12173155890E+04  0.90195124581E+03 0.  0.
        -24    2    4    4    0    0 -0.34630155726E+02 -0.41392986870E+02  0.58552643871E+03  0.59298721592E+03  0.76681163061E+02 0.  0.
         24    2    4    4    0    0  0.30826981166E+03 -0.53218644491E+03 -0.71260780213E+02  0.62432837307E+03  0.80343821738E+02 0.  0.
         13    1    3    3    0    0 -0.21194989799E+03  0.50583419566E+03 -0.15927755182E+04  0.16845547911E+04  0.00000000000E+00 0. -1.
        -13    1    3    3    0    0 -0.61689757942E+02  0.67745236123E+02 -0.20794631821E+03  0.22723713277E+03  0.00000000000E+00 0.  1.
          2    1    6    6  502    0  0.19098850290E+03 -0.25858991562E+03 -0.55566348884E+02  0.32624066551E+03  0.00000000000E+00 0. -1.
          1    1    5    5  503    0 -0.58107294337E+02 -0.39256639663E+02  0.44791680976E+03  0.45337292583E+03  0.00000000000E+00 0. -1.
         -2    1    5    5    0  503  0.23477138611E+02 -0.21363472071E+01  0.13760962895E+03  0.13961429009E+03  0.00000000000E+00 0.  1.
         -1    1    6    6    0  502  0.11728130875E+03 -0.27359652929E+03 -0.15694431330E+02  0.29808770756E+03  0.00000000000E+00 0.  1.
<mgrwt>
<rscale>  0 0.28524278E+04</rscale>
<asrwt>0</asrwt>
<pdfrwt beam="1">  1        1 0.33965874E+00 0.28524278E+04</pdfrwt>
<pdfrwt beam="2">  1       -1 0.14174241E+00 0.28524278E+04</pdfrwt>
<totfact> 0.75243162E-01</totfact>
</mgrwt>
</event>
<event>
12    1  0.1980523E-007  0.1930677E+04  0.7818608E-02  0.8639735E-01
         -2   -1    0    0    0  501 -0.00000000000E+00  0.00000000000E+00  0.20530093590E+04  0.20530093590E+04  0.00000000000E+00 0.  1.
          2   -1    0    0  501    0  0.00000000000E+00 -0.00000000000E+00 -0.45390862541E+03  0.45390862541E+03  0.00000000000E+00 0. -1.
         23    2    1    2    0    0  0.32628982512E+03  0.58736739482E+03  0.10644255553E+04  0.12619865937E+04  0.90237981786E+02 0.  0.
        254    2    1    2    0    0 -0.32628982512E+03 -0.58736739482E+03  0.53467517828E+03  0.12449313907E+04  0.90139398427E+03 0.  0.
        -24    2    4    4    0    0 -0.46353767304E+03 -0.74246175610E+03  0.31742549501E+03  0.93424754744E+03  0.77090216020E+02 0.  0.
         24    2    4    4    0    0  0.13724784792E+03  0.15509436128E+03  0.21724968327E+03  0.31068384330E+03  0.80223394003E+02 0.  0.
         13    1    3    3    0    0  0.20823911888E+03  0.29537065158E+03  0.61168087489E+03  0.71046523149E+03  0.00000000000E+00 0. -1.
        -13    1    3    3    0    0  0.11805070624E+03  0.29199674324E+03  0.45274468041E+03  0.55152136218E+03  0.00000000000E+00 0.  1.
          2    1    6    6  502    0  0.78279918275E+02  0.80387148389E+02  0.17184420482E+03  0.20523223421E+03  0.00000000000E+00 0. -1.
          1    1    5    5  503    0 -0.92272034434E+02 -0.13976849964E+03  0.29475103681E+02  0.17005335506E+03  0.00000000000E+00 0. -1.
         -2    1    5    5    0  503 -0.37126563861E+03 -0.60269325646E+03  0.28795039133E+03  0.76419419238E+03  0.00000000000E+00 0.  1.
         -1    1    6    6    0  502  0.58967929646E+02  0.74707212891E+02  0.45405478452E+02  0.10545160908E+03  0.00000000000E+00 0.  1.
<mgrwt>
<rscale>  0 0.19306772E+04</rscale>
<asrwt>0</asrwt>
<pdfrwt beam="1">  1        2 0.69832097E-01 0.19306772E+04</pdfrwt>
<pdfrwt beam="2">  1       -2 0.31584759E+00 0.19306772E+04</pdfrwt>
<totfact> 0.16369621E+00</totfact>
</mgrwt>
</event>
<event>
12    1  0.1980523E-007  0.2475010E+04  0.7818608E-02  0.8411943E-01
         -2   -1    0    0    0  501 -0.00000000000E+00  0.00000000000E+00  0.11365666786E+04  0.11365666786E+04  0.00000000000E+00 0.  1.
          2   -1    0    0  501    0  0.00000000000E+00 -0.00000000000E+00 -0.13474079046E+04  0.13474079046E+04  0.00000000000E+00 0. -1.
         23    2    1    2    0    0  0.53716755062E+03  0.19099766133E+03 -0.99945176987E+03  0.11541301573E+04  0.89908262684E+02 0.  0.
        254    2    1    2    0    0 -0.53716755062E+03 -0.19099766133E+03  0.78861054391E+03  0.13298444258E+04  0.90639424251E+03 0.  0.
        -24    2    4    4    0    0 -0.21802561159E+03 -0.36312598395E+03 -0.28483589454E+02  0.43215368824E+03  0.80931130375E+02 0.  0.
         24    2    4    4    0    0 -0.31914193903E+03  0.17212832262E+03  0.81709413336E+03  0.89769073758E+03  0.82012809135E+02 0.  0.
         11    1    3    3    0    0  0.14421234139E+03  0.84523306816E+02 -0.24064711900E+03  0.29300584412E+03  0.00000000000E+00 0.  1.
        -11    1    3    3    0    0  0.39295520923E+03  0.10647435452E+03 -0.75880465086E+03  0.86112431321E+03  0.00000000000E+00 0. -1.
          2    1    6    6  502    0 -0.88428045096E+02  0.86944409942E+02  0.23340045124E+03  0.26430024635E+03  0.00000000000E+00 0. -1.
          3    1    5    5  503    0 -0.10516405458E+03 -0.24689640344E+03 -0.46510655305E+01  0.26840071687E+03  0.00000000000E+00 0. -1.
         -4    1    5    5    0  503 -0.11286155700E+03 -0.11622958051E+03 -0.23832523923E+02  0.16375297137E+03  0.00000000000E+00 0.  1.
         -1    1    6    6    0  502 -0.23071389394E+03  0.85183912680E+02  0.58369368212E+03  0.63339049123E+03  0.00000000000E+00 0.  1.
<mgrwt>
<rscale>  0 0.24750102E+04</rscale>
<asrwt>0</asrwt>
<pdfrwt beam="1">  1        2 0.20729352E+00 0.24750102E+04</pdfrwt>
<pdfrwt beam="2">  1       -2 0.17485641E+00 0.24750102E+04</pdfrwt>
<totfact> 0.27310382E+00</totfact>
</mgrwt>
</event>
<event>
12    1  0.1980523E-007  0.2115478E+04  0.7818608E-02  0.8554456E-01
         -2   -1    0    0    0  501 -0.00000000000E+00  0.00000000000E+00  0.33267860053E+03  0.33267860053E+03  0.00000000000E+00 0.  1.
          2   -1    0    0  501    0  0.00000000000E+00 -0.00000000000E+00 -0.33630395220E+04  0.33630395220E+04  0.00000000000E+00 0. -1.
         23    2    1    2    0    0  0.55077560196E+03  0.66109601258E+03 -0.11507932844E+04  0.14396606455E+04  0.88858816623E+02 0.  0.
        254    2    1    2    0    0 -0.55077560196E+03 -0.66109601258E+03 -0.18795676371E+04  0.22560574770E+04  0.90366981557E+03 0.  0.
        -24    2    4    4    0    0 -0.60991978293E+03 -0.82441275303E+03 -0.13800729164E+04  0.17211951888E+04  0.79076508489E+02 0.  0.
         24    2    4    4    0    0  0.59144180975E+02  0.16331674045E+03 -0.49949472064E+03  0.53486228822E+03  0.80076835330E+02 0.  0.
         13    1    3    3    0    0  0.18061263302E+03  0.16958247555E+03 -0.28736049253E+03  0.37941427475E+03  0.00000000000E+00 0.  1.
        -13    1    3    3    0    0  0.37016296894E+03  0.49151353703E+03 -0.86343279185E+03  0.10602463708E+04  0.00000000000E+00 0. -1.
          4    1    6    6  502    0  0.70624441876E+02  0.12597741196E+03 -0.44473036870E+03  0.46759300781E+03  0.00000000000E+00 0. -1.
          1    1    5    5  503    0 -0.59495392268E+03 -0.78305218689E+03 -0.13360249253E+04  0.16589465027E+04  0.00000000000E+00 0. -1.
         -2    1    5    5    0  503 -0.14965860251E+02 -0.41360566142E+02 -0.44047991075E+02  0.62248686110E+02  0.00000000000E+00 0.  1.
         -3    1    6    6    0  502 -0.11480260901E+02  0.37339328489E+02 -0.54764351939E+02  0.67269280402E+02  0.00000000000E+00 0.  1.
<mgrwt>
<rscale>  0 0.21154775E+04</rscale>
<asrwt>0</asrwt>
<pdfrwt beam="1">  1        2 0.51739069E+00 0.21154775E+04</pdfrwt>
<pdfrwt beam="2">  1       -2 0.51181323E-01 0.21154775E+04</pdfrwt>
<totfact> 0.33661482E+00</totfact>
</mgrwt>
</event>
<event>
12    1  0.1980523E-007  0.5265644E+04  0.7818608E-02  0.7788786E-01
         -2   -1    0    0    0  501 -0.00000000000E+00  0.00000000000E+00  0.18474949460E+04  0.18474949460E+04  0.00000000000E+00 0.  1.
          2   -1    0    0  501    0  0.00000000000E+00 -0.00000000000E+00 -0.37519737066E+04  0.37519737066E+04  0.00000000000E+00 0. -1.
         23    2    1    2    0    0  0.22572962612E+04  0.91366037232E+03 -0.98638117043E+02  0.24385725131E+04  0.82126345275E+02 0.  0.
        254    2    1    2    0    0 -0.22572962612E+04 -0.91366037232E+03 -0.18058406435E+04  0.31608961395E+04  0.89445083040E+03 0.  0.
        -24    2    4    4    0    0 -0.22537628253E+04 -0.73029660720E+03 -0.15348745737E+04  0.28240380487E+04  0.81061310637E+02 0.  0.
         24    2    4    4    0    0 -0.35334358705E+01 -0.18336376512E+03 -0.27096606983E+03  0.33685809080E+03  0.80099980101E+02 0.  0.
         13    1    3    3    0    0  0.21269851661E+03  0.72639904194E+02 -0.29402620679E+02  0.22667538189E+03  0.00000000000E+00 0.  1.
        -13    1    3    3    0    0  0.20445977446E+04  0.84102046813E+03 -0.69235496364E+02  0.22118971312E+04  0.00000000000E+00 0. -1.
          4    1    6    6  502    0 -0.65121717812E+01 -0.91379672374E+02 -0.20215858436E+03  0.22194762025E+03  0.00000000000E+00 0. -1.
          3    1    5    5  503    0 -0.19996485749E+04 -0.64888473882E+03 -0.13307680444E+04  0.24880895111E+04  0.00000000000E+00 0. -1.
         -4    1    5    5    0  503 -0.25411425042E+03 -0.81411868384E+02 -0.20410652927E+03  0.33594853754E+03  0.00000000000E+00 0.  1.
         -3    1    6    6    0  502  0.29787359107E+01 -0.91984092744E+02 -0.68807485471E+02  0.11491047055E+03  0.00000000000E+00 0.  1.
<mgrwt>
<rscale>  0 0.52656443E+04</rscale>
<asrwt>0</asrwt>
<pdfrwt beam="1">  1        2 0.57722673E+00 0.52656443E+04</pdfrwt>
<pdfrwt beam="2">  1       -2 0.28422999E+00 0.52656443E+04</pdfrwt>
<totfact> 0.15054880E-02</totfact>
</mgrwt>
</event>
<event>
12    1  0.1980523E-007  0.1574440E+04  0.7818608E-02  0.8836406E-01
         -1   -1    0    0    0  501 -0.00000000000E+00  0.00000000000E+00  0.36279746103E+03  0.36279746103E+03  0.00000000000E+00 0.  1.
          1   -1    0    0  501    0  0.00000000000E+00 -0.00000000000E+00 -0.17081570522E+04  0.17081570522E+04  0.00000000000E+00 0. -1.
         23    2    1    2    0    0  0.21829949088E+03 -0.37896185403E+03 -0.83626725511E+03  0.94792147734E+03  0.89137257721E+02 0.  0.
        254    2    1    2    0    0 -0.21829949088E+03  0.37896185403E+03 -0.50909233604E+03  0.11230330359E+04  0.90042292204E+03 0.  0.
        -24    2    4    4    0    0 -0.11031832856E+03 -0.24253168982E+03 -0.38509578919E+03  0.47539416305E+03  0.81909030174E+02 0.  0.
         24    2    4    4    0    0 -0.10798116232E+03  0.62149354385E+03 -0.12399654685E+03  0.64763887283E+03  0.78401591196E+02 0.  0.
         11    1    3    3    0    0  0.77916759818E+02 -0.10026428427E+03 -0.16992616934E+03  0.21212932656E+03  0.00000000000E+00 0. -1.
        -11    1    3    3    0    0  0.14038273106E+03 -0.27869756976E+03 -0.66634108577E+03  0.73579215078E+03  0.00000000000E+00 0.  1.
          2    1    6    6  502    0 -0.10504041867E+03  0.49793900443E+03 -0.73699109299E+02  0.51420647643E+03  0.00000000000E+00 0. -1.
          1    1    5    5  503    0 -0.87737381810E+02 -0.10637846661E+03 -0.15859986900E+03  0.21016218682E+03  0.00000000000E+00 0. -1.
         -2    1    5    5    0  503 -0.22580946752E+02 -0.13615322322E+03 -0.22649592020E+03  0.26523197623E+03  0.00000000000E+00 0.  1.
         -1    1    6    6    0  502 -0.29407436442E+01  0.12355453942E+03 -0.50297437554E+02  0.13343239640E+03  0.00000000000E+00 0.  1.
<mgrwt>
<rscale>  0 0.15744396E+04</rscale>
<asrwt>0</asrwt>
<pdfrwt beam="1">  1        1 0.26279339E+00 0.15744396E+04</pdfrwt>
<pdfrwt beam="2">  1       -1 0.55814994E-01 0.15744396E+04</pdfrwt>
<totfact> 0.14689889E+01</totfact>
</mgrwt>
</event>
<event>
12    1  0.1980523E-007  0.2023862E+04  0.7818608E-02  0.8595545E-01
         -2   -1    0    0    0  501 -0.00000000000E+00  0.00000000000E+00  0.10383943113E+04  0.10383943113E+04  0.00000000000E+00 0.  1.
          2   -1    0    0  501    0  0.00000000000E+00 -0.00000000000E+00 -0.98614176623E+03  0.98614176623E+03  0.00000000000E+00 0. -1.
         23    2    1    2    0    0  0.61933667170E+03 -0.37392377336E+03 -0.34272967283E+03  0.80496847318E+03  0.84342830053E+02 0.  0.
        254    2    1    2    0    0 -0.61933667170E+03  0.37392377336E+03  0.39498221785E+03  0.12195676043E+04  0.89885331831E+03 0.  0.
        -24    2    4    4    0    0 -0.34421144051E+03 -0.26290242616E+03  0.24896502510E+03  0.50598543396E+03  0.80240103489E+02 0.  0.
         24    2    4    4    0    0 -0.27512523120E+03  0.63682619952E+03  0.14601719276E+03  0.71358217034E+03  0.81467736029E+02 0.  0.
         11    1    3    3    0    0  0.19971158618E+03 -0.11910065146E+03 -0.67423706544E+02  0.24210666872E+03  0.00000000000E+00 0.  1.
        -11    1    3    3    0    0  0.41962508552E+03 -0.25482312190E+03 -0.27530596629E+03  0.56286180446E+03  0.00000000000E+00 0. -1.
          2    1    6    6  502    0 -0.20857581229E+03  0.39253567189E+03  0.76759217156E+02  0.45108768615E+03  0.00000000000E+00 0. -1.
          1    1    5    5  503    0 -0.22489066327E+03 -0.21370551529E+03  0.19252920575E+03  0.36512101112E+03  0.00000000000E+00 0. -1.
         -2    1    5    5    0  503 -0.11932077723E+03 -0.49196910867E+02  0.56435819344E+02  0.14086442285E+03  0.00000000000E+00 0.  1.
         -1    1    6    6    0  502 -0.66549418906E+02  0.24429052763E+03  0.69257975599E+02  0.26249448419E+03  0.00000000000E+00 0.  1.
<mgrwt>
<rscale>  0 0.20238617E+04</rscale>
<asrwt>0</asrwt>
<pdfrwt beam="1">  1        2 0.15171412E+00 0.20238617E+04</pdfrwt>
<pdfrwt beam="2">  1       -2 0.15975297E+00 0.20238617E+04</pdfrwt>
<totfact> 0.60301026E+00</totfact>
</mgrwt>
</event>
<event>
12    1  0.1980523E-007  0.1610426E+04  0.7818608E-02  0.8814168E-01
         -1   -1    0    0    0  501 -0.00000000000E+00  0.00000000000E+00  0.20440182768E+03  0.20440182768E+03  0.00000000000E+00 0.  1.
          1   -1    0    0  501    0  0.00000000000E+00 -0.00000000000E+00 -0.31720279813E+04  0.31720279813E+04  0.00000000000E+00 0. -1.
         23    2    1    2    0    0  0.43235474843E+03 -0.30298110564E+03 -0.78629443280E+03  0.95142898260E+03  0.90719319938E+02 0.  0.
        254    2    1    2    0    0 -0.43235474843E+03  0.30298110564E+03 -0.21813317208E+04  0.24250008264E+04  0.91852749161E+03 0.  0.
        -24    2    4    4    0    0 -0.29327204981E+03 -0.48233867382E+02 -0.12409241205E+03  0.33178820719E+03  0.79683665486E+02 0.  0.
         24    2    4    4    0    0 -0.13908269862E+03  0.35121497303E+03 -0.20572393088E+04  0.20932126192E+04  0.81299085124E+02 0.  0.
         13    1    3    3    0    0  0.26720932809E+03 -0.21255922841E+03 -0.57213693376E+03  0.66627540970E+03  0.00000000000E+00 0. -1.
        -13    1    3    3    0    0  0.16514542034E+03 -0.90421877231E+02 -0.21415749905E+03  0.28515357290E+03  0.00000000000E+00 0.  1.
          2    1    6    6  502    0 -0.13405512036E+03  0.26410220587E+03 -0.14716243705E+04  0.15011325852E+04  0.00000000000E+00 0. -1.
          3    1    5    5  503    0 -0.19662391781E+02 -0.68569183051E+01 -0.35634804444E+02  0.41273069512E+02  0.00000000000E+00 0. -1.
         -4    1    5    5    0  503 -0.27360965802E+03 -0.41376949077E+02 -0.88457607602E+02  0.29051513768E+03  0.00000000000E+00 0.  1.
         -1    1    6    6    0  502 -0.50275782629E+01  0.87112767160E+02 -0.58561493828E+03  0.59208003402E+03  0.00000000000E+00 0.  1.
<mgrwt>
<rscale>  0 0.16104264E+04</rscale>
<asrwt>0</asrwt>
<pdfrwt beam="1">  1        1 0.48800430E+00 0.16104264E+04</pdfrwt>
<pdfrwt beam="2">  1       -1 0.31446435E-01 0.16104264E+04</pdfrwt>
<totfact> 0.40414282E+00</totfact>
</mgrwt>
</event>
<event>
12    1  0.1980523E-007  0.1963448E+04  0.7818608E-02  0.8623903E-01
          2   -1    0    0  501    0  0.00000000000E+00  0.00000000000E+00  0.14492928736E+04  0.14492928736E+04  0.00000000000E+00 0. -1.
         -2   -1    0    0    0  501 -0.00000000000E+00 -0.00000000000E+00 -0.66500143449E+03  0.66500143449E+03  0.00000000000E+00 0.  1.
         23    2    1    2    0    0  0.32369115075E+03  0.55046921101E+03 -0.16587613583E+03  0.66621836864E+03  0.92410545508E+02 0.  0.
        254    2    1    2    0    0 -0.32369115075E+03 -0.55046921101E+03  0.95016757490E+03  0.14480759394E+04  0.88674302508E+03 0.  0.
        -24    2    4    4    0    0  0.27597399398E+03 -0.35326555162E+03  0.42965913584E+03  0.62603431514E+03  0.79710698219E+02 0.  0.
         24    2    4    4    0    0 -0.59966514473E+03 -0.19720365939E+03  0.52050843906E+03  0.82204162426E+03  0.79597913272E+02 0.  0.
         13    1    3    3    0    0  0.17780529527E+03  0.38068118709E+03 -0.88573341872E+02  0.42939274111E+03  0.00000000000E+00 0. -1.
        -13    1    3    3    0    0  0.14588585548E+03  0.16978802392E+03 -0.77302793962E+02  0.23682562753E+03  0.00000000000E+00 0.  1.
          4    1    6    6  502    0 -0.49993774883E+03 -0.17887124982E+03  0.40143673711E+03  0.66564564944E+03  0.00000000000E+00 0. -1.
          3    1    5    5  503    0  0.25271327636E+03 -0.30459414499E+03  0.40644070627E+03  0.56730559748E+03  0.00000000000E+00 0. -1.
         -4    1    5    5    0  503  0.23260717619E+02 -0.48671406627E+02  0.23218429571E+02  0.58728717668E+02  0.00000000000E+00 0.  1.
         -3    1    6    6    0  502 -0.99727395901E+02 -0.18332409569E+02  0.11907170195E+03  0.15639597481E+03  0.00000000000E+00 0.  1.
<mgrwt>
<rscale>  0 0.19634478E+04</rscale>
<asrwt>0</asrwt>
<pdfrwt beam="1">  1        2 0.22296813E+00 0.19634478E+04</pdfrwt>
<pdfrwt beam="2">  1       -2 0.10230791E+00 0.19634478E+04</pdfrwt>
<totfact> 0.98876873E+00</totfact>
</mgrwt>
</event>
<event>
12    1  0.1980523E-007  0.2333641E+04  0.7818608E-02  0.8464774E-01
          2   -1    0    0  501    0  0.00000000000E+00  0.00000000000E+00  0.12632301691E+04  0.12632301691E+04  0.00000000000E+00 0. -1.
         -2   -1    0    0    0  501 -0.00000000000E+00 -0.00000000000E+00 -0.10777688205E+04  0.10777688205E+04  0.00000000000E+00 0.  1.
         23    2    1    2    0    0 -0.91235906322E+03  0.16947548170E+03  0.42806301355E+03  0.10259497063E+04  0.90630332068E+02 0.  0.
        254    2    1    2    0    0  0.91235906322E+03 -0.16947548170E+03 -0.24260166498E+03  0.13150492833E+04  0.89965440620E+03 0.  0.
        -24    2    4    4    0    0  0.10842389538E+04 -0.11837318375E+03 -0.23467009068E+03  0.11185366124E+04  0.80422522743E+02 0.  0.
         24    2    4    4    0    0 -0.17187989058E+03 -0.51102297950E+02 -0.79315743052E+01  0.19651267097E+03  0.80001114623E+02 0.  0.
         13    1    3    3    0    0 -0.61957652987E+03  0.74819333226E+02  0.30391995025E+03  0.69414720712E+03  0.00000000000E+00 0.  1.
        -13    1    3    3    0    0 -0.29278253335E+03  0.94656148471E+02  0.12414306330E+03  0.33180249915E+03  0.00000000000E+00 0. -1.
          4    1    6    6  502    0 -0.12930608573E+03 -0.56963011837E+02 -0.35200922535E+02  0.14561577343E+03  0.00000000000E+00 0. -1.
          1    1    5    5  503    0  0.31798896472E+03 -0.24161223981E+02 -0.32984666304E+02  0.32060682251E+03  0.00000000000E+00 0. -1.
         -2    1    5    5    0  503  0.76624998908E+03 -0.94211959766E+02 -0.20168542437E+03  0.79792978985E+03  0.00000000000E+00 0.  1.
         -3    1    6    6    0  502 -0.42573804846E+02  0.58607138871E+01  0.27269348230E+02  0.50896897540E+02  0.00000000000E+00 0.  1.
<mgrwt>
<rscale>  0 0.23336410E+04</rscale>
<asrwt>0</asrwt>
<pdfrwt beam="1">  1        2 0.19434310E+00 0.23336410E+04</pdfrwt>
<pdfrwt beam="2">  1       -2 0.16581059E+00 0.23336410E+04</pdfrwt>
<totfact> 0.35879385E+00</totfact>
</mgrwt>
</event>
<event>
12    1  0.1980523E-007  0.1620543E+04  0.7818608E-02  0.8808026E-01
         -1   -1    0    0    0  501 -0.00000000000E+00  0.00000000000E+00  0.95914999116E+03  0.95914999116E+03  0.00000000000E+00 0.  1.
          1   -1    0    0  501    0  0.00000000000E+00 -0.00000000000E+00 -0.68450174229E+03  0.68450174229E+03  0.00000000000E+00 0. -1.
         23    2    1    2    0    0  0.20557425679E+03 -0.38871912644E+03 -0.25190151965E+03  0.50996643966E+03  0.56991750853E+02 0.  0.
        254    2    1    2    0    0 -0.20557425679E+03  0.38871912644E+03  0.52654976852E+03  0.11336852938E+04  0.90256542827E+03 0.  0.
        -24    2    4    4    0    0 -0.40216524303E+03  0.31540925823E+03 -0.45386786767E+02  0.51914742347E+03  0.78956975611E+02 0.  0.
         24    2    4    4    0    0  0.19659098624E+03  0.73309868204E+02  0.57193655529E+03  0.61453787032E+03  0.80765203742E+02 0.  0.
         13    1    3    3    0    0  0.67113629929E+01 -0.31275746060E+02 -0.55326196022E+01  0.32462664162E+02  0.00000000000E+00 0.  1.
        -13    1    3    3    0    0  0.19886289380E+03 -0.35744338038E+03 -0.24636890005E+03  0.47750377550E+03  0.00000000000E+00 0. -1.
          4    1    6    6  502    0  0.85170131058E+02 -0.19619579095E+01  0.16083446312E+03  0.18200418960E+03  0.00000000000E+00 0. -1.
          3    1    5    5  503    0 -0.37666408620E+02  0.38299725939E+02  0.18549384817E+02  0.56830511369E+02  0.00000000000E+00 0. -1.
         -4    1    5    5    0  503 -0.36449883441E+03  0.27710953230E+03 -0.63936171584E+02  0.46231691210E+03  0.00000000000E+00 0.  1.
         -3    1    6    6    0  502  0.11142085518E+03  0.75271826114E+02  0.41110209216E+03  0.43253368072E+03  0.00000000000E+00 0.  1.
<mgrwt>
<rscale>  0 0.16205429E+04</rscale>
<asrwt>0</asrwt>
<pdfrwt beam="1">  1        1 0.10530796E+00 0.16205429E+04</pdfrwt>
<pdfrwt beam="2">  1       -1 0.14756154E+00 0.16205429E+04</pdfrwt>
<totfact> 0.98456488E+00</totfact>
</mgrwt>
</event>
<event>
12    1  0.1980523E-007  0.1717488E+04  0.7818608E-02  0.8751453E-01
         -2   -1    0    0    0  501 -0.00000000000E+00  0.00000000000E+00  0.33918036634E+03  0.33918036634E+03  0.00000000000E+00 0.  1.
          2   -1    0    0  501    0  0.00000000000E+00 -0.00000000000E+00 -0.21741856824E+04  0.21741856824E+04  0.00000000000E+00 0. -1.
         23    2    1    2    0    0  0.48725042051E+03  0.32340288060E+03 -0.37911007309E+03  0.70301197667E+03  0.92190001393E+02 0.  0.
        254    2    1    2    0    0 -0.48725042051E+03 -0.32340288060E+03 -0.14558952429E+04  0.18103540720E+04  0.90318797172E+03 0.  0.
        -24    2    4    4    0    0  0.98127914847E+02 -0.57281796681E+02 -0.10200583682E+04  0.10294289582E+04  0.79338601015E+02 0.  0.
         24    2    4    4    0    0 -0.58537833535E+03 -0.26612108392E+03 -0.43583687478E+03  0.78092511384E+03  0.80012656532E+02 0.  0.
         11    1    3    3    0    0  0.30395789255E+03  0.22197155056E+03 -0.29097943359E+03  0.47574236775E+03  0.00000000000E+00 0. -1.
        -11    1    3    3    0    0  0.18329252795E+03  0.10143133004E+03 -0.88130639494E+02  0.22726960891E+03  0.00000000000E+00 0.  1.
          4    1    6    6  502    0 -0.52970555421E+03 -0.21296759640E+03 -0.38850290114E+03  0.69056330301E+03  0.00000000000E+00 0. -1.
          3    1    5    5  503    0  0.23931790901E+02 -0.59722745326E+02 -0.46872396566E+03  0.47311911070E+03  0.00000000000E+00 0. -1.
         -4    1    5    5    0  503  0.74196123946E+02  0.24409486443E+01 -0.55133440250E+03  0.55630984749E+03  0.00000000000E+00 0.  1.
         -3    1    6    6    0  502 -0.55672781146E+02 -0.53153487517E+02 -0.47333973641E+02  0.90361810830E+02  0.00000000000E+00 0.  1.
<mgrwt>
<rscale>  0 0.17174878E+04</rscale>
<asrwt>0</asrwt>
<pdfrwt beam="1">  1        2 0.33449011E+00 0.17174878E+04</pdfrwt>
<pdfrwt beam="2">  1       -2 0.52181595E-01 0.17174878E+04</pdfrwt>
<totfact> 0.17596750E+01</totfact>
</mgrwt>
</event>
<event>
12    1  0.1980523E-007  0.1653193E+04  0.7818608E-02  0.8788520E-01
         -1   -1    0    0    0  501 -0.00000000000E+00  0.00000000000E+00  0.12450365808E+04  0.12450365808E+04  0.00000000000E+00 0.  1.
          1   -1    0    0  501    0  0.00000000000E+00 -0.00000000000E+00 -0.54878877231E+03  0.54878877231E+03  0.00000000000E+00 0. -1.
         23    2    1    2    0    0 -0.51244100426E+03 -0.80112186682E+02  0.48980156924E+03  0.71918034974E+03  0.91110114232E+02 0.  0.
        254    2    1    2    0    0  0.51244100426E+03  0.80112186682E+02  0.20644623925E+03  0.10746450034E+04  0.91827451684E+03 0.  0.
        -24    2    4    4    0    0  0.91115532779E+02  0.45388744079E+03  0.18505769778E+03  0.50510992202E+03  0.81079174863E+02 0.  0.
         24    2    4    4    0    0  0.42132547148E+03 -0.37377525411E+03  0.21388541470E+02  0.56953508135E+03  0.81790254236E+02 0.  0.
         11    1    3    3    0    0 -0.21576377780E+03  0.10488447730E+02  0.21466505276E+03  0.30454080223E+03  0.00000000000E+00 0.  1.
        -11    1    3    3    0    0 -0.29667722646E+03 -0.90600634413E+02  0.27513651648E+03  0.41463954751E+03  0.00000000000E+00 0. -1.
          4    1    6    6  502    0  0.32741489411E+03 -0.32012550981E+03 -0.60680951680E+01  0.45794942591E+03  0.00000000000E+00 0. -1.
          1    1    5    5  503    0  0.10162463800E+03  0.33068915913E+03  0.14533567662E+03  0.37524038418E+03  0.00000000000E+00 0. -1.
         -2    1    5    5    0  503 -0.10509105220E+02  0.12319828165E+03  0.39722021161E+02  0.12986953785E+03  0.00000000000E+00 0.  1.
         -3    1    6    6    0  502  0.93910577367E+02 -0.53649744301E+02  0.27456636638E+02  0.11158565544E+03  0.00000000000E+00 0.  1.
<mgrwt>
<rscale>  0 0.16531934E+04</rscale>
<asrwt>0</asrwt>
<pdfrwt beam="1">  1        1 0.84429042E-01 0.16531934E+04</pdfrwt>
<pdfrwt beam="2">  1       -1 0.19154409E+00 0.16531934E+04</pdfrwt>
<totfact> 0.64056637E+00</totfact>
</mgrwt>
</event>
<event>
12    1  0.1980523E-007  0.9999733E+03  0.7818608E-02  0.9308574E-01
         -2   -1    0    0    0  501 -0.00000000000E+00  0.00000000000E+00  0.63517940518E+02  0.63517940518E+02  0.00000000000E+00 0.  1.
          2   -1    0    0  501    0  0.00000000000E+00 -0.00000000000E+00 -0.39356855974E+04  0.39356855974E+04  0.00000000000E+00 0. -1.
         23    2    1    2    0    0 -0.43894694174E+02  0.10399240784E+02 -0.41678419697E+03  0.42814116958E+03  0.86953469497E+02 0.  0.
        254    2    1    2    0    0  0.43894694174E+02 -0.10399240784E+02 -0.34553834599E+04  0.35710623684E+04  0.90043139392E+03 0.  0.
        -24    2    4    4    0    0 -0.35828474324E+03 -0.16468933820E+03 -0.23084579023E+04  0.23433194065E+04  0.81715476082E+02 0.  0.
         24    2    4    4    0    0  0.40217943742E+03  0.15429009741E+03 -0.11469255577E+04  0.12277429619E+04  0.79754695846E+02 0.  0.
         11    1    3    3    0    0 -0.16451197441E+01  0.12574241810E+02 -0.41488828318E+01  0.13342833463E+02  0.00000000000E+00 0.  1.
        -11    1    3    3    0    0 -0.42249574430E+02 -0.21750010262E+01 -0.41263531414E+03  0.41479833611E+03  0.00000000000E+00 0. -1.
          2    1    6    6  502    0  0.66709104854E+01  0.18552747868E+02 -0.44204482242E+02  0.48401877551E+02  0.00000000000E+00 0. -1.
          1    1    5    5  503    0 -0.20960916669E+03 -0.78114362856E+02 -0.10845362867E+04  0.11073648060E+04  0.00000000000E+00 0. -1.
         -4    1    5    5    0  503 -0.14867557655E+03 -0.86574975342E+02 -0.12239216155E+04  0.12359546005E+04  0.00000000000E+00 0.  1.
         -1    1    6    6    0  502  0.39550852693E+03  0.13573734955E+03 -0.11027210754E+04  0.11793410843E+04  0.00000000000E+00 0.  1.
<mgrwt>
<rscale>  0 0.99997329E+03</rscale>
<asrwt>0</asrwt>
<pdfrwt beam="1">  1        2 0.60549008E+00 0.99997329E+03</pdfrwt>
<pdfrwt beam="2">  1       -2 0.97719911E-02 0.99997329E+03</pdfrwt>
<totfact> 0.29023488E+01</totfact>
</mgrwt>
</event>
<event>
12    1  0.2059479E-007  0.1957034E+04  0.7818608E-02  0.8626976E-01
         -2   -1    0    0    0  501 -0.00000000000E+00  0.00000000000E+00  0.84115258267E+03  0.84115258267E+03  0.00000000000E+00 0.  1.
          2   -1    0    0  501    0  0.00000000000E+00 -0.00000000000E+00 -0.11383135734E+04  0.11383135734E+04  0.00000000000E+00 0. -1.
         23    2    1    2    0    0  0.14383554586E+02 -0.71945855367E+03 -0.39034672119E+03  0.82362106228E+03  0.90297255710E+02 0.  0.
        254    2    1    2    0    0 -0.14383554586E+02  0.71945855367E+03  0.93185730485E+02  0.11558450938E+04  0.89970373087E+03 0.  0.
        -24    2    4    4    0    0 -0.41285189585E+03  0.55709097709E+03  0.15155463099E+03  0.71434014010E+03  0.80721650898E+02 0.  0.
         24    2    4    4    0    0  0.39846834127E+03  0.16236757658E+03 -0.58368900507E+02  0.44150495367E+03  0.79871438265E+02 0.  0.
         13    1    3    3    0    0  0.15028923645E+02 -0.19344125152E+03 -0.62689986281E+02  0.20390051671E+03  0.00000000000E+00 0.  1.
        -13    1    3    3    0    0 -0.64536905826E+00 -0.52601730215E+03 -0.32765673491E+03  0.61972054557E+03  0.00000000000E+00 0. -1.
          4    1    6    6  502    0  0.68470237962E+01  0.17485736038E+02  0.43049929137E+01  0.19265660218E+02  0.00000000000E+00 0. -1.
          1    1    5    5  503    0 -0.48702137419E+02  0.39735998472E+02 -0.35048761532E+01  0.62953410715E+02  0.00000000000E+00 0. -1.
         -2    1    5    5    0  503 -0.36414975843E+03  0.51735497862E+03  0.15505950714E+03  0.65138672939E+03  0.00000000000E+00 0.  1.
         -3    1    6    6    0  502  0.39162131747E+03  0.14488184054E+03 -0.62673893421E+02  0.42223929345E+03  0.00000000000E+00 0.  1.
<mgrwt>
<rscale>  0 0.19570339E+04</rscale>
<asrwt>0</asrwt>
<pdfrwt beam="1">  1        2 0.17512516E+00 0.19570339E+04</pdfrwt>
<pdfrwt beam="2">  1       -2 0.12940809E+00 0.19570339E+04</pdfrwt>
<totfact> 0.84541511E+00</totfact>
</mgrwt>
</event>
<event>
12    1  0.1980523E-007  0.2038223E+04  0.7818608E-02  0.8588956E-01
         -1   -1    0    0    0  501 -0.00000000000E+00  0.00000000000E+00  0.10118759391E+04  0.10118759391E+04  0.00000000000E+00 0.  1.
          1   -1    0    0  501    0  0.00000000000E+00 -0.00000000000E+00 -0.10263986223E+04  0.10263986223E+04  0.00000000000E+00 0. -1.
         23    2    1    2    0    0 -0.72438049772E+03  0.14285545165E+03  0.33734335651E+03  0.81689786075E+03  0.91579414563E+02 0.  0.
        254    2    1    2    0    0  0.72438049772E+03 -0.14285545165E+03 -0.35186603973E+03  0.12213767007E+04  0.90709235997E+03 0.  0.
        -24    2    4    4    0    0  0.27088148900E+03  0.21981971365E+03 -0.50101810855E+03  0.61656065137E+03  0.86199791971E+02 0.  0.
         24    2    4    4    0    0  0.45349900872E+03 -0.36267516530E+03  0.14915206882E+03  0.60481604931E+03  0.79758933261E+02 0.  0.
         13    1    3    3    0    0 -0.45009858195E+03  0.12437761637E+03  0.24185415509E+03  0.52588207544E+03  0.00000000000E+00 0.  1.
        -13    1    3    3    0    0 -0.27428191577E+03  0.18477835276E+02  0.95489201423E+02  0.29101578531E+03  0.00000000000E+00 0. -1.
          4    1    6    6  502    0  0.24474057205E+03 -0.22472021091E+03  0.51571947413E+02  0.33623918058E+03  0.00000000000E+00 0. -1.
          3    1    5    5  503    0  0.78348695987E+02  0.94310541395E+02 -0.11979320366E+03  0.17141589198E+03  0.00000000000E+00 0. -1.
         -4    1    5    5    0  503  0.19253279302E+03  0.12550917226E+03 -0.38122490489E+03  0.44514475939E+03  0.00000000000E+00 0.  1.
         -3    1    6    6    0  502  0.20875843667E+03 -0.13795495439E+03  0.97580121407E+02  0.26857686873E+03  0.00000000000E+00 0.  1.
<mgrwt>
<rscale>  0 0.20382228E+04</rscale>
<asrwt>0</asrwt>
<pdfrwt beam="1">  1        1 0.15790748E+00 0.20382228E+04</pdfrwt>
<pdfrwt beam="2">  1       -1 0.15567322E+00 0.20382228E+04</pdfrwt>
<totfact> 0.42080120E+00</totfact>
</mgrwt>
</event>
<event>
12    1  0.1980523E-007  0.2246209E+04  0.7818608E-02  0.8499437E-01
         -1   -1    0    0    0  501 -0.00000000000E+00  0.00000000000E+00  0.83453958997E+03  0.83453958997E+03  0.00000000000E+00 0.  1.
          1   -1    0    0  501    0  0.00000000000E+00 -0.00000000000E+00 -0.15114487515E+04  0.15114487515E+04  0.00000000000E+00 0. -1.
         23    2    1    2    0    0 -0.63756744117E+03  0.66395833791E+02 -0.10024457037E+04  0.11933720819E+04  0.91317512933E+02 0.  0.
        254    2    1    2    0    0  0.63756744117E+03 -0.66395833791E+02  0.32553654217E+03  0.11526162596E+04  0.90091595213E+03 0.  0.
        -24    2    4    4    0    0  0.65304131448E+03 -0.15906640857E+03  0.56550226245E+03  0.88215010625E+03  0.81430463348E+02 0.  0.
         24    2    4    4    0    0 -0.15473873310E+02  0.92670574779E+02 -0.23996572028E+03  0.27046615335E+03  0.82104305674E+02 0.  0.
         11    1    3    3    0    0 -0.11477116060E+03  0.39324784903E+02 -0.23359655787E+03  0.26322273812E+03  0.00000000000E+00 0. -1.
        -11    1    3    3    0    0 -0.52279628057E+03  0.27071048888E+02 -0.76884914582E+03  0.93014934376E+03  0.00000000000E+00 0.  1.
          2    1    6    6  502    0 -0.28550900989E+02  0.82026847124E+02 -0.11369059190E+03  0.14307029140E+03  0.00000000000E+00 0. -1.
          3    1    5    5  503    0  0.15124384381E+03 -0.52996653064E+02  0.95960369505E+02  0.18679330299E+03  0.00000000000E+00 0. -1.
         -4    1    5    5    0  503  0.50179747067E+03 -0.10606975551E+03  0.46954189294E+03  0.69535680325E+03  0.00000000000E+00 0.  1.
         -1    1    6    6    0  502  0.13077027680E+02  0.10643727655E+02 -0.12627512839E+03  0.12739586194E+03  0.00000000000E+00 0.  1.
<mgrwt>
<rscale>  0 0.22462091E+04</rscale>
<asrwt>0</asrwt>
<pdfrwt beam="1">  1        1 0.23253058E+00 0.22462091E+04</pdfrwt>
<pdfrwt beam="2">  1       -1 0.12839071E+00 0.22462091E+04</pdfrwt>
<totfact> 0.30525255E+00</totfact>
</mgrwt>
</event>
<event>
12    1  0.1980523E-007  0.1221714E+04  0.7818608E-02  0.9094060E-01
         -1   -1    0    0    0  501 -0.00000000000E+00  0.00000000000E+00  0.14823471351E+03  0.14823471351E+03  0.00000000000E+00 0.  1.
          1   -1    0    0  501    0  0.00000000000E+00 -0.00000000000E+00 -0.25172673017E+04  0.25172673017E+04  0.00000000000E+00 0. -1.
         23    2    1    2    0    0  0.15669135833E+03 -0.15469462683E+03 -0.87147549488E+03  0.90378499046E+03  0.94208075352E+02 0.  0.
        254    2    1    2    0    0 -0.15669135833E+03  0.15469462683E+03 -0.14975570934E+04  0.17617170248E+04  0.90138061784E+03 0.  0.
        -24    2    4    4    0    0  0.20653916443E+03  0.32432828679E+03 -0.11798743006E+04  0.12433988222E+04  0.78038463308E+02 0.  0.
         24    2    4    4    0    0 -0.36323052277E+03 -0.16963365996E+03 -0.31768279271E+03  0.51831820255E+03  0.83781925535E+02 0.  0.
         11    1    3    3    0    0  0.29222359776E+02 -0.22729669797E+01 -0.44586208953E+02  0.53357686593E+02  0.00000000000E+00 0.  1.
        -11    1    3    3    0    0  0.12746899856E+03 -0.15242165985E+03 -0.82688928592E+03  0.85042730387E+03  0.00000000000E+00 0. -1.
          2    1    6    6  502    0 -0.17828792248E+03 -0.12162137406E+03 -0.13895869487E+03  0.25668630818E+03  0.00000000000E+00 0. -1.
          3    1    5    5  503    0  0.81052369516E+01 -0.37413409960E+01 -0.25677450953E+02  0.27184995603E+02  0.00000000000E+00 0. -1.
         -4    1    5    5    0  503  0.19843392748E+03  0.32806962779E+03 -0.11541968497E+04  0.12162138266E+04  0.00000000000E+00 0.  1.
         -1    1    6    6    0  502 -0.18494260029E+03 -0.48012285906E+02 -0.17872409784E+03  0.26163189437E+03  0.00000000000E+00 0.  1.
<mgrwt>
<rscale>  0 0.12217142E+04</rscale>
<asrwt>0</asrwt>
<pdfrwt beam="1">  1        1 0.38727186E+00 0.12217142E+04</pdfrwt>
<pdfrwt beam="2">  1       -1 0.22805343E-01 0.12217142E+04</pdfrwt>
<totfact> 0.21473360E+01</totfact>
</mgrwt>
</event>
<event>
12    1  0.1980523E-007  0.2288033E+04  0.7818608E-02  0.8482655E-01
          2   -1    0    0  501    0  0.00000000000E+00  0.00000000000E+00  0.11792069439E+04  0.11792069439E+04  0.00000000000E+00 0. -1.
         -2   -1    0    0    0  501 -0.00000000000E+00 -0.00000000000E+00 -0.11098761950E+04  0.11098761950E+04  0.00000000000E+00 0.  1.
         23    2    1    2    0    0  0.81146705108E+03 -0.43266750722E+03 -0.26442663111E+03  0.96129769542E+03  0.92151338457E+02 0.  0.
        254    2    1    2    0    0 -0.81146705108E+03  0.43266750722E+03  0.33375738008E+03  0.13277854435E+04  0.89774174927E+03 0.  0.
        -24    2    4    4    0    0 -0.67775928007E+02 -0.24756902816E+03  0.12093414108E+03  0.29461155044E+03  0.79289968163E+02 0.  0.
         24    2    4    4    0    0 -0.74369112307E+03  0.68023653538E+03  0.21282323900E+03  0.10331738930E+04  0.79726605366E+02 0.  0.
         11    1    3    3    0    0  0.75378146936E+03 -0.41248212101E+03 -0.26798203852E+03  0.90007909468E+03  0.00000000000E+00 0.  1.
        -11    1    3    3    0    0  0.57685581717E+02 -0.20185386214E+02  0.35554074095E+01  0.61218600740E+02  0.00000000000E+00 0. -1.
          4    1    6    6  502    0 -0.27511367203E+03  0.23113034086E+03  0.11182860991E+03  0.37631689438E+03  0.00000000000E+00 0. -1.
          1    1    5    5  503    0  0.82615939516E+00 -0.86325734157E+02  0.92681908965E+01  0.86825769675E+02  0.00000000000E+00 0. -1.
         -2    1    5    5    0  503 -0.68602087402E+02 -0.16124329400E+03  0.11166595019E+03  0.20778578077E+03  0.00000000000E+00 0.  1.
         -3    1    6    6    0  502 -0.46857745104E+03  0.44910619453E+03  0.10099462909E+03  0.65685699866E+03  0.00000000000E+00 0.  1.
<mgrwt>
<rscale>  0 0.22880330E+04</rscale>
<asrwt>0</asrwt>
<pdfrwt beam="1">  1        2 0.18141645E+00 0.22880330E+04</pdfrwt>
<pdfrwt beam="2">  1       -2 0.17075018E+00 0.22880330E+04</pdfrwt>
<totfact> 0.37243292E+00</totfact>
</mgrwt>
</event>
<event>
12    1  0.1980523E-007  0.3587003E+04  0.7818608E-02  0.8093475E-01
          2   -1    0    0  501    0  0.00000000000E+00  0.00000000000E+00  0.19161504426E+04  0.19161504426E+04  0.00000000000E+00 0. -1.
         -2   -1    0    0    0  501 -0.00000000000E+00 -0.00000000000E+00 -0.16787027389E+04  0.16787027389E+04  0.00000000000E+00 0.  1.
         23    2    1    2    0    0 -0.15855811841E+04 -0.23323828481E+03  0.61431275042E+03  0.17186223765E+04  0.88402084984E+02 0.  0.
        254    2    1    2    0    0  0.15855811841E+04  0.23323828481E+03 -0.37686504668E+03  0.18762308050E+04  0.89985942305E+03 0.  0.
        -24    2    4    4    0    0  0.67175181562E+03 -0.32919773879E+03 -0.61638187603E+02  0.75503767542E+03  0.81614778773E+02 0.  0.
         24    2    4    4    0    0  0.91382936851E+03  0.56243602360E+03 -0.31522685908E+03  0.11211931296E+04  0.79294802795E+02 0.  0.
         13    1    3    3    0    0 -0.33150730092E+03 -0.30235131776E+02  0.94937121982E+02  0.34615648323E+03  0.00000000000E+00 0.  1.
        -13    1    3    3    0    0 -0.12540738832E+04 -0.20300315303E+03  0.51937562844E+03  0.13724658932E+04  0.00000000000E+00 0. -1.
          4    1    6    6  502    0  0.32984295473E+03  0.22864820034E+03 -0.15081436720E+03  0.42874391850E+03  0.00000000000E+00 0. -1.
          1    1    5    5  503    0  0.47629014353E+03 -0.22886404776E+03 -0.62745290153E+01  0.52846042699E+03  0.00000000000E+00 0. -1.
         -2    1    5    5    0  503  0.19546167209E+03 -0.10033369103E+03 -0.55363658588E+02  0.22657724842E+03  0.00000000000E+00 0.  1.
         -3    1    6    6    0  502  0.58398641378E+03  0.33378782326E+03 -0.16441249189E+03  0.69244921108E+03  0.00000000000E+00 0.  1.
<mgrwt>
<rscale>  0 0.35870026E+04</rscale>
<asrwt>0</asrwt>
<pdfrwt beam="1">  1        2 0.29479238E+00 0.35870026E+04</pdfrwt>
<pdfrwt beam="2">  1       -2 0.25826196E+00 0.35870026E+04</pdfrwt>
<totfact> 0.34701828E-01</totfact>
</mgrwt>
</event>
<event>
12    1  0.1980523E-007  0.1587940E+04  0.7818608E-02  0.8827991E-01
         -2   -1    0    0    0  501 -0.00000000000E+00  0.00000000000E+00  0.11669624707E+04  0.11669624707E+04  0.00000000000E+00 0. -1.
          2   -1    0    0  501    0  0.00000000000E+00 -0.00000000000E+00 -0.54019579082E+03  0.54019579082E+03  0.00000000000E+00 0.  1.
         23    2    1    2    0    0 -0.11210222545E+03 -0.50308231065E+03  0.64505800092E+02  0.52726471585E+03  0.90489569037E+02 0.  0.
        254    2    1    2    0    0  0.11210222545E+03  0.50308231065E+03  0.56226087983E+03  0.11798935457E+04  0.90019595755E+03 0.  0.
        -24    2    4    4    0    0  0.22787232834E+03  0.29810013807E+03 -0.16036571902E+03  0.41564129794E+03  0.79063483171E+02 0.  0.
         24    2    4    4    0    0 -0.11577010290E+03  0.20498217257E+03  0.72262659885E+03  0.76425224778E+03  0.80448052000E+02 0.  0.
         11    1    3    3    0    0 -0.41487490250E+02 -0.60304448034E+02  0.24152793305E+02  0.77079152333E+02  0.00000000000E+00 0. -1.
        -11    1    3    3    0    0 -0.70614735195E+02 -0.44277786261E+03  0.40353006787E+02  0.45018556352E+03  0.00000000000E+00 0.  1.
          4    1    6    6  502    0 -0.12177385339E+03  0.17985193579E+03  0.58064485915E+03  0.61993874104E+03  0.00000000000E+00 0. -1.
          1    1    5    5  503    0  0.20412795879E+03  0.26580695283E+03 -0.16791123284E+03  0.37485429416E+03  0.00000000000E+00 0. -1.
         -2    1    5    5    0  503  0.23744369553E+02  0.32293185240E+02  0.75455138243E+01  0.40787003779E+02  0.00000000000E+00 0.  1.
         -1    1    6    6    0  502  0.60037504930E+01  0.25130236784E+02  0.14198173969E+03  0.14431350674E+03  0.00000000000E+00 0.  1.
<mgrwt>
<rscale>  0 0.15879398E+04</rscale>
<asrwt>0</asrwt>
<pdfrwt beam="1">  1        2 0.83107045E-01 0.15879398E+04</pdfrwt>
<pdfrwt beam="2">  1       -2 0.17953269E+00 0.15879398E+04</pdfrwt>
<totfact> 0.98507204E+00</totfact>
</mgrwt>
</event>
<event>
12    1  0.1980523E-007  0.2702036E+04  0.7818608E-02  0.8334345E-01
         -2   -1    0    0    0  501 -0.00000000000E+00  0.00000000000E+00  0.12776590079E+04  0.12776590079E+04  0.00000000000E+00 0.  1.
          2   -1    0    0  501    0  0.00000000000E+00 -0.00000000000E+00 -0.14285894654E+04  0.14285894654E+04  0.00000000000E+00 0. -1.
         23    2    1    2    0    0  0.81875029200E+03  0.70848506079E+03  0.44952825501E+03  0.11758593862E+04  0.90920415948E+02 0.  0.
        254    2    1    2    0    0 -0.81875029200E+03 -0.70848506079E+03 -0.60045871258E+03  0.15303890871E+04  0.89957599475E+03 0.  0.
        -24    2    4    4    0    0 -0.67927618750E+03 -0.33106966517E+03  0.49832315775E+02  0.76155652996E+03  0.80385487013E+02 0.  0.
         24    2    4    4    0    0 -0.13947410450E+03 -0.37741539562E+03 -0.65029102836E+03  0.76883255713E+03  0.79559239923E+02 0.  0.
         13    1    3    3    0    0  0.39693490011E+03  0.40352641456E+03  0.23529639996E+03  0.61298880741E+03  0.00000000000E+00 0. -1.
        -13    1    3    3    0    0  0.42181539189E+03  0.30495864623E+03  0.21423185505E+03  0.56287057879E+03  0.00000000000E+00 0.  1.
          2    1    6    6  502    0  0.58223597272E+01 -0.19529645811E+02 -0.14881646702E+02  0.25234308923E+02  0.00000000000E+00 0. -1.
          1    1    5    5  503    0 -0.30410564129E+03 -0.10833650043E+03  0.38380932171E+02  0.32510019124E+03  0.00000000000E+00 0. -1.
         -4    1    5    5    0  503 -0.37517054621E+03 -0.22273316474E+03  0.11451383604E+02  0.43645633872E+03  0.00000000000E+00 0.  1.
         -3    1    6    6    0  502 -0.14529646422E+03 -0.35788574981E+03 -0.63540938166E+03  0.74359824820E+03  0.00000000000E+00 0.  1.
<mgrwt>
<rscale>  0 0.27020364E+04</rscale>
<asrwt>0</asrwt>
<pdfrwt beam="1">  1        2 0.21978299E+00 0.27020364E+04</pdfrwt>
<pdfrwt beam="2">  1       -2 0.19656292E+00 0.27020364E+04</pdfrwt>
<totfact> 0.17131272E+00</totfact>
</mgrwt>
</event>
<event>
12    1  0.1980523E-007  0.1811403E+04  0.7818608E-02  0.8700259E-01
          2   -1    0    0  501    0  0.00000000000E+00  0.00000000000E+00  0.48441178341E+03  0.48441178341E+03  0.00000000000E+00 0. -1.
         -2   -1    0    0    0  501 -0.00000000000E+00 -0.00000000000E+00 -0.16933841782E+04  0.16933841782E+04  0.00000000000E+00 0.  1.
         23    2    1    2    0    0 -0.37478232415E+03  0.30652658492E+03  0.11478942134E+03  0.50542987243E+03  0.88670214491E+02 0.  0.
        254    2    1    2    0    0  0.37478232415E+03 -0.30652658492E+03 -0.13237618161E+04  0.16723660892E+04  0.90002369561E+03 0.  0.
        -24    2    4    4    0    0  0.18554898485E+03 -0.61642456396E+03 -0.80259207681E+03  0.10320276264E+04  0.80742250287E+02 0.  0.
         24    2    4    4    0    0  0.18923333930E+03  0.30989797904E+03 -0.52116973929E+03  0.64033846280E+03  0.81052055352E+02 0.  0.
         11    1    3    3    0    0 -0.25647819424E+03  0.18903966070E+03  0.11489219596E+03  0.33869938608E+03  0.00000000000E+00 0. -1.
        -11    1    3    3    0    0 -0.11830412991E+03  0.11748692422E+03 -0.10277462748E+00  0.16673048635E+03  0.00000000000E+00 0.  1.
          2    1    6    6  502    0  0.15807917408E+03  0.22894412003E+03 -0.44545802379E+03  0.52520213855E+03  0.00000000000E+00 0. -1.
          1    1    5    5  503    0  0.19320137614E+03 -0.59656020954E+03 -0.78251045788E+03  0.10027629192E+04  0.00000000000E+00 0. -1.
         -2    1    5    5    0  503 -0.76523912811E+01 -0.19864354416E+02 -0.20081618926E+02  0.29264707198E+02  0.00000000000E+00 0.  1.
         -1    1    6    6    0  502  0.31154165220E+02  0.80953859009E+02 -0.75711715494E+02  0.11513632425E+03  0.00000000000E+00 0.  1.
<mgrwt>
<rscale>  0 0.18114030E+04</rscale>
<asrwt>0</asrwt>
<pdfrwt beam="1">  1        2 0.74524893E-01 0.18114030E+04</pdfrwt>
<pdfrwt beam="2">  1       -2 0.26052063E+00 0.18114030E+04</pdfrwt>
<totfact> 0.33382222E+00</totfact>
</mgrwt>
</event>
<event>
12    1  0.1980523E-007  0.1610613E+04  0.7818608E-02  0.8814054E-01
         -4   -1    0    0    0  501 -0.00000000000E+00  0.00000000000E+00  0.66603349648E+03  0.66603349648E+03  0.00000000000E+00 0.  1.
          4   -1    0    0  501    0  0.00000000000E+00 -0.00000000000E+00 -0.97370276467E+03  0.97370276467E+03  0.00000000000E+00 0. -1.
         23    2    1    2    0    0  0.86318614691E+02  0.44051191769E+03  0.21880762760E+03  0.50708194787E+03  0.88054932226E+02 0.  0.
        254    2    1    2    0    0 -0.86318614691E+02 -0.44051191769E+03 -0.52647689579E+03  0.11326543133E+04  0.89678660714E+03 0.  0.
        -24    2    4    4    0    0 -0.78518186806E+02 -0.50792618743E+03  0.72095109695E+02  0.52504673681E+03  0.79512599360E+02 0.  0.
         24    2    4    4    0    0 -0.78004278849E+01  0.67414269745E+02 -0.59857200549E+03  0.60760757648E+03  0.79328373212E+02 0.  0.
         11    1    3    3    0    0  0.75267047541E+02  0.25954329790E+03  0.90576740703E+02  0.28501227673E+03  0.00000000000E+00 0. -1.
        -11    1    3    3    0    0  0.11051567150E+02  0.18096861979E+03  0.12823088690E+03  0.22206967114E+03  0.00000000000E+00 0.  1.
          2    1    6    6  502    0 -0.33632476806E+02  0.69595928768E+02 -0.48448154383E+03  0.49060891055E+03  0.00000000000E+00 0. -1.
          3    1    5    5  503    0 -0.82473987972E+02 -0.40028501500E+03  0.31384788926E+02  0.40989639777E+03  0.00000000000E+00 0. -1.
         -4    1    5    5    0  503  0.39558011660E+01 -0.10764117243E+03  0.40710320769E+02  0.11515033905E+03  0.00000000000E+00 0.  1.
         -1    1    6    6    0  502  0.25832048921E+02 -0.21816590233E+01 -0.11409046165E+03  0.11699866592E+03  0.00000000000E+00 0.  1.
<mgrwt>
<rscale>  0 0.16106131E+04</rscale>
<asrwt>0</asrwt>
<pdfrwt beam="1">  1        4 0.14980042E+00 0.16106131E+04</pdfrwt>
<pdfrwt beam="2">  1       -4 0.10246669E+00 0.16106131E+04</pdfrwt>
<totfact> 0.44618395E-01</totfact>
</mgrwt>
</event>
<event>
12    1  0.1980523E-007  0.1328207E+04  0.7818608E-02  0.9007491E-01
          1   -1    0    0  501    0  0.00000000000E+00  0.00000000000E+00  0.12871034475E+04  0.12871034475E+04  0.00000000000E+00 0. -1.
         -1   -1    0    0    0  501 -0.00000000000E+00 -0.00000000000E+00 -0.34265574415E+03  0.34265574415E+03  0.00000000000E+00 0.  1.
         23    2    1    2    0    0 -0.32480960746E+03  0.74142118569E+02  0.12084691991E+03  0.36510804289E+03  0.87758589807E+02 0.  0.
        254    2    1    2    0    0  0.32480960746E+03 -0.74142118569E+02  0.82360078341E+03  0.12646511487E+04  0.90001441252E+03 0.  0.
        -24    2    4    4    0    0  0.17517922538E+03  0.30919760254E+03  0.75697380616E+03  0.84013631198E+03  0.80800749186E+02 0.  0.
         24    2    4    4    0    0  0.14963038208E+03 -0.38333972111E+03  0.66626977244E+02  0.42451483676E+03  0.80219071975E+02 0.  0.
         13    1    3    3    0    0 -0.13604402592E+03  0.21510582140E+02  0.95287761950E+02  0.16748265496E+03  0.00000000000E+00 0. -1.
        -13    1    3    3    0    0 -0.18876558153E+03  0.52631536428E+02  0.25559157961E+02  0.19762538793E+03  0.00000000000E+00 0.  1.
          2    1    6    6  502    0  0.82972091074E+02 -0.25861435812E+03  0.78170349204E+02  0.28262405704E+03  0.00000000000E+00 0. -1.
          1    1    5    5  503    0 -0.55611403200E+01 -0.64191993111E+00  0.90027135612E+01  0.10601282673E+02  0.00000000000E+00 0. -1.
         -2    1    5    5    0  503  0.18074036570E+03  0.30983952247E+03  0.74797109260E+03  0.82953502931E+03  0.00000000000E+00 0.  1.
         -1    1    6    6    0  502  0.66658291003E+02 -0.12472536299E+03 -0.11543371960E+02  0.14189077972E+03  0.00000000000E+00 0.  1.
<mgrwt>
<rscale>  0 0.13282069E+04</rscale>
<asrwt>0</asrwt>
<pdfrwt beam="1">  1        1 0.19801591E+00 0.13282069E+04</pdfrwt>
<pdfrwt beam="2">  1       -1 0.52716269E-01 0.13282069E+04</pdfrwt>
<totfact> 0.32852315E+01</totfact>
</mgrwt>
</event>
<event>
12    1  0.1980523E-007  0.1920032E+04  0.7818608E-02  0.8644949E-01
         -2   -1    0    0    0  501 -0.00000000000E+00  0.00000000000E+00  0.31394334302E+03  0.31394334302E+03  0.00000000000E+00 0.  1.
          2   -1    0    0  501    0  0.00000000000E+00 -0.00000000000E+00 -0.29356590116E+04  0.29356590116E+04  0.00000000000E+00 0. -1.
         23    2    1    2    0    0  0.61502964151E+03  0.22789950987E+03 -0.42504954856E+03  0.78704021401E+03  0.92550165844E+02 0.  0.
        254    2    1    2    0    0 -0.61502964151E+03 -0.22789950987E+03 -0.21966661200E+04  0.24625621406E+04  0.89926114504E+03 0.  0.
        -24    2    4    4    0    0  0.22634145030E+03 -0.91849589992E+02 -0.53754777139E+03  0.59559174087E+03  0.78135241484E+02 0.  0.
         24    2    4    4    0    0 -0.84137109181E+03 -0.13604991988E+03 -0.16591183486E+04  0.18669703997E+04  0.80559815715E+02 0.  0.
         11    1    3    3    0    0  0.39987881901E+03  0.18117454629E+03 -0.31897733647E+03  0.54265442714E+03  0.00000000000E+00 0. -1.
        -11    1    3    3    0    0  0.21515082250E+03  0.46724963586E+02 -0.10607221209E+03  0.24438578687E+03  0.00000000000E+00 0.  1.
          4    1    6    6  502    0 -0.30094936946E+03 -0.36467949642E+02 -0.67170394425E+03  0.73694411121E+03  0.00000000000E+00 0. -1.
          1    1    5    5  503    0  0.17804630629E+03 -0.67009558533E+02 -0.32854266470E+03  0.37964595434E+03  0.00000000000E+00 0. -1.
         -2    1    5    5    0  503  0.48295144004E+02 -0.24840031459E+02 -0.20900510668E+03  0.21594578652E+03  0.00000000000E+00 0.  1.
         -3    1    6    6    0  502 -0.54042172235E+03 -0.99581970237E+02 -0.98741440436E+03  0.11300262885E+04  0.00000000000E+00 0.  1.
<mgrwt>
<rscale>  0 0.19200319E+04</rscale>
<asrwt>0</asrwt>
<pdfrwt beam="1">  1        2 0.45163983E+00 0.19200319E+04</pdfrwt>
<pdfrwt beam="2">  1       -2 0.48298977E-01 0.19200319E+04</pdfrwt>
<totfact> 0.72695398E+00</totfact>
</mgrwt>
</event>
<event>
12    1  0.1980523E-007  0.1338577E+04  0.7818608E-02  0.8999520E-01
         -2   -1    0    0    0  501 -0.00000000000E+00  0.00000000000E+00  0.24648335464E+03  0.24648335464E+03  0.00000000000E+00 0.  1.
          2   -1    0    0  501    0  0.00000000000E+00 -0.00000000000E+00 -0.18173532830E+04  0.18173532830E+04  0.00000000000E+00 0. -1.
         23    2    1    2    0    0 -0.93520243628E+02  0.33075826213E+03 -0.58968881592E+03  0.68862953993E+03  0.91272557251E+02 0.  0.
        254    2    1    2    0    0  0.93520243628E+02 -0.33075826213E+03 -0.98118111247E+03  0.13752070977E+04  0.90018393803E+03 0.  0.
        -24    2    4    4    0    0 -0.17131296195E+03 -0.51644124364E+03 -0.32325872567E+03  0.63787794914E+03  0.79576285513E+02 0.  0.
         24    2    4    4    0    0  0.26483320558E+03  0.18568298151E+03 -0.65792238680E+03  0.73732914861E+03  0.78597773087E+02 0.  0.
         11    1    3    3    0    0  0.68068353621E+01  0.13624080002E+03 -0.24161526826E+03  0.27746319838E+03  0.00000000000E+00 0. -1.
        -11    1    3    3    0    0 -0.10032707899E+03  0.19451746211E+03 -0.34807354765E+03  0.41116634155E+03  0.00000000000E+00 0.  1.
          4    1    6    6  502    0  0.37008906199E+02 -0.10915198148E+01 -0.95404209815E+02  0.10233676663E+03  0.00000000000E+00 0. -1.
          1    1    5    5  503    0 -0.26639333329E+02 -0.34162708633E+02 -0.87013596260E+01  0.44186631470E+02  0.00000000000E+00 0. -1.
         -2    1    5    5    0  503 -0.14467362862E+03 -0.48227853500E+03 -0.31455736604E+03  0.59369131767E+03  0.00000000000E+00 0.  1.
         -3    1    6    6    0  502  0.22782429938E+03  0.18677450132E+03 -0.56251817698E+03  0.63499238198E+03  0.00000000000E+00 0.  1.
<mgrwt>
<rscale>  0 0.13385774E+04</rscale>
<asrwt>0</asrwt>
<pdfrwt beam="1">  1        2 0.27959281E+00 0.13385774E+04</pdfrwt>
<pdfrwt beam="2">  1       -2 0.37920516E-01 0.13385774E+04</pdfrwt>
<totfact> 0.54156454E+01</totfact>
</mgrwt>
</event>
<event>
12    1  0.1980523E-007  0.2468769E+04  0.7818608E-02  0.8414197E-01
          1   -1    0    0  501    0  0.00000000000E+00  0.00000000000E+00  0.40392619448E+04  0.40392619448E+04  0.00000000000E+00 0. -1.
         -1   -1    0    0    0  501 -0.00000000000E+00 -0.00000000000E+00 -0.37722361676E+03  0.37722361676E+03  0.00000000000E+00 0.  1.
         23    2    1    2    0    0 -0.75460312694E+03 -0.46642759023E+03  0.52621702962E+03  0.10360159699E+04  0.97181024042E+02 0.  0.
        254    2    1    2    0    0  0.75460312694E+03  0.46642759023E+03  0.31358212985E+04  0.33804695917E+04  0.89845359848E+03 0.  0.
        -24    2    4    4    0    0  0.63740929068E+02  0.10207619933E+03 -0.32239013706E+01  0.14476107620E+03  0.80392282796E+02 0.  0.
         24    2    4    4    0    0  0.69086219787E+03  0.36435139090E+03  0.31390451998E+04  0.32357085155E+04  0.78500435739E+02 0.  0.
         11    1    3    3    0    0 -0.49965595756E+03 -0.33132610564E+03  0.40232530211E+03  0.72201018893E+03  0.00000000000E+00 0. -1.
        -11    1    3    3    0    0 -0.25494716938E+03 -0.13510148459E+03  0.12389172752E+03  0.31400578093E+03  0.00000000000E+00 0.  1.
          2    1    6    6  502    0  0.64175421945E+03  0.35612254274E+03  0.29800304436E+04  0.30690801861E+04  0.00000000000E+00 0. -1.
          3    1    5    5  503    0  0.37836093153E+02  0.37268508680E+02 -0.39420481678E+02  0.66139897642E+02  0.00000000000E+00 0. -1.
         -2    1    5    5    0  503  0.25904835915E+02  0.64807690655E+02  0.36196580307E+02  0.78621178557E+02  0.00000000000E+00 0.  1.
         -1    1    6    6    0  502  0.49107978416E+02  0.82288481549E+01  0.15901475623E+03  0.16662832948E+03  0.00000000000E+00 0.  1.
<mgrwt>
<rscale>  0 0.24687689E+04</rscale>
<asrwt>0</asrwt>
<pdfrwt beam="1">  1        1 0.62142488E+00 0.24687689E+04</pdfrwt>
<pdfrwt beam="2">  1       -1 0.58034406E-01 0.24687689E+04</pdfrwt>
<totfact> 0.23806255E-01</totfact>
</mgrwt>
</event>
<event>
12    1  0.1980523E-007  0.1870601E+04  0.7818608E-02  0.8669630E-01
          2   -1    0    0  501    0  0.00000000000E+00  0.00000000000E+00  0.39043429039E+04  0.39043429039E+04  0.00000000000E+00 0. -1.
         -2   -1    0    0    0  501 -0.00000000000E+00 -0.00000000000E+00 -0.22405494836E+03  0.22405494836E+03  0.00000000000E+00 0.  1.
         23    2    1    2    0    0  0.37773504190E+03  0.17685537496E+03  0.26989764056E+04  0.27325169032E+04  0.90627824227E+02 0.  0.
        254    2    1    2    0    0 -0.37773504190E+03 -0.17685537496E+03  0.98131154998E+03  0.13958809492E+04  0.90086052225E+03 0.  0.
        -24    2    4    4    0    0 -0.63916384779E+03 -0.91295984842E+01  0.49055712210E+03  0.80970195180E+03  0.79731968594E+02 0.  0.
         24    2    4    4    0    0  0.26142880588E+03 -0.16772577647E+03  0.49075442788E+03  0.58617899735E+03  0.79302911774E+02 0.  0.
         11    1    3    3    0    0  0.12045643012E+03  0.50091874498E+02  0.11336256668E+04  0.11411074007E+04  0.00000000000E+00 0. -1.
        -11    1    3    3    0    0  0.25727861178E+03  0.12676350046E+03  0.15653507388E+04  0.15914095025E+04  0.00000000000E+00 0.  1.
          4    1    6    6  502    0  0.23359248679E+03 -0.16358006713E+03  0.47471658783E+03  0.55378671617E+03  0.00000000000E+00 0. -1.
          3    1    5    5  503    0 -0.21176751818E+03  0.25420908814E+02  0.13268137338E+03  0.25118927366E+03  0.00000000000E+00 0. -1.
         -4    1    5    5    0  503 -0.42739632960E+03 -0.34550507298E+02  0.35787574872E+03  0.55851267813E+03  0.00000000000E+00 0.  1.
         -3    1    6    6    0  502  0.27836319095E+02 -0.41457093436E+01  0.16037840047E+02  0.32392281180E+02  0.00000000000E+00 0.  1.
<mgrwt>
<rscale>  0 0.18706013E+04</rscale>
<asrwt>0</asrwt>
<pdfrwt beam="1">  1        2 0.60066809E+00 0.18706013E+04</pdfrwt>
<pdfrwt beam="2">  1       -2 0.34469995E-01 0.18706013E+04</pdfrwt>
<totfact> 0.30558610E+00</totfact>
</mgrwt>
</event>
<event>
12    1  0.1980523E-007  0.1400149E+04  0.7818608E-02  0.8953711E-01
         -2   -1    0    0    0  501 -0.00000000000E+00  0.00000000000E+00  0.39658078231E+03  0.39658078231E+03  0.00000000000E+00 0.  1.
          2   -1    0    0  501    0  0.00000000000E+00 -0.00000000000E+00 -0.12358244272E+04  0.12358244272E+04  0.00000000000E+00 0. -1.
         23    2    1    2    0    0  0.14528823436E+02  0.24476527072E+03 -0.62439409335E+03  0.67677641379E+03  0.89650465650E+02 0.  0.
        254    2    1    2    0    0 -0.14528823436E+02 -0.24476527072E+03 -0.21484955155E+03  0.95562879573E+03  0.89830114158E+03 0.  0.
        -24    2    4    4    0    0  0.12490410526E+03 -0.19077752785E+03 -0.53826979620E+03  0.58985802301E+03  0.78746512060E+02 0.  0.
         24    2    4    4    0    0 -0.13943292869E+03 -0.53987742864E+02  0.32342024465E+03  0.36577077272E+03  0.82652196237E+02 0.  0.
         13    1    3    3    0    0  0.40107022784E+02  0.95069060105E+02 -0.18432504209E+03  0.21124019648E+03  0.00000000000E+00 0. -1.
        -13    1    3    3    0    0 -0.25578199348E+02  0.14969621061E+03 -0.44006905126E+03  0.46553621731E+03  0.00000000000E+00 0.  1.
          4    1    6    6  502    0 -0.10386917846E+03  0.27196070265E+01  0.19765893923E+03  0.22330530391E+03  0.00000000000E+00 0. -1.
          1    1    5    5  503    0  0.31797456533E+02 -0.70417934918E+02 -0.10301769348E+03  0.12877270274E+03  0.00000000000E+00 0. -1.
         -2    1    5    5    0  503  0.93106648723E+02 -0.12035959294E+03 -0.43525210271E+03  0.46108532027E+03  0.00000000000E+00 0.  1.
         -3    1    6    6    0  502 -0.35563750230E+02 -0.56707349891E+02  0.12576130542E+03  0.14246546881E+03  0.00000000000E+00 0.  1.
<mgrwt>
<rscale>  0 0.14001489E+04</rscale>
<asrwt>0</asrwt>
<pdfrwt beam="1">  1        2 0.19012683E+00 0.14001489E+04</pdfrwt>
<pdfrwt beam="2">  1       -2 0.61012428E-01 0.14001489E+04</pdfrwt>
<totfact> 0.43870769E+01</totfact>
</mgrwt>
</event>
<event>
12    1  0.1980523E-007  0.1686748E+04  0.7818608E-02  0.8768959E-01
          2   -1    0    0  501    0  0.00000000000E+00  0.00000000000E+00  0.38642623410E+04  0.38642623410E+04  0.00000000000E+00 0. -1.
         -2   -1    0    0    0  501 -0.00000000000E+00 -0.00000000000E+00 -0.18406607238E+03  0.18406607238E+03  0.00000000000E+00 0.  1.
         23    2    1    2    0    0  0.45598665938E+03  0.36200174963E+03  0.12933230294E+04  0.14212292823E+04  0.90769567105E+02 0.  0.
        254    2    1    2    0    0 -0.45598665938E+03 -0.36200174963E+03  0.23868732392E+04  0.26270991311E+04  0.93033159895E+03 0.  0.
        -24    2    4    4    0    0 -0.59518025003E+03 -0.27327428054E+03  0.83156928218E+03  0.10613833767E+04  0.78159061078E+02 0.  0.
         24    2    4    4    0    0  0.13919359065E+03 -0.88727469097E+02  0.15553039571E+04  0.15657157544E+04  0.72443117072E+02 0.  0.
         13    1    3    3    0    0  0.18970260498E+03  0.95058777024E+02  0.46213744959E+03  0.50852165316E+03  0.00000000000E+00 0. -1.
        -13    1    3    3    0    0  0.26628405439E+03  0.26694297261E+03  0.83118557977E+03  0.91270762913E+03  0.00000000000E+00 0.  1.
          4    1    6    6  502    0 -0.29861246961E+01 -0.17275021022E+02  0.27552906973E+03  0.27608623935E+03  0.00000000000E+00 0. -1.
          3    1    5    5  503    0 -0.18320923861E+03 -0.11684277947E+03  0.31005248853E+03  0.37861643634E+03  0.00000000000E+00 0. -1.
         -4    1    5    5    0  503 -0.41197101142E+03 -0.15643150107E+03  0.52151679365E+03  0.68276694035E+03  0.00000000000E+00 0.  1.
         -3    1    6    6    0  502  0.14217971535E+03 -0.71452448075E+02  0.12797748873E+04  0.12896295150E+04  0.00000000000E+00 0.  1.
<mgrwt>
<rscale>  0 0.16867479E+04</rscale>
<asrwt>0</asrwt>
<pdfrwt beam="1">  1        2 0.59450184E+00 0.16867479E+04</pdfrwt>
<pdfrwt beam="2">  1       -2 0.28317860E-01 0.16867479E+04</pdfrwt>
<totfact> 0.48404831E+00</totfact>
</mgrwt>
</event>
<event>
12    1  0.1980523E-007  0.2134110E+04  0.7818608E-02  0.8546365E-01
         -2   -1    0    0    0  501 -0.00000000000E+00  0.00000000000E+00  0.16185763877E+04  0.16185763877E+04  0.00000000000E+00 0.  1.
          2   -1    0    0  501    0  0.00000000000E+00 -0.00000000000E+00 -0.70346171516E+03  0.70346171516E+03  0.00000000000E+00 0. -1.
         23    2    1    2    0    0  0.19527891418E+03  0.83705037743E+03  0.54037264719E+03  0.10194977887E+04  0.92660426867E+02 0.  0.
        254    2    1    2    0    0 -0.19527891418E+03 -0.83705037743E+03  0.37474202533E+03  0.13025403141E+04  0.90409761401E+03 0.  0.
        -24    2    4    4    0    0 -0.50878172731E+03 -0.45055089212E+03  0.40996860445E+03  0.79714351270E+03  0.74219746487E+02 0.  0.
         24    2    4    4    0    0  0.31350281313E+03 -0.38649948532E+03 -0.35226579121E+02  0.50539680142E+03  0.80741247315E+02 0.  0.
         11    1    3    3    0    0  0.81844884025E+02  0.24061423616E+03  0.20045187434E+03  0.32368927941E+03  0.00000000000E+00 0.  1.
        -11    1    3    3    0    0  0.11343403016E+03  0.59643614128E+03  0.33992077285E+03  0.69580850931E+03  0.00000000000E+00 0. -1.
          2    1    6    6  502    0  0.12229292374E+03 -0.94614240685E+02  0.62187870194E+00  0.15462147480E+03  0.00000000000E+00 0. -1.
          1    1    5    5  503    0 -0.33964696839E+02 -0.32068357870E+02  0.52442727980E+02  0.70229765241E+02  0.00000000000E+00 0. -1.
         -2    1    5    5    0  503 -0.47481703047E+03 -0.41848253425E+03  0.35752587647E+03  0.72691374746E+03  0.00000000000E+00 0.  1.
         -1    1    6    6    0  502  0.19120988939E+03 -0.29188524463E+03 -0.35848457823E+02  0.35077532661E+03  0.00000000000E+00 0.  1.
<mgrwt>
<rscale>  0 0.21341101E+04</rscale>
<asrwt>0</asrwt>
<pdfrwt beam="1">  1        2 0.10822488E+00 0.21341101E+04</pdfrwt>
<pdfrwt beam="2">  1       -2 0.24901175E+00 0.21341101E+04</pdfrwt>
<totfact> 0.24379870E+00</totfact>
</mgrwt>
</event>
<event>
12    1  0.1980523E-007  0.4913890E+04  0.7818608E-02  0.7841929E-01
         -2   -1    0    0    0  501 -0.00000000000E+00  0.00000000000E+00  0.32564261974E+04  0.32564261974E+04  0.00000000000E+00 0.  1.
          2   -1    0    0  501    0  0.00000000000E+00 -0.00000000000E+00 -0.18537434957E+04  0.18537434957E+04  0.00000000000E+00 0. -1.
         23    2    1    2    0    0  0.12650492816E+04 -0.11995011007E+04  0.23525175724E+04  0.29294688960E+04  0.91085171725E+02 0.  0.
        254    2    1    2    0    0 -0.12650492816E+04  0.11995011007E+04 -0.94983487076E+03  0.21807007972E+04  0.90228438394E+03 0.  0.
        -24    2    4    4    0    0 -0.57981336297E+03  0.46622301946E+03  0.65456619875E+02  0.75085485653E+03  0.77142768574E+02 0.  0.
         24    2    4    4    0    0 -0.68523591860E+03  0.73327808129E+03 -0.10152914906E+04  0.14298459406E+04  0.79984963067E+02 0.  0.
         13    1    3    3    0    0  0.70379281973E+03 -0.69961221549E+03  0.12736428852E+04  0.16146045287E+04  0.00000000000E+00 0.  1.
        -13    1    3    3    0    0  0.56125646185E+03 -0.49988888526E+03  0.10788746872E+04  0.13148643673E+04  0.00000000000E+00 0. -1.
          2    1    6    6  502    0 -0.54966976597E+03  0.58064112576E+03 -0.76172708289E+03  0.11043138672E+04  0.00000000000E+00 0. -1.
          3    1    5    5  503    0 -0.32543270170E+03  0.21222636550E+03  0.34558831318E+02  0.39005228672E+03  0.00000000000E+00 0. -1.
         -4    1    5    5    0  503 -0.25438066127E+03  0.25399665396E+03  0.30897788557E+02  0.36080256981E+03  0.00000000000E+00 0.  1.
         -1    1    6    6    0  502 -0.13556615263E+03  0.15263695553E+03 -0.25356440775E+03  0.32553207339E+03  0.00000000000E+00 0.  1.
<mgrwt>
<rscale>  0 0.49138901E+04</rscale>
<asrwt>0</asrwt>
<pdfrwt beam="1">  1        2 0.28519131E+00 0.49138901E+04</pdfrwt>
<pdfrwt beam="2">  1       -2 0.50098865E+00 0.49138901E+04</pdfrwt>
<totfact> 0.96657572E-03</totfact>
</mgrwt>
</event>
<event>
12    1  0.1980523E-007  0.3156131E+04  0.7818608E-02  0.8200500E-01
         -1   -1    0    0    0  501 -0.00000000000E+00  0.00000000000E+00  0.10840410784E+04  0.10840410784E+04  0.00000000000E+00 0.  1.
          1   -1    0    0  501    0  0.00000000000E+00 -0.00000000000E+00 -0.22972287020E+04  0.22972287020E+04  0.00000000000E+00 0. -1.
         23    2    1    2    0    0 -0.75688911658E+03 -0.56712440028E+03 -0.17331405129E+04  0.19766075020E+04  0.93219951247E+02 0.  0.
        254    2    1    2    0    0  0.75688911658E+03  0.56712440028E+03  0.51995288920E+03  0.14046622784E+04  0.89900716860E+03 0.  0.
        -24    2    4    4    0    0  0.73947263991E+03  0.67131748070E+03  0.66928199797E+03  0.12049431431E+04  0.80390548739E+02 0.  0.
         24    2    4    4    0    0  0.17416476669E+02 -0.10419308042E+03 -0.14932910878E+03  0.19971913526E+03  0.80181161094E+02 0.  0.
         13    1    3    3    0    0 -0.47337635726E+03 -0.29748978650E+03 -0.10135679038E+04  0.11575427613E+04  0.00000000000E+00 0. -1.
        -13    1    3    3    0    0 -0.28351275932E+03 -0.26963461378E+03 -0.71957260904E+03  0.81906474062E+03  0.00000000000E+00 0.  1.
          2    1    6    6  502    0 -0.76709711079E+01 -0.10708040892E+03 -0.11974432200E+03  0.16082213909E+03  0.00000000000E+00 0. -1.
          3    1    5    5  503    0  0.41222781227E+03  0.39317275259E+03  0.33653455013E+03  0.66164347350E+03  0.00000000000E+00 0. -1.
         -4    1    5    5    0  503  0.32724482764E+03  0.27814472811E+03  0.33274744784E+03  0.54329966964E+03  0.00000000000E+00 0.  1.
         -1    1    6    6    0  502  0.25087447777E+02  0.28873285040E+01 -0.29584786780E+02  0.38896996165E+02  0.00000000000E+00 0.  1.
<mgrwt>
<rscale>  0 0.31561307E+04</rscale>
<asrwt>0</asrwt>
<pdfrwt beam="1">  1        1 0.35341980E+00 0.31561307E+04</pdfrwt>
<pdfrwt beam="2">  1       -1 0.16677555E+00 0.31561307E+04</pdfrwt>
<totfact> 0.40801020E-01</totfact>
</mgrwt>
</event>
<event>
12    1  0.1980523E-007  0.2840257E+04  0.7818608E-02  0.8290878E-01
         -1   -1    0    0    0  501 -0.00000000000E+00  0.00000000000E+00  0.84433341883E+03  0.84433341883E+03  0.00000000000E+00 0.  1.
          1   -1    0    0  501    0  0.00000000000E+00 -0.00000000000E+00 -0.23885878756E+04  0.23885878756E+04  0.00000000000E+00 0. -1.
         23    2    1    2    0    0 -0.65820884422E+03  0.95985675339E+03 -0.90853867163E+02  0.11709329002E+04  0.90915136330E+02 0.  0.
        254    2    1    2    0    0  0.65820884422E+03 -0.95985675339E+03 -0.14534005896E+04  0.20619883942E+04  0.88592267961E+03 0.  0.
        -24    2    4    4    0    0  0.68369323840E+03 -0.22838330844E+03 -0.68011921967E+03  0.99442816103E+03  0.82035569497E+02 0.  0.
         24    2    4    4    0    0 -0.25484394182E+02 -0.73147344495E+03 -0.77328136990E+03  0.10675602331E+04  0.77575249431E+02 0.  0.
         13    1    3    3    0    0 -0.24469222163E+03  0.32844852053E+03 -0.72499262697E+02  0.41594333395E+03  0.00000000000E+00 0. -1.
        -13    1    3    3    0    0 -0.41351662259E+03  0.63140823286E+03 -0.18354604466E+02  0.75498956628E+03  0.00000000000E+00 0.  1.
          2    1    6    6  502    0  0.12168897576E+02 -0.40513778022E+03 -0.46784875214E+03  0.61900497406E+03  0.00000000000E+00 0. -1.
          1    1    5    5  503    0  0.44105622261E+03 -0.10589219875E+03 -0.41767554393E+03  0.61660085084E+03  0.00000000000E+00 0. -1.
         -2    1    5    5    0  503  0.24263701579E+03 -0.12249110969E+03 -0.26244367574E+03  0.37782731018E+03  0.00000000000E+00 0.  1.
         -1    1    6    6    0  502 -0.37653291759E+02 -0.32633566473E+03 -0.30543261777E+03  0.44855525908E+03  0.00000000000E+00 0.  1.
<mgrwt>
<rscale>  0 0.28402567E+04</rscale>
<asrwt>0</asrwt>
<pdfrwt beam="1">  1        1 0.36747505E+00 0.28402567E+04</pdfrwt>
<pdfrwt beam="2">  1       -1 0.12989745E+00 0.28402567E+04</pdfrwt>
<totfact> 0.70898470E-01</totfact>
</mgrwt>
</event>
<event>
12    1  0.1980523E-007  0.1467506E+04  0.7818608E-02  0.8906354E-01
          2   -1    0    0  501    0  0.00000000000E+00  0.00000000000E+00  0.15373293506E+04  0.15373293506E+04  0.00000000000E+00 0. -1.
         -2   -1    0    0    0  501 -0.00000000000E+00 -0.00000000000E+00 -0.35021329179E+03  0.35021329179E+03  0.00000000000E+00 0.  1.
         23    2    1    2    0    0 -0.26712311958E+03  0.35900920410E+03  0.31719459629E+03  0.55625597090E+03  0.92552274944E+02 0.  0.
        254    2    1    2    0    0  0.26712311958E+03 -0.35900920410E+03  0.86992146256E+03  0.13312866715E+04  0.90294987743E+03 0.  0.
        -24    2    4    4    0    0 -0.27928268945E+03  0.56379508247E+02  0.39027189014E+03  0.49018756661E+03  0.82427135353E+02 0.  0.
         24    2    4    4    0    0  0.54640580903E+03 -0.41538871235E+03  0.47964957241E+03  0.84109910493E+03  0.79226898921E+02 0.  0.
         11    1    3    3    0    0 -0.16047931165E+03  0.19461279018E+03  0.12399475976E+03  0.28107374124E+03  0.00000000000E+00 0.  1.
        -11    1    3    3    0    0 -0.10664380793E+03  0.16439641392E+03  0.19319983653E+03  0.27518222965E+03  0.00000000000E+00 0. -1.
          2    1    6    6  502    0  0.11399043172E+03 -0.65843612550E+02  0.12543183816E+03  0.18183054161E+03  0.00000000000E+00 0. -1.
          1    1    5    5  503    0 -0.21576161279E+02 -0.15114363606E+02  0.57651482749E+02  0.63385078574E+02  0.00000000000E+00 0. -1.
         -2    1    5    5    0  503 -0.25770652817E+03  0.71493871853E+02  0.33262040740E+03  0.42680248803E+03  0.00000000000E+00 0.  1.
         -1    1    6    6    0  502  0.43241537731E+03 -0.34954509980E+03  0.35421773425E+03  0.65926856332E+03  0.00000000000E+00 0.  1.
<mgrwt>
<rscale>  0 0.14675056E+04</rscale>
<asrwt>0</asrwt>
<pdfrwt beam="1">  1        2 0.23651220E+00 0.14675056E+04</pdfrwt>
<pdfrwt beam="2">  1       -2 0.53878969E-01 0.14675056E+04</pdfrwt>
<totfact> 0.37998505E+01</totfact>
</mgrwt>
</event>
<event>
12    1  0.1980523E-007  0.1918293E+04  0.7818608E-02  0.8645804E-01
         -1   -1    0    0    0  501 -0.00000000000E+00  0.00000000000E+00  0.14482521101E+04  0.14482521101E+04  0.00000000000E+00 0.  1.
          1   -1    0    0  501    0  0.00000000000E+00 -0.00000000000E+00 -0.63522205310E+03  0.63522205310E+03  0.00000000000E+00 0. -1.
         23    2    1    2    0    0  0.51965588478E+03  0.50473748391E+03  0.49694427501E+03  0.88336875743E+03  0.92653024158E+02 0.  0.
        254    2    1    2    0    0 -0.51965588478E+03 -0.50473748391E+03  0.31608578200E+03  0.12001054058E+04  0.90307286369E+03 0.  0.
        -24    2    4    4    0    0 -0.45131683167E+03 -0.62923559527E+03 -0.69368122156E+02  0.78154412230E+03  0.79843358078E+02 0.  0.
         24    2    4    4    0    0 -0.68339053113E+02  0.12449811137E+03  0.38545390415E+03  0.41856128347E+03  0.80304606848E+02 0.  0.
         13    1    3    3    0    0  0.38081267263E+03  0.42237274569E+03  0.39557710027E+03  0.69274690197E+03  0.00000000000E+00 0. -1.
        -13    1    3    3    0    0  0.13884321215E+03  0.82364738219E+02  0.10136717475E+03  0.19062185546E+03  0.00000000000E+00 0.  1.
          2    1    6    6  502    0 -0.82296777884E+02  0.10724976084E+03  0.36130028952E+03  0.38576310095E+03  0.00000000000E+00 0. -1.
          3    1    5    5  503    0 -0.39498475720E+03 -0.55621421766E+03 -0.86778933911E+02  0.68769019021E+03  0.00000000000E+00 0. -1.
         -4    1    5    5    0  503 -0.56332074464E+02 -0.73021377616E+02  0.17410811755E+02  0.93853932088E+02  0.00000000000E+00 0.  1.
         -1    1    6    6    0  502  0.13957724771E+02  0.17248350526E+02  0.24153614631E+02  0.32798182516E+02  0.00000000000E+00 0.  1.
<mgrwt>
<rscale>  0 0.19182927E+04</rscale>
<asrwt>0</asrwt>
<pdfrwt beam="1">  1        1 0.97726470E-01 0.19182927E+04</pdfrwt>
<pdfrwt beam="2">  1       -1 0.22280802E+00 0.19182927E+04</pdfrwt>
<totfact> 0.31017638E+00</totfact>
</mgrwt>
</event>
<event>
12    1  0.1980523E-007  0.1797412E+04  0.7818608E-02  0.8707677E-01
         -2   -1    0    0    0  501 -0.00000000000E+00  0.00000000000E+00  0.27713290025E+03  0.27713290025E+03  0.00000000000E+00 0. -1.
          2   -1    0    0  501    0  0.00000000000E+00 -0.00000000000E+00 -0.29143870702E+04  0.29143870702E+04  0.00000000000E+00 0.  1.
         23    2    1    2    0    0  0.88191033534E+02  0.64659900874E+03 -0.12558368819E+04  0.14181781574E+04  0.90747317184E+02 0.  0.
        254    2    1    2    0    0 -0.88191033534E+02 -0.64659900874E+03 -0.13814172880E+04  0.17733418131E+04  0.90031079400E+03 0.  0.
        -24    2    4    4    0    0 -0.35716896393E+03  0.13406052200E+02 -0.66804720097E+03  0.76193126437E+03  0.80639927280E+02 0.  0.
         24    2    4    4    0    0  0.26897793040E+03 -0.66000506094E+03 -0.71337008706E+03  0.10114105487E+04  0.78093593760E+02 0.  0.
         13    1    3    3    0    0  0.10961071902E+02  0.14368103127E+03 -0.36268036043E+03  0.39025815518E+03  0.00000000000E+00 0.  1.
        -13    1    3    3    0    0  0.77229961632E+02  0.50291797747E+03 -0.89315652149E+03  0.10279200022E+04  0.00000000000E+00 0. -1.
          2    1    6    6  502    0  0.12518428441E+03 -0.21188055735E+03 -0.23239654848E+03  0.33848579201E+03  0.00000000000E+00 0. -1.
          3    1    5    5  503    0 -0.23437369208E+03 -0.18829549132E+02 -0.48719996202E+03  0.54097077782E+03  0.00000000000E+00 0. -1.
         -4    1    5    5    0  503 -0.12279527185E+03  0.32235601331E+02 -0.18084723894E+03  0.22096048655E+03  0.00000000000E+00 0.  1.
         -1    1    6    6    0  502  0.14379364599E+03 -0.44812450360E+03 -0.48097353857E+03  0.67292475668E+03  0.00000000000E+00 0.  1.
<mgrwt>
<rscale>  0 0.17974121E+04</rscale>
<asrwt>0</asrwt>
<pdfrwt beam="1">  1        2 0.44836724E+00 0.17974121E+04</pdfrwt>
<pdfrwt beam="2">  1       -2 0.42635831E-01 0.17974121E+04</pdfrwt>
<totfact> 0.97253129E+00</totfact>
</mgrwt>
</event>
<event>
12    1  0.1980523E-007  0.1663052E+04  0.7818608E-02  0.8782722E-01
          1   -1    0    0  501    0  0.00000000000E+00  0.00000000000E+00  0.12648597600E+04  0.12648597600E+04  0.00000000000E+00 0. -1.
         -1   -1    0    0    0  501 -0.00000000000E+00 -0.00000000000E+00 -0.54665006759E+03  0.54665006759E+03  0.00000000000E+00 0.  1.
         23    2    1    2    0    0  0.35520197951E+03 -0.15142677432E+02 -0.24738182151E+03  0.44497743526E+03  0.10202649336E+03 0.  0.
        254    2    1    2    0    0 -0.35520197951E+03  0.15142677432E+02  0.96559151391E+03  0.13665323923E+04  0.89924749687E+03 0.  0.
        -24    2    4    4    0    0 -0.23213656387E+03 -0.33476056677E+03  0.88621201518E+03  0.97866583805E+03  0.80393192316E+02 0.  0.
         24    2    4    4    0    0 -0.12306541563E+03  0.34990324421E+03  0.79379498732E+02  0.38786655428E+03  0.81006063230E+02 0.  0.
         13    1    3    3    0    0  0.15890575483E+01 -0.58940147105E+01 -0.28176295094E+02  0.28829986447E+02  0.00000000000E+00 0. -1.
        -13    1    3    3    0    0  0.35361292196E+03 -0.92486627215E+01 -0.21920552641E+03  0.41614744881E+03  0.00000000000E+00 0.  1.
          4    1    6    6  502    0 -0.12923218756E+03  0.32980410548E+03  0.59984589016E+02  0.35926293604E+03  0.00000000000E+00 0. -1.
          3    1    5    5  503    0 -0.23713474620E+03 -0.31474035729E+03  0.83041199443E+03  0.91917270458E+03  0.00000000000E+00 0. -1.
         -4    1    5    5    0  503  0.49981823218E+01 -0.20020209483E+02  0.55800020750E+02  0.59493133469E+02  0.00000000000E+00 0.  1.
         -3    1    6    6    0  502  0.61667719268E+01  0.20099138725E+02  0.19394909717E+02  0.28603618240E+02  0.00000000000E+00 0.  1.
<mgrwt>
<rscale>  0 0.16630522E+04</rscale>
<asrwt>0</asrwt>
<pdfrwt beam="1">  1        1 0.19459381E+00 0.16630522E+04</pdfrwt>
<pdfrwt beam="2">  1       -1 0.84100011E-01 0.16630522E+04</pdfrwt>
<totfact> 0.12822221E+01</totfact>
</mgrwt>
</event>
<event>
12    1  0.1980523E-007  0.3304457E+04  0.7818608E-02  0.8161762E-01
          1   -1    0    0  501    0  0.00000000000E+00  0.00000000000E+00  0.16167796702E+04  0.16167796702E+04  0.00000000000E+00 0. -1.
         -1   -1    0    0    0  501 -0.00000000000E+00 -0.00000000000E+00 -0.16884550458E+04  0.16884550458E+04  0.00000000000E+00 0.  1.
         23    2    1    2    0    0  0.60248596289E+03  0.11254511252E+04  0.81111204494E+03  0.15158574038E+04  0.10144628400E+03 0.  0.
        254    2    1    2    0    0 -0.60248596289E+03 -0.11254511252E+04 -0.88278742050E+03  0.17893773122E+04  0.89046502740E+03 0.  0.
        -24    2    4    4    0    0 -0.32731840563E+03 -0.71877204496E+03 -0.10008028765E+04  0.12774002417E+04  0.79839767890E+02 0.  0.
         24    2    4    4    0    0 -0.27516755726E+03 -0.40667908021E+03  0.11801545604E+03  0.51197707050E+03  0.84189156079E+02 0.  0.
         11    1    3    3    0    0  0.22752938335E+03  0.33698356530E+03  0.28448114566E+03  0.49624295039E+03  0.00000000000E+00 0. -1.
        -11    1    3    3    0    0  0.37495657954E+03  0.78846755986E+03  0.52663089928E+03  0.10196144534E+04  0.00000000000E+00 0.  1.
          4    1    6    6  502    0 -0.16401127514E+03 -0.30979028163E+03  0.89775515652E+02  0.36184162305E+03  0.00000000000E+00 0. -1.
          3    1    5    5  503    0 -0.95374853049E+02 -0.14033245972E+03 -0.24023819567E+03  0.29411554278E+03  0.00000000000E+00 0. -1.
         -4    1    5    5    0  503 -0.23194355258E+03 -0.57843958523E+03 -0.76056468088E+03  0.98328469893E+03  0.00000000000E+00 0.  1.
         -3    1    6    6    0  502 -0.11115628212E+03 -0.96888798580E+02  0.28239940392E+02  0.15013544744E+03  0.00000000000E+00 0.  1.
<mgrwt>
<rscale>  0 0.33044575E+04</rscale>
<asrwt>0</asrwt>
<pdfrwt beam="1">  1        1 0.24873533E+00 0.33044575E+04</pdfrwt>
<pdfrwt beam="2">  1       -1 0.25976231E+00 0.33044575E+04</pdfrwt>
<totfact> 0.27135756E-01</totfact>
</mgrwt>
</event>
<event>
12    1  0.1980523E-007  0.2168257E+04  0.7818608E-02  0.8531758E-01
         -3   -1    0    0    0  501 -0.00000000000E+00  0.00000000000E+00  0.12567952466E+04  0.12567952466E+04  0.00000000000E+00 0.  1.
          3   -1    0    0  501    0  0.00000000000E+00 -0.00000000000E+00 -0.93518379063E+03  0.93518379063E+03  0.00000000000E+00 0. -1.
         23    2    1    2    0    0  0.27778980859E+03  0.53482770771E+03 -0.53497920371E+03  0.81098905172E+03  0.91063927555E+02 0.  0.
        254    2    1    2    0    0 -0.27778980859E+03 -0.53482770771E+03  0.85659065973E+03  0.13809899856E+04  0.90009884302E+03 0.  0.
        -24    2    4    4    0    0  0.39692235030E+02  0.21738788489E+03  0.33480170433E+03  0.40886841006E+03  0.79045743095E+02 0.  0.
         24    2    4    4    0    0 -0.31748204362E+03 -0.75221559261E+03  0.52178895540E+03  0.97212157551E+03  0.78316650891E+02 0.  0.
         13    1    3    3    0    0  0.23294767677E+03  0.42516131741E+03 -0.47283662117E+03  0.67720103090E+03  0.00000000000E+00 0. -1.
        -13    1    3    3    0    0  0.44842131818E+02  0.10966639030E+03 -0.62142582543E+02  0.13378802081E+03  0.00000000000E+00 0.  1.
          2    1    6    6  502    0 -0.24961054037E+03 -0.64815068174E+03  0.42142369361E+03  0.81240547613E+03  0.00000000000E+00 0. -1.
          3    1    5    5  503    0  0.23516860990E+02  0.14666574358E+03  0.28336168352E+03  0.31993394127E+03  0.00000000000E+00 0. -1.
         -4    1    5    5    0  503  0.16175374040E+02  0.70722141317E+02  0.51440020811E+02  0.88934468789E+02  0.00000000000E+00 0.  1.
         -1    1    6    6    0  502 -0.67871503246E+02 -0.10406491086E+03  0.10036526179E+03  0.15971609938E+03  0.00000000000E+00 0.  1.
<mgrwt>
<rscale>  0 0.21682569E+04</rscale>
<asrwt>0</asrwt>
<pdfrwt beam="1">  1        3 0.14387443E+00 0.21682569E+04</pdfrwt>
<pdfrwt beam="2">  1       -3 0.19335312E+00 0.21682569E+04</pdfrwt>
<totfact> 0.13914197E-01</totfact>
</mgrwt>
</event>
<event>
12    1  0.1980523E-007  0.1746388E+04  0.7818608E-02  0.8735341E-01
         -2   -1    0    0    0  501 -0.00000000000E+00  0.00000000000E+00  0.45468348632E+03  0.45468348632E+03  0.00000000000E+00 0. -1.
          2   -1    0    0  501    0  0.00000000000E+00 -0.00000000000E+00 -0.16769205696E+04  0.16769205696E+04  0.00000000000E+00 0.  1.
         23    2    1    2    0    0  0.51829746776E+03  0.15286460733E+03 -0.37223975725E+02  0.54901318022E+03  0.89610236188E+02 0.  0.
        254    2    1    2    0    0 -0.51829746776E+03 -0.15286460733E+03 -0.11850131075E+04  0.15825908757E+04  0.89907617111E+03 0.  0.
        -24    2    4    4    0    0 -0.29675574039E+03 -0.19020496965E+02 -0.12636943376E+04  0.13011769222E+04  0.87819446204E+02 0.  0.
         24    2    4    4    0    0 -0.22154172737E+03 -0.13384411037E+03  0.78681230091E+02  0.28141395348E+03  0.77511898417E+02 0.  0.
         13    1    3    3    0    0  0.21444808058E+03  0.25957489614E+02  0.10590982949E+02  0.21627283567E+03  0.00000000000E+00 0. -1.
        -13    1    3    3    0    0  0.30384938718E+03  0.12690711772E+03 -0.47814958674E+02  0.33274034455E+03  0.00000000000E+00 0.  1.
          4    1    6    6  502    0 -0.89382364511E+02 -0.48514160576E+02  0.70774526820E+02  0.12390264125E+03  0.00000000000E+00 0. -1.
          3    1    5    5  503    0 -0.16254956230E+03 -0.10415032858E+02 -0.50386018155E+03  0.52953367755E+03  0.00000000000E+00 0. -1.
         -4    1    5    5    0  503 -0.13420617809E+03 -0.86054641075E+01 -0.75983415607E+03  0.77164324463E+03  0.00000000000E+00 0.  1.
         -3    1    6    6    0  502 -0.13215936286E+03 -0.85329949789E+02  0.79067032714E+01  0.15751131223E+03  0.00000000000E+00 0.  1.
<mgrwt>
<rscale>  0 0.17463884E+04</rscale>
<asrwt>0</asrwt>
<pdfrwt beam="1">  1        2 0.25798778E+00 0.17463884E+04</pdfrwt>
<pdfrwt beam="2">  1       -2 0.69951305E-01 0.17463884E+04</pdfrwt>
<totfact> 0.17828477E+01</totfact>
</mgrwt>
</event>
<event>
12    1  0.1980523E-007  0.1211583E+04  0.7818608E-02  0.9102778E-01
          1   -1    0    0  501    0  0.00000000000E+00  0.00000000000E+00  0.48089766365E+03  0.48089766365E+03  0.00000000000E+00 0. -1.
         -1   -1    0    0    0  501 -0.00000000000E+00 -0.00000000000E+00 -0.76312209339E+03  0.76312209339E+03  0.00000000000E+00 0.  1.
         23    2    1    2    0    0  0.36642998044E+02  0.24897365559E+03 -0.12843600275E+03  0.29690960960E+03  0.91262911339E+02 0.  0.
        254    2    1    2    0    0 -0.36642998044E+02 -0.24897365559E+03 -0.15378842699E+03  0.94711014744E+03  0.90002008901E+03 0.  0.
        -24    2    4    4    0    0 -0.30168499078E+03 -0.86243147714E+02  0.26575871688E+03  0.41921364281E+03  0.81612918877E+02 0.  0.
         24    2    4    4    0    0  0.26504199274E+03 -0.16273050788E+03 -0.41954714387E+03  0.52789650463E+03  0.76983358982E+02 0.  0.
         11    1    3    3    0    0  0.63254150489E+02  0.18818407883E+03 -0.11422766699E+03  0.22904649088E+03  0.00000000000E+00 0.  1.
        -11    1    3    3    0    0 -0.26611152445E+02  0.60789576760E+02 -0.14208335767E+02  0.67863118720E+02  0.00000000000E+00 0. -1.
          2    1    6    6  502    0  0.20516103815E+02 -0.43752699140E+02 -0.57863521842E+02  0.75388303853E+02  0.00000000000E+00 0. -1.
          1    1    5    5  503    0 -0.12484710969E+03 -0.77925531630E+02  0.12195185622E+03  0.19113200808E+03  0.00000000000E+00 0. -1.
         -2    1    5    5    0  503 -0.17683788109E+03 -0.83176160834E+01  0.14380686066E+03  0.22808163473E+03  0.00000000000E+00 0.  1.
         -3    1    6    6    0  502  0.24452588892E+03 -0.11897780874E+03 -0.36168362203E+03  0.45250820077E+03  0.00000000000E+00 0.  1.
<mgrwt>
<rscale>  0 0.12115835E+04</rscale>
<asrwt>0</asrwt>
<pdfrwt beam="1">  1        1 0.73984256E-01 0.12115835E+04</pdfrwt>
<pdfrwt beam="2">  1       -1 0.11740340E+00 0.12115835E+04</pdfrwt>
<totfact> 0.30212998E+01</totfact>
</mgrwt>
</event>
<event>
12    1  0.1980523E-007  0.1762338E+04  0.7818608E-02  0.8726588E-01
          2   -1    0    0  501    0  0.00000000000E+00  0.00000000000E+00  0.23397887609E+04  0.23397887609E+04  0.00000000000E+00 0. -1.
         -2   -1    0    0    0  501 -0.00000000000E+00 -0.00000000000E+00 -0.33184992743E+03  0.33184992743E+03  0.00000000000E+00 0.  1.
         23    2    1    2    0    0  0.34764729923E+03 -0.44564746072E+03  0.12230779807E+04  0.13504942530E+04  0.91949315815E+02 0.  0.
        254    2    1    2    0    0 -0.34764729923E+03  0.44564746072E+03  0.78486085274E+03  0.13211444353E+04  0.89997542011E+03 0.  0.
        -24    2    4    4    0    0  0.42832005027E+01  0.47593918954E+03  0.82448309815E+03  0.95536339067E+03  0.80064793484E+02 0.  0.
         24    2    4    4    0    0 -0.35193049974E+03 -0.30291728823E+02 -0.39622245412E+02  0.36578104461E+03  0.86331829491E+02 0.  0.
         13    1    3    3    0    0  0.23391603977E+03 -0.34451861398E+03  0.82085168443E+03  0.92043863287E+03  0.00000000000E+00 0.  1.
        -13    1    3    3    0    0  0.11373125946E+03 -0.10112884673E+03  0.40222629626E+03  0.43005562015E+03  0.00000000000E+00 0. -1.
          2    1    6    6  502    0 -0.93480432561E+02 -0.44776103863E+02 -0.24365852207E+02  0.10647622036E+03  0.00000000000E+00 0. -1.
          1    1    5    5  503    0 -0.24671158360E+02  0.53526908714E+02  0.11223710337E+03  0.12677130348E+03  0.00000000000E+00 0. -1.
         -2    1    5    5    0  503  0.28954358863E+02  0.42241228082E+03  0.71224599478E+03  0.82859208720E+03  0.00000000000E+00 0.  1.
         -1    1    6    6    0  502 -0.25845006717E+03  0.14484375041E+02 -0.15256393206E+02  0.25930482424E+03  0.00000000000E+00 0.  1.
<mgrwt>
<rscale>  0 0.17623379E+04</rscale>
<asrwt>0</asrwt>
<pdfrwt beam="1">  1        2 0.35996749E+00 0.17623379E+04</pdfrwt>
<pdfrwt beam="2">  1       -2 0.51053837E-01 0.17623379E+04</pdfrwt>
<totfact> 0.14786891E+01</totfact>
</mgrwt>
</event>
<event>
12    1  0.1980523E-007  0.1740231E+04  0.7818608E-02  0.8738746E-01
         -1   -1    0    0    0  501 -0.00000000000E+00  0.00000000000E+00  0.16150683178E+04  0.16150683178E+04  0.00000000000E+00 0.  1.
          1   -1    0    0  501    0  0.00000000000E+00 -0.00000000000E+00 -0.46877331767E+03  0.46877331767E+03  0.00000000000E+00 0. -1.
         23    2    1    2    0    0 -0.12635071622E+03  0.51861004879E+03  0.10327191149E+02  0.53813979449E+03  0.67578852742E+02 0.  0.
        254    2    1    2    0    0  0.12635071622E+03 -0.51861004879E+03  0.11359678090E+04  0.15457018410E+04  0.90213659274E+03 0.  0.
        -24    2    4    4    0    0 -0.13922028079E+03 -0.46357393482E+03  0.13980278031E+03  0.51013611860E+03  0.80068486300E+02 0.  0.
         24    2    4    4    0    0  0.26557099701E+03 -0.55036113973E+02  0.99616502865E+03  0.10355657224E+04  0.80589532351E+02 0.  0.
         11    1    3    3    0    0 -0.61408763617E+02  0.31891725324E+03 -0.22713486039E+02  0.32556896829E+03  0.00000000000E+00 0.  1.
        -11    1    3    3    0    0 -0.64941952602E+02  0.19969279555E+03  0.33040677187E+02  0.21257082620E+03  0.00000000000E+00 0. -1.
          2    1    6    6  502    0  0.22539307262E+02 -0.17408344527E+02  0.20753734000E+03  0.20948226255E+03  0.00000000000E+00 0. -1.
          1    1    5    5  503    0  0.70960412396E+00 -0.83786259343E+02  0.42070863716E+02  0.93758190930E+02  0.00000000000E+00 0. -1.
         -2    1    5    5    0  503 -0.13992988491E+03 -0.37978767548E+03  0.97731916593E+02  0.41637792767E+03  0.00000000000E+00 0.  1.
         -1    1    6    6    0  502  0.24303168974E+03 -0.37627769446E+02  0.78862768865E+03  0.82608345980E+03  0.00000000000E+00 0.  1.
<mgrwt>
<rscale>  0 0.17402309E+04</rscale>
<asrwt>0</asrwt>
<pdfrwt beam="1">  1        1 0.72118973E-01 0.17402309E+04</pdfrwt>
<pdfrwt beam="2">  1       -1 0.24847205E+00 0.17402309E+04</pdfrwt>
<totfact> 0.32774414E+00</totfact>
</mgrwt>
</event>
<event>
12    1  0.1980523E-007  0.2231370E+04  0.7818608E-02  0.8505483E-01
         -2   -1    0    0    0  501 -0.00000000000E+00  0.00000000000E+00  0.61655475426E+03  0.61655475426E+03  0.00000000000E+00 0. -1.
          2   -1    0    0  501    0  0.00000000000E+00 -0.00000000000E+00 -0.20188855767E+04  0.20188855767E+04  0.00000000000E+00 0.  1.
         23    2    1    2    0    0  0.46984099336E+03 -0.54906249983E+03  0.11215332601E+03  0.73679446216E+03  0.89819391981E+02 0.  0.
        254    2    1    2    0    0 -0.46984099336E+03  0.54906249983E+03 -0.15144841485E+04  0.18986458688E+04  0.88824192170E+03 0.  0.
        -24    2    4    4    0    0  0.22132736998E+03  0.16677641570E+03 -0.71627743987E+03  0.77254658588E+03  0.83514543358E+02 0.  0.
         24    2    4    4    0    0 -0.69116836333E+03  0.38228608413E+03 -0.79820670860E+03  0.11260992829E+04  0.84316598568E+02 0.  0.
         11    1    3    3    0    0  0.11663387447E+03 -0.95096685396E+02 -0.14514416736E+01  0.15049567080E+03  0.00000000000E+00 0.  1.
        -11    1    3    3    0    0  0.35320711888E+03 -0.45396581443E+03  0.11360476768E+03  0.58629879136E+03  0.00000000000E+00 0. -1.
          2    1    6    6  502    0 -0.47800615129E+03  0.28636659214E+03 -0.51367047132E+03  0.75786084400E+03  0.00000000000E+00 0. -1.
          1    1    5    5  503    0  0.20561203140E+03  0.14193337600E+03 -0.55543316726E+03  0.60903808910E+03  0.00000000000E+00 0. -1.
         -2    1    5    5    0  503  0.15715338572E+02  0.24843039706E+02 -0.16084427261E+03  0.16350849678E+03  0.00000000000E+00 0.  1.
         -1    1    6    6    0  502 -0.21316221205E+03  0.95919491989E+02 -0.28453623729E+03  0.36823843894E+03  0.00000000000E+00 0.  1.
<mgrwt>
<rscale>  0 0.22313704E+04</rscale>
<asrwt>0</asrwt>
<pdfrwt beam="1">  1        2 0.31059778E+00 0.22313704E+04</pdfrwt>
<pdfrwt beam="2">  1       -2 0.94854578E-01 0.22313704E+04</pdfrwt>
<totfact> 0.55606588E+00</totfact>
</mgrwt>
</event>
<event>
12    1  0.1980523E-007  0.1192569E+04  0.7818608E-02  0.9119386E-01
          2   -1    0    0  501    0  0.00000000000E+00  0.00000000000E+00  0.18488357342E+04  0.18488357342E+04  0.00000000000E+00 0. -1.
         -2   -1    0    0    0  501 -0.00000000000E+00 -0.00000000000E+00 -0.19231294949E+03  0.19231294949E+03  0.00000000000E+00 0.  1.
         23    2    1    2    0    0  0.23802267246E+03 -0.18791826384E+02  0.36069204819E+03  0.44211629969E+03  0.91433820224E+02 0.  0.
        254    2    1    2    0    0 -0.23802267246E+03  0.18791826384E+02  0.12958307365E+04  0.15990323840E+04  0.90593561694E+03 0.  0.
        -24    2    4    4    0    0 -0.40829952245E+03  0.10744896020E+03  0.13211316312E+04  0.13891696792E+04  0.78420861052E+02 0.  0.
         24    2    4    4    0    0  0.17027684999E+03 -0.88657133820E+02 -0.25300894714E+02  0.20986270481E+03  0.80919259628E+02 0.  0.
         11    1    3    3    0    0  0.57987258377E+02 -0.45376158024E+02  0.10801620541E+03  0.13072497268E+03  0.00000000000E+00 0. -1.
        -11    1    3    3    0    0  0.18003541408E+03  0.26584331640E+02  0.25267584279E+03  0.31139132701E+03  0.00000000000E+00 0.  1.
          2    1    6    6  502    0  0.40263540506E+02 -0.25603837743E+01 -0.35297768676E+02  0.53606349742E+02  0.00000000000E+00 0. -1.
          1    1    5    5  503    0 -0.10351999945E+03  0.62291870281E+01  0.41676554767E+03  0.42947492917E+03  0.00000000000E+00 0. -1.
         -2    1    5    5    0  503 -0.30477952299E+03  0.10121977318E+03  0.90436608358E+03  0.95969475004E+03  0.00000000000E+00 0.  1.
         -1    1    6    6    0  502  0.13001330948E+03 -0.86096750046E+02  0.99968739622E+01  0.15625635507E+03  0.00000000000E+00 0.  1.
<mgrwt>
<rscale>  0 0.11925687E+04</rscale>
<asrwt>0</asrwt>
<pdfrwt beam="1">  1        2 0.28443625E+00 0.11925687E+04</pdfrwt>
<pdfrwt beam="2">  1       -2 0.29586609E-01 0.11925687E+04</pdfrwt>
<totfact> 0.84260217E+01</totfact>
</mgrwt>
</event>
<event>
12    1  0.1980523E-007  0.1362928E+04  0.7818608E-02  0.8981099E-01
          2   -1    0    0  501    0  0.00000000000E+00  0.00000000000E+00  0.74455511738E+03  0.74455511738E+03  0.00000000000E+00 0. -1.
         -2   -1    0    0    0  501 -0.00000000000E+00 -0.00000000000E+00 -0.62371868184E+03  0.62371868184E+03  0.00000000000E+00 0.  1.
         23    2    1    2    0    0 -0.11669108117E+03 -0.15903615424E+02  0.39260957567E+03  0.41976258338E+03  0.90490961408E+02 0.  0.
        254    2    1    2    0    0  0.11669108117E+03  0.15903615424E+02 -0.27177314013E+03  0.94851121584E+03  0.90107888304E+03 0.  0.
        -24    2    4    4    0    0  0.45657415941E+03  0.12225027273E+03 -0.32739566548E+03  0.58058654003E+03  0.80546362255E+02 0.  0.
         24    2    4    4    0    0 -0.33988307824E+03 -0.10634665730E+03  0.55622525347E+02  0.36792467580E+03  0.73787419974E+02 0.  0.
         11    1    3    3    0    0 -0.12975002588E+02 -0.64255089103E+01  0.96978048928E+00  0.14511317346E+02  0.00000000000E+00 0.  1.
        -11    1    3    3    0    0 -0.10371607858E+03 -0.94781065142E+01  0.39163979518E+03  0.40525126604E+03  0.00000000000E+00 0. -1.
          2    1    6    6  502    0 -0.32822685041E+03 -0.97114408531E+02  0.37286516532E+02  0.34431723452E+03  0.00000000000E+00 0. -1.
          3    1    5    5  503    0  0.38503214117E+03  0.11810187128E+03 -0.30599493744E+03  0.50579709714E+03  0.00000000000E+00 0. -1.
         -4    1    5    5    0  503  0.71542018238E+02  0.41484014517E+01 -0.21400728037E+02  0.74789442896E+02  0.00000000000E+00 0.  1.
         -1    1    6    6    0  502 -0.11656227832E+02 -0.92322487730E+01  0.18336008816E+02  0.23607441284E+02  0.00000000000E+00 0.  1.
<mgrwt>
<rscale>  0 0.13629276E+04</rscale>
<asrwt>0</asrwt>
<pdfrwt beam="1">  1        2 0.11454694E+00 0.13629276E+04</pdfrwt>
<pdfrwt beam="2">  1       -2 0.95956720E-01 0.13629276E+04</pdfrwt>
<totfact> 0.33642655E+01</totfact>
</mgrwt>
</event>
<event>
12    1  0.1980523E-007  0.1173662E+04  0.7818608E-02  0.9136228E-01
          1   -1    0    0  501    0  0.00000000000E+00  0.00000000000E+00  0.15739076536E+04  0.15739076536E+04  0.00000000000E+00 0. -1.
         -1   -1    0    0    0  501 -0.00000000000E+00 -0.00000000000E+00 -0.21879978249E+03  0.21879978249E+03  0.00000000000E+00 0.  1.
         23    2    1    2    0    0 -0.56270516467E+02  0.85546180150E+02  0.59510699612E+03  0.61060416938E+03  0.90557135962E+02 0.  0.
        254    2    1    2    0    0  0.56270516467E+02 -0.85546180150E+02  0.76000087497E+03  0.11821032667E+04  0.89960118009E+03 0.  0.
        -24    2    4    4    0    0  0.26306974386E+03  0.33292649548E+03  0.34978669493E+03  0.55554569112E+03  0.78959112494E+02 0.  0.
         24    2    4    4    0    0 -0.20679922740E+03 -0.41847267563E+03  0.41021418004E+03  0.62655757557E+03  0.80083839163E+02 0.  0.
         11    1    3    3    0    0  0.15409117872E+02  0.18188616640E+02  0.37838953405E+02  0.44721953039E+02  0.00000000000E+00 0.  1.
        -11    1    3    3    0    0 -0.71679634339E+02  0.67357563510E+02  0.55726804272E+03  0.56588221634E+03  0.00000000000E+00 0. -1.
          4    1    6    6  502    0 -0.36776728573E+02 -0.28185083180E+02  0.56520764375E+02  0.73085726951E+02  0.00000000000E+00 0. -1.
          3    1    5    5  503    0  0.21912900235E+03  0.22866214611E+03  0.23501909607E+03  0.39438290056E+03  0.00000000000E+00 0. -1.
         -4    1    5    5    0  503  0.43940741510E+02  0.10426434938E+03  0.11476759886E+03  0.16116279057E+03  0.00000000000E+00 0.  1.
         -3    1    6    6    0  502 -0.17002249882E+03 -0.39028759245E+03  0.35369341567E+03  0.55347184862E+03  0.00000000000E+00 0.  1.
<mgrwt>
<rscale>  0 0.11736621E+04</rscale>
<asrwt>0</asrwt>
<pdfrwt beam="1">  1        1 0.24213963E+00 0.11736621E+04</pdfrwt>
<pdfrwt beam="2">  1       -1 0.33661506E-01 0.11736621E+04</pdfrwt>
<totfact> 0.47980069E+01</totfact>
</mgrwt>
</event>
<event>
12    1  0.1980523E-007  0.2748313E+04  0.7818608E-02  0.8319497E-01
          1   -1    0    0  501    0  0.00000000000E+00  0.00000000000E+00  0.17570716637E+04  0.17570716637E+04  0.00000000000E+00 0. -1.
         -1   -1    0    0    0  501 -0.00000000000E+00 -0.00000000000E+00 -0.10746894072E+04  0.10746894072E+04  0.00000000000E+00 0.  1.
         23    2    1    2    0    0 -0.11990545498E+04  0.17160815960E+03  0.11739314521E+03  0.12202604172E+04  0.89850772877E+02 0.  0.
        254    2    1    2    0    0  0.11990545498E+04 -0.17160815960E+03  0.56498911135E+03  0.16115006538E+04  0.90030022066E+03 0.  0.
        -24    2    4    4    0    0  0.11521131256E+04  0.14743546495E+03  0.52487072092E+03  0.12771632418E+04  0.80961731446E+02 0.  0.
         24    2    4    4    0    0  0.46941424191E+02 -0.31904362455E+03  0.40118390426E+02  0.33433741199E+03  0.78610992435E+02 0.  0.
         11    1    3    3    0    0 -0.69659039172E+03  0.55066367575E+02  0.72080767523E+02  0.70247143410E+03  0.00000000000E+00 0.  1.
        -11    1    3    3    0    0 -0.50246415806E+03  0.11654179203E+03  0.45312377684E+02  0.51778898308E+03  0.00000000000E+00 0. -1.
          4    1    6    6  502    0 -0.22262820778E+02 -0.71958740935E+02  0.83840227259E+01  0.75789085117E+02  0.00000000000E+00 0. -1.
          3    1    5    5  503    0  0.10993987036E+04  0.13467030163E+03  0.51707944380E+03  0.12223685004E+04  0.00000000000E+00 0. -1.
         -4    1    5    5    0  503  0.52714421996E+02  0.12765163315E+02  0.77912771277E+01  0.54794741355E+02  0.00000000000E+00 0.  1.
         -3    1    6    6    0  502  0.69204244968E+02 -0.24708488362E+03  0.31734367700E+02  0.25854832687E+03  0.00000000000E+00 0.  1.
<mgrwt>
<rscale>  0 0.27483132E+04</rscale>
<asrwt>0</asrwt>
<pdfrwt beam="1">  1        1 0.27031872E+00 0.27483132E+04</pdfrwt>
<pdfrwt beam="2">  1       -1 0.16533683E+00 0.27483132E+04</pdfrwt>
<totfact> 0.10095736E+00</totfact>
</mgrwt>
</event>
<event>
12    1  0.2346078E-007  0.3541401E+04  0.7818608E-02  0.8104048E-01
          2   -1    0    0  501    0  0.00000000000E+00  0.00000000000E+00  0.14068856792E+04  0.14068856792E+04  0.00000000000E+00 0. -1.
         -2   -1    0    0    0  501 -0.00000000000E+00 -0.00000000000E+00 -0.22285964133E+04  0.22285964133E+04  0.00000000000E+00 0.  1.
         23    2    1    2    0    0 -0.12238570545E+04 -0.51588336319E+01 -0.15229890764E+04  0.19559762012E+04  0.92165446614E+02 0.  0.
        254    2    1    2    0    0  0.12238570545E+04  0.51588336319E+01  0.70127834241E+03  0.16795058913E+04  0.91164467973E+03 0.  0.
        -24    2    4    4    0    0  0.52899675738E+03  0.36741148699E+03  0.38819794542E+02  0.65029450402E+03  0.80914741683E+02 0.  0.
         24    2    4    4    0    0  0.69486029707E+03 -0.36225265336E+03  0.66245854786E+03  0.10292113873E+04  0.79793074525E+02 0.  0.
         11    1    3    3    0    0 -0.60635044170E+03  0.43033952904E+02 -0.76504889636E+03  0.97714512386E+03  0.00000000000E+00 0.  1.
        -11    1    3    3    0    0 -0.61750661275E+03 -0.48192786536E+02 -0.75794018008E+03  0.97883107738E+03  0.00000000000E+00 0. -1.
          4    1    6    6  502    0  0.32315796722E+02 -0.95612883552E+00  0.36321216172E+02  0.48625668575E+02  0.00000000000E+00 0. -1.
          1    1    5    5  503    0  0.10968357514E+03  0.89974432609E+02 -0.23010940684E+02  0.14371982664E+03  0.00000000000E+00 0. -1.
         -2    1    5    5    0  503  0.41931318224E+03  0.27743705438E+03  0.61830735226E+02  0.50657467738E+03  0.00000000000E+00 0.  1.
         -3    1    6    6    0  502  0.66254450035E+03 -0.36129652453E+03  0.62613733169E+03  0.98058571870E+03  0.00000000000E+00 0.  1.
<mgrwt>
<rscale>  0 0.35414011E+04</rscale>
<asrwt>0</asrwt>
<pdfrwt beam="1">  1        2 0.21644395E+00 0.35414011E+04</pdfrwt>
<pdfrwt beam="2">  1       -2 0.34286098E+00 0.35414011E+04</pdfrwt>
<totfact> 0.20254039E-01</totfact>
</mgrwt>
</event>
<event>
12    1  0.1980523E-007  0.1929374E+04  0.7818608E-02  0.8640372E-01
         -1   -1    0    0    0  501 -0.00000000000E+00  0.00000000000E+00  0.55759283202E+03  0.55759283202E+03  0.00000000000E+00 0.  1.
          1   -1    0    0  501    0  0.00000000000E+00 -0.00000000000E+00 -0.16689975714E+04  0.16689975714E+04  0.00000000000E+00 0. -1.
         23    2    1    2    0    0  0.15845969164E+03 -0.57139627681E+03  0.96178923087E+02  0.60754197705E+03  0.90849818981E+02 0.  0.
        254    2    1    2    0    0 -0.15845969164E+03  0.57139627681E+03 -0.12075836625E+04  0.16190484264E+04  0.90080870669E+03 0.  0.
        -24    2    4    4    0    0 -0.27212754465E+03  0.58820132030E+03 -0.12977780190E+04  0.14528354203E+04  0.80428713999E+02 0.  0.
         24    2    4    4    0    0  0.11366785301E+03 -0.16805043489E+02  0.90194356494E+02  0.16621300613E+03  0.79302907705E+02 0.  0.
         11    1    3    3    0    0  0.12326566767E+03 -0.31644737306E+03  0.25065899301E+02  0.34053144355E+03  0.00000000000E+00 0. -1.
        -11    1    3    3    0    0  0.35194023972E+02 -0.25494890375E+03  0.71113023786E+02  0.26701053350E+03  0.00000000000E+00 0.  1.
          4    1    6    6  502    0  0.38723075469E+02  0.48976698132E+01  0.78028593038E+02  0.87246347057E+02  0.00000000000E+00 0. -1.
          1    1    5    5  503    0 -0.20925619428E+03  0.40730169698E+03 -0.98209574445E+03  0.10836027309E+04  0.00000000000E+00 0. -1.
         -2    1    5    5    0  503 -0.62871350375E+02  0.18089962332E+03 -0.31568227454E+03  0.36923268933E+03  0.00000000000E+00 0.  1.
         -3    1    6    6    0  502  0.74944777541E+02 -0.21702713302E+02  0.12165763456E+02  0.78966659077E+02  0.00000000000E+00 0.  1.
<mgrwt>
<rscale>  0 0.19293741E+04</rscale>
<asrwt>0</asrwt>
<pdfrwt beam="1">  1        1 0.25676885E+00 0.19293741E+04</pdfrwt>
<pdfrwt beam="2">  1       -1 0.85783514E-01 0.19293741E+04</pdfrwt>
<totfact> 0.62672550E+00</totfact>
</mgrwt>
</event>
<event>
12    1  0.1980523E-007  0.2071250E+04  0.7818608E-02  0.8574015E-01
          2   -1    0    0  501    0  0.00000000000E+00  0.00000000000E+00  0.16490902209E+04  0.16490902209E+04  0.00000000000E+00 0. -1.
         -2   -1    0    0    0  501 -0.00000000000E+00 -0.00000000000E+00 -0.65037009843E+03  0.65037009843E+03  0.00000000000E+00 0.  1.
         23    2    1    2    0    0 -0.64984929564E+03  0.25901129020E+03  0.92264413300E+03  0.11614376225E+04  0.90962625304E+02 0.  0.
        254    2    1    2    0    0  0.64984929564E+03 -0.25901129020E+03  0.76075989419E+02  0.11380226968E+04  0.89438087348E+03 0.  0.
        -24    2    4    4    0    0  0.32811059125E+03  0.31492597041E+03  0.11063411592E+03  0.47472268211E+03  0.79289282873E+02 0.  0.
         24    2    4    4    0    0  0.32173870439E+03 -0.57393726061E+03 -0.34558126506E+02  0.66330001472E+03  0.76504067915E+02 0.  0.
         11    1    3    3    0    0 -0.24124892171E+03  0.14077135908E+03  0.33933067652E+03  0.43950304412E+03  0.00000000000E+00 0. -1.
        -11    1    3    3    0    0 -0.40860037393E+03  0.11823993112E+03  0.58331345648E+03  0.72193457834E+03  0.00000000000E+00 0.  1.
          4    1    6    6  502    0  0.27170816134E+03 -0.44574121525E+03 -0.26308300773E+01  0.52203206528E+03  0.00000000000E+00 0. -1.
          3    1    5    5  503    0  0.21312174265E+03  0.25151316235E+03  0.90593210717E+02  0.34188722973E+03  0.00000000000E+00 0. -1.
         -4    1    5    5    0  503  0.11498884860E+03  0.63412808057E+02  0.20040905208E+02  0.13283545238E+03  0.00000000000E+00 0.  1.
         -3    1    6    6    0  502  0.50030543050E+02 -0.12819604536E+03 -0.31927296428E+02  0.14126794945E+03  0.00000000000E+00 0.  1.
<mgrwt>
<rscale>  0 0.20712498E+04</rscale>
<asrwt>0</asrwt>
<pdfrwt beam="1">  1        2 0.25370619E+00 0.20712498E+04</pdfrwt>
<pdfrwt beam="2">  1       -2 0.10005694E+00 0.20712498E+04</pdfrwt>
<totfact> 0.79775950E+00</totfact>
</mgrwt>
</event>
<event>
12    1  0.1980523E-007  0.3926178E+04  0.7818608E-02  0.8019607E-01
         -2   -1    0    0    0  501 -0.00000000000E+00  0.00000000000E+00  0.72099984807E+03  0.72099984807E+03  0.00000000000E+00 0.  1.
          2   -1    0    0  501    0  0.00000000000E+00 -0.00000000000E+00 -0.53449655045E+04  0.53449655045E+04  0.00000000000E+00 0. -1.
         23    2    1    2    0    0  0.12501960927E+04  0.13479883185E+04 -0.17711150301E+04  0.25544297608E+04  0.90554823980E+02 0.  0.
        254    2    1    2    0    0 -0.12501960927E+04 -0.13479883185E+04 -0.28528506263E+04  0.35115355917E+04  0.90114523747E+03 0.  0.
        -24    2    4    4    0    0 -0.21179032073E+03 -0.87405897977E+03 -0.12868451621E+04  0.15720077057E+04  0.80021969395E+02 0.  0.
         24    2    4    4    0    0 -0.10384057720E+04 -0.47392933868E+03 -0.15660054642E+04  0.19395278860E+04  0.80620972852E+02 0.  0.
         13    1    3    3    0    0  0.59959121762E+03  0.59008059805E+03 -0.84270257633E+03  0.11907360634E+04  0.00000000000E+00 0. -1.
        -13    1    3    3    0    0  0.65060487512E+03  0.75790772040E+03 -0.92841245380E+03  0.13636936975E+04  0.00000000000E+00 0.  1.
          4    1    6    6  502    0 -0.57829122571E+03 -0.29687659603E+03 -0.84562612441E+03  0.10666020801E+04  0.00000000000E+00 0. -1.
          1    1    5    5  503    0 -0.14323098406E+03 -0.50265134185E+03 -0.80485277576E+03  0.95966737827E+03  0.00000000000E+00 0. -1.
         -2    1    5    5    0  503 -0.68559336672E+02 -0.37140763792E+03 -0.48199238632E+03  0.61234032745E+03  0.00000000000E+00 0.  1.
         -3    1    6    6    0  502 -0.46011454629E+03 -0.17705274264E+03 -0.72037933982E+03  0.87292580591E+03  0.00000000000E+00 0.  1.
<mgrwt>
<rscale>  0 0.39261785E+04</rscale>
<asrwt>0</asrwt>
<pdfrwt beam="1">  1        2 0.82230241E+00 0.39261785E+04</pdfrwt>
<pdfrwt beam="2">  1       -2 0.11092305E+00 0.39261785E+04</pdfrwt>
<totfact> 0.55694318E-03</totfact>
</mgrwt>
</event>
<event>
12    1  0.1980523E-007  0.2250810E+04  0.7818608E-02  0.8497573E-01
         -1   -1    0    0    0  501 -0.00000000000E+00  0.00000000000E+00  0.10554240960E+04  0.10554240960E+04  0.00000000000E+00 0.  1.
          1   -1    0    0  501    0  0.00000000000E+00 -0.00000000000E+00 -0.12000256925E+04  0.12000256925E+04  0.00000000000E+00 0. -1.
         23    2    1    2    0    0  0.37104050352E+03 -0.63289052711E+03  0.53166003475E+03  0.91068481428E+03  0.91994368559E+02 0.  0.
        254    2    1    2    0    0 -0.37104050352E+03  0.63289052711E+03 -0.67626163125E+03  0.13447649742E+04  0.90157726643E+03 0.  0.
        -24    2    4    4    0    0 -0.43958834388E+03  0.73137599776E+03 -0.24712429431E+03  0.89195548419E+03  0.79783499360E+02 0.  0.
         24    2    4    4    0    0  0.68547840355E+02 -0.98485470651E+02 -0.42913733694E+03  0.45280949000E+03  0.80494632894E+02 0.  0.
         11    1    3    3    0    0  0.77578619412E+02 -0.21072038658E+03  0.14375827770E+03  0.26662326589E+03  0.00000000000E+00 0. -1.
        -11    1    3    3    0    0  0.29346188411E+03 -0.42217014053E+03  0.38790175705E+03  0.64406154838E+03  0.00000000000E+00 0.  1.
          4    1    6    6  502    0  0.61504296729E+02 -0.10215149424E+03 -0.42857059780E+03  0.44484880981E+03  0.00000000000E+00 0. -1.
          3    1    5    5  503    0 -0.72054773921E+02  0.16061971400E+03 -0.76768846767E+02  0.19205217730E+03  0.00000000000E+00 0. -1.
         -4    1    5    5    0  503 -0.36753356996E+03  0.57075628376E+03 -0.17035544754E+03  0.69990330690E+03  0.00000000000E+00 0.  1.
         -3    1    6    6    0  502  0.70435436262E+01  0.36660235839E+01 -0.56673914086E+00  0.79606801836E+01  0.00000000000E+00 0.  1.
<mgrwt>
<rscale>  0 0.22508097E+04</rscale>
<asrwt>0</asrwt>
<pdfrwt beam="1">  1        1 0.18461934E+00 0.22508097E+04</pdfrwt>
<pdfrwt beam="2">  1       -1 0.16237294E+00 0.22508097E+04</pdfrwt>
<totfact> 0.27200537E+00</totfact>
</mgrwt>
</event>
<event>
12    1  0.1980523E-007  0.3584292E+04  0.7818608E-02  0.8094099E-01
         -3   -1    0    0    0  501 -0.00000000000E+00  0.00000000000E+00  0.97072635750E+03  0.97072635750E+03  0.00000000000E+00 0.  1.
          3   -1    0    0  501    0  0.00000000000E+00 -0.00000000000E+00 -0.33086440143E+04  0.33086440143E+04  0.00000000000E+00 0. -1.
         23    2    1    2    0    0 -0.12177194110E+04 -0.82429329136E+03 -0.12285351165E+03  0.14783194826E+04  0.89641023469E+02 0.  0.
        254    2    1    2    0    0  0.12177194110E+04  0.82429329136E+03 -0.22150641452E+04  0.28010508892E+04  0.88151966659E+03 0.  0.
        -24    2    4    4    0    0  0.81088430414E+03  0.34242092519E+02 -0.93323127427E+03  0.12392980769E+04  0.78950848812E+02 0.  0.
         24    2    4    4    0    0  0.40683510691E+03  0.79005119884E+03 -0.12818328709E+04  0.15617528123E+04  0.79250469297E+02 0.  0.
         11    1    3    3    0    0 -0.51783969192E+03 -0.30370703190E+03 -0.29127479738E+02  0.60103603705E+03  0.00000000000E+00 0. -1.
        -11    1    3    3    0    0 -0.69987971913E+03 -0.52058625946E+03 -0.93726031910E+02  0.87728344555E+03  0.00000000000E+00 0.  1.
          2    1    6    6  502    0  0.15128078025E+03  0.26379545592E+03 -0.50108509112E+03  0.58614007334E+03  0.00000000000E+00 0. -1.
          1    1    5    5  503    0  0.23035581955E+02  0.79890974199E+00 -0.51297418049E+02  0.56237899954E+02  0.00000000000E+00 0. -1.
         -2    1    5    5    0  503  0.78784872219E+03  0.33443182777E+02 -0.88193385623E+03  0.11830601769E+04  0.00000000000E+00 0.  1.
         -1    1    6    6    0  502  0.25555432666E+03  0.52625574292E+03 -0.78074777979E+03  0.97561273899E+03  0.00000000000E+00 0.  1.
<mgrwt>
<rscale>  0 0.35842924E+04</rscale>
<asrwt>0</asrwt>
<pdfrwt beam="1">  1        3 0.50902216E+00 0.35842924E+04</pdfrwt>
<pdfrwt beam="2">  1       -3 0.14934252E+00 0.35842924E+04</pdfrwt>
<totfact> 0.21317012E-03</totfact>
</mgrwt>
</event>
<event>
12    1  0.1980523E-007  0.5060326E+04  0.7818608E-02  0.7819268E-01
         -2   -1    0    0    0  501 -0.00000000000E+00  0.00000000000E+00  0.17491856451E+04  0.17491856451E+04  0.00000000000E+00 0.  1.
          2   -1    0    0  501    0  0.00000000000E+00 -0.00000000000E+00 -0.36598319006E+04  0.36598319006E+04  0.00000000000E+00 0. -1.
         23    2    1    2    0    0 -0.19702109787E+04 -0.28930828484E+03  0.59915572785E+03  0.20816485582E+04  0.94034831441E+02 0.  0.
        254    2    1    2    0    0  0.19702109787E+04  0.28930828484E+03 -0.25098019834E+04  0.33273689875E+04  0.89824707022E+03 0.  0.
        -24    2    4    4    0    0  0.22707866128E+03 -0.15697681781E+03 -0.69730391064E+02  0.29458826080E+03  0.75587540144E+02 0.  0.
         24    2    4    4    0    0  0.17431323174E+04  0.44628510265E+03 -0.24400715923E+04  0.30327807267E+04  0.78287239898E+02 0.  0.
         11    1    3    3    0    0 -0.90989587156E+03 -0.95200697475E+02  0.24645365045E+03  0.94747721434E+03  0.00000000000E+00 0. -1.
        -11    1    3    3    0    0 -0.10603151071E+04 -0.19410758737E+03  0.35270207740E+03  0.11341713439E+04  0.00000000000E+00 0.  1.
          2    1    6    6  502    0  0.80303463538E+03  0.18866625040E+03 -0.10590051797E+04  0.13423678893E+04  0.00000000000E+00 0. -1.
          1    1    5    5  503    0  0.22689596593E+03 -0.15045303948E+03 -0.53989108028E+02  0.27754769000E+03  0.00000000000E+00 0. -1.
         -2    1    5    5    0  503  0.18269534964E+00 -0.65237783341E+01 -0.15741283035E+02  0.17040570793E+02  0.00000000000E+00 0.  1.
         -1    1    6    6    0  502  0.94009768200E+03  0.25761885225E+03 -0.13810664126E+04  0.16904128374E+04  0.00000000000E+00 0.  1.
<mgrwt>
<rscale>  0 0.50603262E+04</rscale>
<asrwt>0</asrwt>
<pdfrwt beam="1">  1        2 0.56305105E+00 0.50603262E+04</pdfrwt>
<pdfrwt beam="2">  1       -2 0.26910549E+00 0.50603262E+04</pdfrwt>
<totfact> 0.22157476E-02</totfact>
</mgrwt>
</event>
<event>
12    1  0.1980523E-007  0.1812850E+04  0.7818608E-02  0.8699496E-01
         -2   -1    0    0    0  501 -0.00000000000E+00  0.00000000000E+00  0.12076267320E+04  0.12076267320E+04  0.00000000000E+00 0.  1.
          2   -1    0    0  501    0  0.00000000000E+00 -0.00000000000E+00 -0.68034787194E+03  0.68034787194E+03  0.00000000000E+00 0. -1.
         23    2    1    2    0    0 -0.38599236132E+03 -0.56028112529E+03  0.20054288348E+03  0.71495396104E+03  0.89647509420E+02 0.  0.
        254    2    1    2    0    0  0.38599236132E+03  0.56028112529E+03  0.32673597654E+03  0.11730206429E+04  0.89795099413E+03 0.  0.
        -24    2    4    4    0    0 -0.15963428730E+03  0.54210092463E+03  0.21606440098E+03  0.61056352860E+03  0.82143039384E+02 0.  0.
         24    2    4    4    0    0  0.54562664862E+03  0.18180200659E+02  0.11067157556E+03  0.56245711426E+03  0.77915649022E+02 0.  0.
         11    1    3    3    0    0 -0.28593529350E+03 -0.47593356959E+03  0.15612699959E+03  0.57675592301E+03  0.00000000000E+00 0. -1.
        -11    1    3    3    0    0 -0.10005706782E+03 -0.84347555696E+02  0.44415883884E+02  0.13819803803E+03  0.00000000000E+00 0.  1.
          2    1    6    6  502    0  0.27704729897E+03 -0.29435838978E+02  0.60924365429E+02  0.28519020457E+03  0.00000000000E+00 0. -1.
          1    1    5    5  503    0 -0.12489401826E+03  0.42753502868E+03  0.13294918013E+03  0.46482276305E+03  0.00000000000E+00 0. -1.
         -2    1    5    5    0  503 -0.34740269041E+02  0.11456589594E+03  0.83115220853E+02  0.14574076555E+03  0.00000000000E+00 0.  1.
         -1    1    6    6    0  502  0.26857934966E+03  0.47616039637E+02  0.49747210126E+02  0.27726690969E+03  0.00000000000E+00 0.  1.
<mgrwt>
<rscale>  0 0.18128500E+04</rscale>
<asrwt>0</asrwt>
<pdfrwt beam="1">  1        2 0.10466890E+00 0.18128500E+04</pdfrwt>
<pdfrwt beam="2">  1       -2 0.18578873E+00 0.18128500E+04</pdfrwt>
<totfact> 0.66241123E+00</totfact>
</mgrwt>
</event>
<event>
12    1  0.1980523E-007  0.1134602E+04  0.7818608E-02  0.9172108E-01
         -1   -1    0    0    0  501 -0.00000000000E+00  0.00000000000E+00  0.54742298499E+03  0.54742298499E+03  0.00000000000E+00 0.  1.
          1   -1    0    0  501    0  0.00000000000E+00 -0.00000000000E+00 -0.58790047198E+03  0.58790047198E+03  0.00000000000E+00 0. -1.
         23    2    1    2    0    0 -0.11756808388E+03  0.12101533609E+03 -0.10929037481E+03  0.22010215705E+03  0.89630394360E+02 0.  0.
        254    2    1    2    0    0  0.11756808388E+03 -0.12101533609E+03  0.68812887827E+02  0.91522129993E+03  0.89689901795E+03 0.  0.
        -24    2    4    4    0    0  0.24796240738E+03  0.16368781275E+03  0.36467051572E+03  0.47712118332E+03  0.79881055442E+02 0.  0.
         24    2    4    4    0    0 -0.13039432350E+03 -0.28470314884E+03 -0.29585762789E+03  0.43810011661E+03  0.79632993347E+02 0.  0.
         13    1    3    3    0    0 -0.58731165216E+02  0.24500644601E+02 -0.82042289324E+02  0.10382951695E+03  0.00000000000E+00 0. -1.
        -13    1    3    3    0    0 -0.58836918662E+02  0.96514691489E+02 -0.27248085490E+02  0.11627264009E+03  0.00000000000E+00 0.  1.
          4    1    6    6  502    0 -0.61369562829E+02 -0.22012598520E+03 -0.20523322719E+03  0.30715199844E+03  0.00000000000E+00 0. -1.
          1    1    5    5  503    0  0.86085771870E+02  0.10419252929E+03  0.15595460690E+03  0.20637025632E+03  0.00000000000E+00 0. -1.
         -2    1    5    5    0  503  0.16187663551E+03  0.59495283461E+02  0.20871590882E+03  0.27075092700E+03  0.00000000000E+00 0.  1.
         -3    1    6    6    0  502 -0.69024760671E+02 -0.64577163643E+02 -0.90624400703E+02  0.13094811817E+03  0.00000000000E+00 0.  1.
<mgrwt>
<rscale>  0 0.11346017E+04</rscale>
<asrwt>0</asrwt>
<pdfrwt beam="1">  1        1 0.90446226E-01 0.11346017E+04</pdfrwt>
<pdfrwt beam="2">  1       -1 0.84218921E-01 0.11346017E+04</pdfrwt>
<totfact> 0.49008274E+01</totfact>
</mgrwt>
</event>
<event>
12    1  0.1980523E-007  0.2460436E+04  0.7818608E-02  0.8417218E-01
         -3   -1    0    0    0  501 -0.00000000000E+00  0.00000000000E+00  0.13135690322E+04  0.13135690322E+04  0.00000000000E+00 0.  1.
          3   -1    0    0  501    0  0.00000000000E+00 -0.00000000000E+00 -0.11521554713E+04  0.11521554713E+04  0.00000000000E+00 0. -1.
         23    2    1    2    0    0 -0.48503049793E+03 -0.93886315407E+03  0.19511046699E+03  0.10774553266E+04  0.78251392925E+02 0.  0.
        254    2    1    2    0    0  0.48503049793E+03  0.93886315407E+03 -0.33696906106E+02  0.13882691769E+04  0.89968729017E+03 0.  0.
        -24    2    4    4    0    0  0.38781382014E+03  0.53976638365E+03 -0.44302333668E+03  0.80285651225E+03  0.81003669127E+02 0.  0.
         24    2    4    4    0    0  0.97216677788E+02  0.39909677042E+03  0.40932643058E+03  0.58541266466E+03  0.80190688824E+02 0.  0.
         11    1    3    3    0    0 -0.11056129884E+03 -0.14949565396E+03  0.31832458176E+02  0.18864266948E+03  0.00000000000E+00 0. -1.
        -11    1    3    3    0    0 -0.37446919909E+03 -0.78936750010E+03  0.16327800882E+03  0.88881265712E+03  0.00000000000E+00 0.  1.
          2    1    6    6  502    0  0.50161131251E+02  0.12155755056E+03  0.88041393633E+02  0.15825190103E+03  0.00000000000E+00 0. -1.
          1    1    5    5  503    0  0.89861646451E+02  0.13469519241E+03 -0.15077656964E+03  0.22124982331E+03  0.00000000000E+00 0. -1.
         -2    1    5    5    0  503  0.29795217369E+03  0.40507119124E+03 -0.29224676704E+03  0.58160668895E+03  0.00000000000E+00 0.  1.
         -1    1    6    6    0  502  0.47055546538E+02  0.27753921986E+03  0.32128503695E+03  0.42716076363E+03  0.00000000000E+00 0.  1.
<mgrwt>
<rscale>  0 0.24604355E+04</rscale>
<asrwt>0</asrwt>
<pdfrwt beam="1">  1        3 0.17725469E+00 0.24604355E+04</pdfrwt>
<pdfrwt beam="2">  1       -3 0.20208754E+00 0.24604355E+04</pdfrwt>
<totfact> 0.68597984E-02</totfact>
</mgrwt>
</event>
<event>
12    1  0.1980523E-007  0.1901324E+04  0.7818608E-02  0.8654198E-01
         -2   -1    0    0    0  501 -0.00000000000E+00  0.00000000000E+00  0.79585132612E+03  0.79585132612E+03  0.00000000000E+00 0.  1.
          2   -1    0    0  501    0  0.00000000000E+00 -0.00000000000E+00 -0.11355864765E+04  0.11355864765E+04  0.00000000000E+00 0. -1.
         23    2    1    2    0    0  0.66306466956E+02  0.70107813810E+03 -0.34385840245E+03  0.78879573077E+03  0.89738512738E+02 0.  0.
        254    2    1    2    0    0 -0.66306466956E+02 -0.70107813810E+03  0.41232520287E+01  0.11426420719E+04  0.89983709636E+03 0.  0.
        -24    2    4    4    0    0  0.21450523623E+03 -0.50829880630E+02  0.29156655951E+03  0.37404952313E+03  0.79409155605E+02 0.  0.
         24    2    4    4    0    0 -0.28081170319E+03 -0.65024825747E+03 -0.28744330748E+03  0.76859254877E+03  0.80204999923E+02 0.  0.
         11    1    3    3    0    0 -0.29950966636E+01  0.43139549839E+03 -0.20435940553E+03  0.47736130265E+03  0.00000000000E+00 0. -1.
        -11    1    3    3    0    0  0.69301563620E+02  0.26968263971E+03 -0.13949899692E+03  0.31143442813E+03  0.00000000000E+00 0.  1.
          2    1    6    6  502    0 -0.26438385986E+03 -0.64081432969E+03 -0.28492261037E+03  0.74948163712E+03  0.00000000000E+00 0. -1.
          1    1    5    5  503    0  0.12351637518E+03 -0.27867979765E+02  0.22769486535E+03  0.26053381919E+03  0.00000000000E+00 0. -1.
         -2    1    5    5    0  503  0.90988861052E+02 -0.22961900865E+02  0.63871694161E+02  0.11351570394E+03  0.00000000000E+00 0.  1.
         -1    1    6    6    0  502 -0.16427843332E+02 -0.94339277839E+01 -0.25206971152E+01  0.19110911645E+02  0.00000000000E+00 0.  1.
<mgrwt>
<rscale>  0 0.19013238E+04</rscale>
<asrwt>0</asrwt>
<pdfrwt beam="1">  1        2 0.17470561E+00 0.19013238E+04</pdfrwt>
<pdfrwt beam="2">  1       -2 0.12243867E+00 0.19013238E+04</pdfrwt>
<totfact> 0.97989165E+00</totfact>
</mgrwt>
</event>
<event>
12    1  0.1980523E-007  0.1272685E+04  0.7818608E-02  0.9051511E-01
          2   -1    0    0  501    0  0.00000000000E+00  0.00000000000E+00  0.49595599222E+03  0.49595599222E+03  0.00000000000E+00 0. -1.
         -2   -1    0    0    0  501 -0.00000000000E+00 -0.00000000000E+00 -0.81646742699E+03  0.81646742699E+03  0.00000000000E+00 0.  1.
         23    2    1    2    0    0 -0.29312698163E+03 -0.31668832512E+02 -0.16988334302E+03  0.35301458215E+03  0.93981927303E+02 0.  0.
        254    2    1    2    0    0  0.29312698163E+03  0.31668832512E+02 -0.15062809175E+03  0.95940883707E+03  0.90047218297E+03 0.  0.
        -24    2    4    4    0    0 -0.51837116286E+02  0.36926386728E+03 -0.25503727532E+03  0.45886579604E+03  0.80442008084E+02 0.  0.
         24    2    4    4    0    0  0.34496409792E+03 -0.33759503477E+03  0.10440918357E+03  0.50054304103E+03  0.81678773005E+02 0.  0.
         13    1    3    3    0    0 -0.28081917161E+03 -0.20845816381E+02 -0.17957131118E+03  0.33397576410E+03  0.00000000000E+00 0.  1.
        -13    1    3    3    0    0 -0.12307810019E+02 -0.10823016131E+02  0.96879681600E+01  0.19038818050E+02  0.00000000000E+00 0. -1.
          4    1    6    6  502    0  0.16814384042E+03 -0.18187302811E+03  0.13695865291E+02  0.24806798695E+03  0.00000000000E+00 0. -1.
          1    1    5    5  503    0 -0.20716649499E+02  0.10391628339E+03 -0.31575777151E+02  0.11056583208E+03  0.00000000000E+00 0. -1.
         -2    1    5    5    0  503 -0.31120466787E+02  0.26534758389E+03 -0.22346149817E+03  0.34829996396E+03  0.00000000000E+00 0.  1.
         -3    1    6    6    0  502  0.17682025750E+03 -0.15572200666E+03  0.90713318278E+02  0.25247505408E+03  0.00000000000E+00 0.  1.
<mgrwt>
<rscale>  0 0.12726852E+04</rscale>
<asrwt>0</asrwt>
<pdfrwt beam="1">  1        2 0.76300922E-01 0.12726852E+04</pdfrwt>
<pdfrwt beam="2">  1       -2 0.12561037E+00 0.12726852E+04</pdfrwt>
<totfact> 0.28901622E+01</totfact>
</mgrwt>
</event>
<event>
12    1  0.1980523E-007  0.1438299E+04  0.7818608E-02  0.8926553E-01
          2   -1    0    0  501    0  0.00000000000E+00  0.00000000000E+00  0.12311539406E+04  0.12311539406E+04  0.00000000000E+00 0. -1.
         -2   -1    0    0    0  501 -0.00000000000E+00 -0.00000000000E+00 -0.42007397181E+03  0.42007397181E+03  0.00000000000E+00 0.  1.
         23    2    1    2    0    0  0.30118743007E+03 -0.25735545613E+03  0.50167658455E+02  0.40984076101E+03  0.92233164310E+02 0.  0.
        254    2    1    2    0    0 -0.30118743007E+03  0.25735545613E+03  0.76091231037E+03  0.12413871514E+04  0.89727856146E+03 0.  0.
        -24    2    4    4    0    0 -0.35834421354E+03  0.17982466536E+03 -0.58117105240E+02  0.41290714154E+03  0.79794886816E+02 0.  0.
         24    2    4    4    0    0  0.57156783473E+02  0.77530790771E+02  0.81902941561E+03  0.82848000990E+03  0.79322265171E+02 0.  0.
         11    1    3    3    0    0  0.13020083252E+03 -0.11623546265E+03  0.68244907187E+02  0.18740412729E+03  0.00000000000E+00 0. -1.
        -11    1    3    3    0    0  0.17098659755E+03 -0.14111999348E+03 -0.18077248732E+02  0.22243663373E+03  0.00000000000E+00 0.  1.
          2    1    6    6  502    0  0.68949639526E+02  0.29023080640E+02  0.50264315978E+03  0.50817963170E+03  0.00000000000E+00 0. -1.
          3    1    5    5  503    0 -0.43487532022E+02  0.12024613253E+02 -0.31717855176E+02  0.55152326353E+02  0.00000000000E+00 0. -1.
         -4    1    5    5    0  503 -0.31485668152E+03  0.16780005211E+03 -0.26399250065E+02  0.35775481519E+03  0.00000000000E+00 0.  1.
         -3    1    6    6    0  502 -0.11792856054E+02  0.48507710131E+02  0.31638625582E+03  0.32030037819E+03  0.00000000000E+00 0.  1.
<mgrwt>
<rscale>  0 0.14382986E+04</rscale>
<asrwt>0</asrwt>
<pdfrwt beam="1">  1        2 0.18940830E+00 0.14382986E+04</pdfrwt>
<pdfrwt beam="2">  1       -2 0.64626765E-01 0.14382986E+04</pdfrwt>
<totfact> 0.38935775E+01</totfact>
</mgrwt>
</event>
<event>
12    1  0.1980523E-007  0.2573439E+04  0.7818608E-02  0.8377280E-01
         -1   -1    0    0    0  501 -0.00000000000E+00  0.00000000000E+00  0.65441595311E+03  0.65441595311E+03  0.00000000000E+00 0.  1.
          1   -1    0    0  501    0  0.00000000000E+00 -0.00000000000E+00 -0.25299611441E+04  0.25299611441E+04  0.00000000000E+00 0. -1.
         23    2    1    2    0    0  0.90100901708E+02  0.10452297132E+04 -0.31166980491E+03  0.10981350379E+04  0.90217339394E+02 0.  0.
        254    2    1    2    0    0 -0.90100901708E+02 -0.10452297132E+04 -0.15638753861E+04  0.20862420593E+04  0.89781756562E+03 0.  0.
        -24    2    4    4    0    0 -0.19527357109E+03  0.83742706752E+02 -0.15250700375E+03  0.27391923984E+03  0.81417168105E+02 0.  0.
         24    2    4    4    0    0  0.10517266938E+03 -0.11289724199E+04 -0.14113683823E+04  0.18123228195E+04  0.83146112622E+02 0.  0.
         11    1    3    3    0    0  0.23839990037E+00  0.39110484868E+03 -0.14535288989E+03  0.41724156324E+03  0.00000000000E+00 0. -1.
        -11    1    3    3    0    0  0.89862501807E+02  0.65412486450E+03 -0.16631691503E+03  0.68089347464E+03  0.00000000000E+00 0.  1.
          4    1    6    6  502    0  0.10964926758E+03 -0.10268794750E+04 -0.13130983370E+04  0.16705483114E+04  0.00000000000E+00 0. -1.
          3    1    5    5  503    0 -0.14073857934E+03  0.90412718807E+02 -0.87418937035E+02  0.18874288858E+03  0.00000000000E+00 0. -1.
         -4    1    5    5    0  503 -0.54534991754E+02 -0.66700120547E+01 -0.65088066712E+02  0.85176351264E+02  0.00000000000E+00 0.  1.
         -3    1    6    6    0  502 -0.44765982011E+01 -0.10209294495E+03 -0.98270045321E+02  0.14177450810E+03  0.00000000000E+00 0.  1.
<mgrwt>
<rscale>  0 0.25734389E+04</rscale>
<asrwt>0</asrwt>
<pdfrwt beam="1">  1        1 0.38922480E+00 0.25734389E+04</pdfrwt>
<pdfrwt beam="2">  1       -1 0.10067937E+00 0.25734389E+04</pdfrwt>
<totfact> 0.10693229E+00</totfact>
</mgrwt>
</event>
<event>
12    1  0.1980523E-007  0.3783934E+04  0.7818608E-02  0.8049611E-01
          2   -1    0    0  501    0  0.00000000000E+00  0.00000000000E+00  0.18262585469E+04  0.18262585469E+04  0.00000000000E+00 0. -1.
         -2   -1    0    0    0  501 -0.00000000000E+00 -0.00000000000E+00 -0.19600392195E+04  0.19600392195E+04  0.00000000000E+00 0.  1.
         23    2    1    2    0    0 -0.13796567030E+04 -0.87612133883E+03  0.65191401478E+03  0.17618784575E+04  0.90457713735E+02 0.  0.
        254    2    1    2    0    0  0.13796567030E+04  0.87612133883E+03 -0.78569468739E+03  0.20244193089E+04  0.89995343110E+03 0.  0.
        -24    2    4    4    0    0  0.71509226893E+03  0.99883387245E+02 -0.67849555406E+03  0.99398057885E+03  0.79419960519E+02 0.  0.
         24    2    4    4    0    0  0.66456443407E+03  0.77623795159E+03 -0.10719913333E+03  0.10304387301E+04  0.78237316998E+02 0.  0.
         11    1    3    3    0    0 -0.34063134020E+03 -0.19392636934E+03  0.19295408477E+03  0.43688491102E+03  0.00000000000E+00 0.  1.
        -11    1    3    3    0    0 -0.10390253628E+04 -0.68219496949E+03  0.45895993001E+03  0.13249935465E+04  0.00000000000E+00 0. -1.
          4    1    6    6  502    0  0.53746731189E+03  0.57982104290E+03 -0.92931121641E+02  0.79605260285E+03  0.00000000000E+00 0. -1.
          1    1    5    5  503    0  0.34299506437E+03  0.28196875882E+02 -0.37032086380E+03  0.50554744600E+03  0.00000000000E+00 0. -1.
         -2    1    5    5    0  503  0.37209720456E+03  0.71686511363E+02 -0.30817469026E+03  0.48843313285E+03  0.00000000000E+00 0.  1.
         -3    1    6    6    0  502  0.12709712219E+03  0.19641690869E+03 -0.14268011693E+02  0.23438612724E+03  0.00000000000E+00 0.  1.
<mgrwt>
<rscale>  0 0.37839336E+04</rscale>
<asrwt>0</asrwt>
<pdfrwt beam="1">  1        2 0.28096285E+00 0.37839336E+04</pdfrwt>
<pdfrwt beam="2">  1       -2 0.30154449E+00 0.37839336E+04</pdfrwt>
<totfact> 0.20832863E-01</totfact>
</mgrwt>
</event>
<event>
12    1  0.1980523E-007  0.3097949E+04  0.7818608E-02  0.8216301E-01
          2   -1    0    0  501    0  0.00000000000E+00  0.00000000000E+00  0.16005472161E+04  0.16005472161E+04  0.00000000000E+00 0. -1.
         -2   -1    0    0    0  501 -0.00000000000E+00 -0.00000000000E+00 -0.14990638305E+04  0.14990638305E+04  0.00000000000E+00 0.  1.
         23    2    1    2    0    0  0.21304450121E+03 -0.13333580231E+04 -0.38238035477E+03  0.14061748114E+04  0.88776613085E+02 0.  0.
        254    2    1    2    0    0 -0.21304450121E+03  0.13333580231E+04  0.48386374040E+03  0.16934362353E+04  0.90020585775E+03 0.  0.
        -24    2    4    4    0    0 -0.37930804842E+03  0.11154621947E+04  0.60278582933E+02  0.11825866583E+04  0.82141300563E+02 0.  0.
         24    2    4    4    0    0  0.16626354721E+03  0.21789582841E+03  0.42358515747E+03  0.51084957702E+03  0.80129554796E+02 0.  0.
         11    1    3    3    0    0  0.65834465750E+02 -0.21472055916E+03 -0.52201219852E+02  0.23057333489E+03  0.00000000000E+00 0. -1.
        -11    1    3    3    0    0  0.14721003546E+03 -0.11186374640E+04 -0.33017913492E+03  0.11756014765E+04  0.00000000000E+00 0.  1.
          4    1    6    6  502    0  0.15364859058E+03  0.19931929408E+03  0.41766548537E+03  0.48762744801E+03  0.00000000000E+00 0. -1.
          1    1    5    5  503    0 -0.12935972089E+03  0.50447769634E+03  0.18325212675E+02  0.52112138405E+03  0.00000000000E+00 0. -1.
         -2    1    5    5    0  503 -0.24994832752E+03  0.61098449839E+03  0.41953370258E+02  0.66146527421E+03  0.00000000000E+00 0.  1.
         -3    1    6    6    0  502  0.12614956630E+02  0.18576534325E+02  0.59196720946E+01  0.23222129015E+02  0.00000000000E+00 0.  1.
<mgrwt>
<rscale>  0 0.30979493E+04</rscale>
<asrwt>0</asrwt>
<pdfrwt beam="1">  1        2 0.24623803E+00 0.30979493E+04</pdfrwt>
<pdfrwt beam="2">  1       -2 0.23062520E+00 0.30979493E+04</pdfrwt>
<totfact> 0.80187338E-01</totfact>
</mgrwt>
</event>
<event>
12    1  0.1980523E-007  0.2955489E+04  0.7818608E-02  0.8256557E-01
         -1   -1    0    0    0  501 -0.00000000000E+00  0.00000000000E+00  0.13827553582E+04  0.13827553582E+04  0.00000000000E+00 0.  1.
          1   -1    0    0  501    0  0.00000000000E+00 -0.00000000000E+00 -0.15792587456E+04  0.15792587456E+04  0.00000000000E+00 0. -1.
         23    2    1    2    0    0  0.46641962697E+03 -0.74117638965E+03 -0.11037116928E+04  0.14118461751E+04  0.90776716805E+02 0.  0.
        254    2    1    2    0    0 -0.46641962697E+03  0.74117638965E+03  0.90720830545E+03  0.15501679287E+04  0.90172278932E+03 0.  0.
        -24    2    4    4    0    0  0.13805129037E+03  0.17766908063E+03  0.63249905625E+03  0.67575533572E+03  0.77238310518E+02 0.  0.
         24    2    4    4    0    0 -0.60447091734E+03  0.56350730901E+03  0.27470924920E+03  0.87441259300E+03  0.78782193294E+02 0.  0.
         13    1    3    3    0    0  0.38570437444E+03 -0.54457334222E+03 -0.85828263260E+03  0.10871876871E+04  0.00000000000E+00 0. -1.
        -13    1    3    3    0    0  0.80715252530E+02 -0.19660304743E+03 -0.24542906020E+03  0.32465848801E+03  0.00000000000E+00 0.  1.
          2    1    6    6  502    0 -0.43811031669E+03  0.38192629720E+03  0.16059886685E+03  0.60299282095E+03  0.00000000000E+00 0. -1.
          3    1    5    5  503    0  0.76867724349E+02  0.15429009728E+03  0.46124868963E+03  0.49240677783E+03  0.00000000000E+00 0. -1.
         -4    1    5    5    0  503  0.61183566023E+02  0.23378983352E+02  0.17125036662E+03  0.18334855789E+03  0.00000000000E+00 0.  1.
         -1    1    6    6    0  502 -0.16636060065E+03  0.18158101182E+03  0.11411038235E+03  0.27141977205E+03  0.00000000000E+00 0.  1.
<mgrwt>
<rscale>  0 0.29554888E+04</rscale>
<asrwt>0</asrwt>
<pdfrwt beam="1">  1        1 0.24296288E+00 0.29554888E+04</pdfrwt>
<pdfrwt beam="2">  1       -1 0.21273159E+00 0.29554888E+04</pdfrwt>
<totfact> 0.60689583E-01</totfact>
</mgrwt>
</event>
<event>
12    1  0.1980523E-007  0.2353251E+04  0.7818608E-02  0.8457216E-01
         -2   -1    0    0    0  501 -0.00000000000E+00  0.00000000000E+00  0.10049299053E+04  0.10049299053E+04  0.00000000000E+00 0. -1.
          2   -1    0    0  501    0  0.00000000000E+00 -0.00000000000E+00 -0.13776552710E+04  0.13776552710E+04  0.00000000000E+00 0.  1.
         23    2    1    2    0    0  0.74235061204E+03 -0.43811238169E+03  0.35359706017E+03  0.93604497372E+03  0.90124478868E+02 0.  0.
        254    2    1    2    0    0 -0.74235061204E+03  0.43811238169E+03 -0.72632242579E+03  0.14465402026E+04  0.90659108827E+03 0.  0.
        -24    2    4    4    0    0 -0.18749626827E+03  0.19243143456E+03  0.19392106800E+03  0.34088289833E+03  0.80069108522E+02 0.  0.
         24    2    4    4    0    0 -0.55485434377E+03  0.24568094713E+03 -0.92024349379E+03  0.11056573043E+04  0.86066927598E+02 0.  0.
         13    1    3    3    0    0  0.50020701366E+03 -0.32784831598E+03  0.27745509779E+03  0.65929728203E+03  0.00000000000E+00 0.  1.
        -13    1    3    3    0    0  0.24214359837E+03 -0.11026406570E+03  0.76141962383E+02  0.27674769169E+03  0.00000000000E+00 0. -1.
          2    1    6    6  502    0 -0.13135681539E+03  0.19572521400E+02 -0.20035153745E+03  0.24037145234E+03  0.00000000000E+00 0. -1.
          3    1    5    5  503    0 -0.61400674434E+02  0.59253665853E+02  0.18957167903E+02  0.87409461461E+02  0.00000000000E+00 0. -1.
         -4    1    5    5    0  503 -0.12609559383E+03  0.13317776871E+03  0.17496390009E+03  0.25347343687E+03  0.00000000000E+00 0.  1.
         -1    1    6    6    0  502 -0.42349752838E+03  0.22610842573E+03 -0.71989195634E+03  0.86528585191E+03  0.00000000000E+00 0.  1.
<mgrwt>
<rscale>  0 0.23532505E+04</rscale>
<asrwt>0</asrwt>
<pdfrwt beam="1">  1        2 0.21194696E+00 0.23532505E+04</pdfrwt>
<pdfrwt beam="2">  1       -2 0.15460460E+00 0.23532505E+04</pdfrwt>
<totfact> 0.37193521E+00</totfact>
</mgrwt>
</event>
<event>
12    1  0.1980523E-007  0.1986632E+04  0.7818608E-02  0.8612896E-01
         -2   -1    0    0    0  501 -0.00000000000E+00  0.00000000000E+00  0.74233164038E+03  0.74233164038E+03  0.00000000000E+00 0.  1.
          2   -1    0    0  501    0  0.00000000000E+00 -0.00000000000E+00 -0.13291588408E+04  0.13291588408E+04  0.00000000000E+00 0. -1.
         23    2    1    2    0    0  0.85637505575E+02  0.69604517518E+03  0.14110090609E+03  0.72123177807E+03  0.91940979650E+02 0.  0.
        254    2    1    2    0    0 -0.85637505575E+02 -0.69604517518E+03 -0.72792810649E+03  0.13502587031E+04  0.89526899244E+03 0.  0.
        -24    2    4    4    0    0  0.15128109734E+03  0.28936885488E+02  0.11778399367E+03  0.20848346780E+03  0.76609225467E+02 0.  0.
         24    2    4    4    0    0 -0.23691860292E+03 -0.72498206067E+03 -0.84571210016E+03  0.11417752353E+04  0.81806594312E+02 0.  0.
         11    1    3    3    0    0  0.44918423973E+02  0.49656636334E+03  0.13908426390E+03  0.51762945287E+03  0.00000000000E+00 0.  1.
        -11    1    3    3    0    0  0.40719081602E+02  0.19947881185E+03  0.20166421908E+01  0.20360232520E+03  0.00000000000E+00 0. -1.
          4    1    6    6  502    0 -0.59018645498E+02 -0.30994231621E+03 -0.34432604821E+03  0.46702020018E+03  0.00000000000E+00 0. -1.
          1    1    5    5  503    0  0.45588818081E+02  0.10126179018E+02  0.83705023692E+02  0.95850982399E+02  0.00000000000E+00 0. -1.
         -2    1    5    5    0  503  0.10569227926E+03  0.18810706471E+02  0.34078969982E+02  0.11263248540E+03  0.00000000000E+00 0.  1.
         -3    1    6    6    0  502 -0.17789995742E+03 -0.41503974446E+03 -0.50138605195E+03  0.67475503512E+03  0.00000000000E+00 0.  1.
<mgrwt>
<rscale>  0 0.19866320E+04</rscale>
<asrwt>0</asrwt>
<pdfrwt beam="1">  1        2 0.20448597E+00 0.19866320E+04</pdfrwt>
<pdfrwt beam="2">  1       -2 0.11420487E+00 0.19866320E+04</pdfrwt>
<totfact> 0.88690759E+00</totfact>
</mgrwt>
</event>
<event>
12    1  0.1980523E-007  0.2755346E+04  0.7818608E-02  0.8317267E-01
          1   -1    0    0  501    0  0.00000000000E+00  0.00000000000E+00  0.16300796350E+04  0.16300796350E+04  0.00000000000E+00 0. -1.
         -1   -1    0    0    0  501 -0.00000000000E+00 -0.00000000000E+00 -0.11643499695E+04  0.11643499695E+04  0.00000000000E+00 0.  1.
         23    2    1    2    0    0 -0.25895231172E+03 -0.11107449952E+04  0.66801748047E+03  0.13249666456E+04  0.92078844281E+02 0.  0.
        254    2    1    2    0    0  0.25895231172E+03  0.11107449952E+04 -0.20228781497E+03  0.14694629588E+04  0.90420699134E+03 0.  0.
        -24    2    4    4    0    0  0.42860827900E+03  0.84686418927E+03 -0.45738743949E+03  0.10573773817E+04  0.89216845949E+02 0.  0.
         24    2    4    4    0    0 -0.16965596728E+03  0.26388080593E+03  0.25509962452E+03  0.41208557714E+03  0.79514008123E+02 0.  0.
         13    1    3    3    0    0 -0.18680828429E+03 -0.63880257398E+03  0.41952363520E+03  0.78674401434E+03  0.00000000000E+00 0.  1.
        -13    1    3    3    0    0 -0.72144027438E+02 -0.47194242121E+03  0.24849384527E+03  0.53822263124E+03  0.00000000000E+00 0. -1.
          2    1    6    6  502    0 -0.35490248071E+02  0.18040720436E+02  0.12994694722E+02  0.41879438785E+02  0.00000000000E+00 0. -1.
          1    1    5    5  503    0  0.25333724580E+03  0.41114109177E+03 -0.21085320805E+03  0.52694955432E+03  0.00000000000E+00 0. -1.
         -2    1    5    5    0  503  0.17527103321E+03  0.43572309749E+03 -0.24653423145E+03  0.53042782737E+03  0.00000000000E+00 0.  1.
         -1    1    6    6    0  502 -0.13416571921E+03  0.24584008550E+03  0.24210492980E+03  0.37020613836E+03  0.00000000000E+00 0.  1.
<mgrwt>
<rscale>  0 0.27553462E+04</rscale>
<asrwt>0</asrwt>
<pdfrwt beam="1">  1        1 0.25078148E+00 0.27553462E+04</pdfrwt>
<pdfrwt beam="2">  1       -1 0.17913076E+00 0.27553462E+04</pdfrwt>
<totfact> 0.97634029E-01</totfact>
</mgrwt>
</event>
<event>
12    1  0.1980523E-007  0.2119101E+04  0.7818608E-02  0.8552876E-01
          1   -1    0    0  501    0  0.00000000000E+00  0.00000000000E+00  0.10598556998E+04  0.10598556998E+04  0.00000000000E+00 0. -1.
         -1   -1    0    0    0  501 -0.00000000000E+00 -0.00000000000E+00 -0.10592454186E+04  0.10592454186E+04  0.00000000000E+00 0.  1.
         23    2    1    2    0    0 -0.69992595624E+03  0.37633548472E+03  0.34237509116E+03  0.87029858838E+03  0.93135324208E+02 0.  0.
        254    2    1    2    0    0  0.69992595624E+03 -0.37633548472E+03 -0.34176481000E+03  0.12488025300E+04  0.90065522390E+03 0.  0.
        -24    2    4    4    0    0 -0.35191147202E+02 -0.37678210833E+03  0.83817207229E+02  0.39571533539E+03  0.79762951531E+02 0.  0.
         24    2    4    4    0    0  0.73511710344E+03  0.44662361426E+00 -0.42558201723E+03  0.85308719462E+03  0.78995904903E+02 0.  0.
         11    1    3    3    0    0 -0.56580623444E+03  0.26999949491E+03  0.24293372117E+03  0.67234902771E+03  0.00000000000E+00 0.  1.
        -11    1    3    3    0    0 -0.13411972181E+03  0.10633598981E+03  0.99441369994E+02  0.19794956068E+03  0.00000000000E+00 0. -1.
          2    1    6    6  502    0  0.45936578745E+03  0.28091238112E+01 -0.30938484456E+03  0.55384456294E+03  0.00000000000E+00 0. -1.
          3    1    5    5  503    0 -0.26528121488E+02 -0.34008656930E+03  0.49424971446E+02  0.34468165552E+03  0.00000000000E+00 0. -1.
         -4    1    5    5    0  503 -0.86630257142E+01 -0.36695539029E+02  0.34392235783E+02  0.51033679873E+02  0.00000000000E+00 0.  1.
         -1    1    6    6    0  502  0.27575131599E+03 -0.23625001970E+01 -0.11619717267E+03  0.29924263168E+03  0.00000000000E+00 0.  1.
<mgrwt>
<rscale>  0 0.21191010E+04</rscale>
<asrwt>0</asrwt>
<pdfrwt beam="1">  1        1 0.16305472E+00 0.21191010E+04</pdfrwt>
<pdfrwt beam="2">  1       -1 0.16296083E+00 0.21191010E+04</pdfrwt>
<totfact> 0.34664938E+00</totfact>
</mgrwt>
</event>
<event>
12    1  0.1980523E-007  0.2924821E+04  0.7818608E-02  0.8265531E-01
          1   -1    0    0  501    0  0.00000000000E+00  0.00000000000E+00  0.20393396550E+04  0.20393396550E+04  0.00000000000E+00 0. -1.
         -1   -1    0    0    0  501 -0.00000000000E+00 -0.00000000000E+00 -0.10486944868E+04  0.10486944868E+04  0.00000000000E+00 0.  1.
         23    2    1    2    0    0 -0.41020279471E+03 -0.10082882568E+04  0.12415276302E+04  0.16535432048E+04  0.88897312075E+02 0.  0.
        254    2    1    2    0    0  0.41020279471E+03  0.10082882568E+04 -0.25088246199E+03  0.14344909369E+04  0.89995038573E+03 0.  0.
        -24    2    4    4    0    0 -0.22275185919E+03  0.62674802197E+03 -0.11832608591E+03  0.67969952137E+03  0.74558050704E+02 0.  0.
         24    2    4    4    0    0  0.63295465389E+03  0.38154023482E+03 -0.13255637609E+03  0.75479141554E+03  0.77034690005E+02 0.  0.
         13    1    3    3    0    0 -0.16186862823E+03 -0.37406570522E+03  0.40207410697E+03  0.57252964301E+03  0.00000000000E+00 0. -1.
        -13    1    3    3    0    0 -0.24833416648E+03 -0.63422255157E+03  0.83945352326E+03  0.10810135618E+04  0.00000000000E+00 0.  1.
          2    1    6    6  502    0  0.57331464804E+03  0.35456265881E+03 -0.99299517886E+02  0.68136976667E+03  0.00000000000E+00 0. -1.
          1    1    5    5  503    0 -0.19916838555E+03  0.48067363433E+03 -0.76195849440E+02  0.52585263716E+03  0.00000000000E+00 0. -1.
         -2    1    5    5    0  503 -0.23583473634E+02  0.14607438764E+03 -0.42130236465E+02  0.15384688420E+03  0.00000000000E+00 0.  1.
         -1    1    6    6    0  502  0.59640005854E+02  0.26977576003E+02 -0.33256858203E+02  0.73421648870E+02  0.00000000000E+00 0.  1.
<mgrwt>
<rscale>  0 0.29248209E+04</rscale>
<asrwt>0</asrwt>
<pdfrwt beam="1">  1        1 0.31374456E+00 0.29248209E+04</pdfrwt>
<pdfrwt beam="2">  1       -1 0.16133761E+00 0.29248209E+04</pdfrwt>
<totfact> 0.68523013E-01</totfact>
</mgrwt>
</event>
<event>
12    1  0.1980523E-007  0.3599063E+04  0.7818608E-02  0.8090706E-01
         -2   -1    0    0    0  501 -0.00000000000E+00  0.00000000000E+00  0.11030153952E+04  0.11030153952E+04  0.00000000000E+00 0. -1.
          2   -1    0    0  501    0  0.00000000000E+00 -0.00000000000E+00 -0.29358733286E+04  0.29358733286E+04  0.00000000000E+00 0.  1.
         23    2    1    2    0    0  0.15797159652E+04  0.58251909144E+03 -0.93858051375E+03  0.19298614490E+04  0.92740546879E+02 0.  0.
        254    2    1    2    0    0 -0.15797159652E+04 -0.58251909144E+03 -0.89427741961E+03  0.21090272748E+04  0.90190516142E+03 0.  0.
        -24    2    4    4    0    0 -0.91343331640E+03  0.12290864455E+03 -0.55045507882E+03  0.10765211655E+04  0.80187702336E+02 0.  0.
         24    2    4    4    0    0 -0.66628264879E+03 -0.70542773599E+03 -0.34382234080E+03  0.10325061093E+04  0.79336025591E+02 0.  0.
         11    1    3    3    0    0  0.83014515245E+02  0.46816216268E+02 -0.36437979302E+02  0.10203378942E+03  0.00000000000E+00 0. -1.
        -11    1    3    3    0    0  0.14967014499E+04  0.53570287517E+03 -0.90214253445E+03  0.18278276596E+04  0.00000000000E+00 0.  1.
          2    1    6    6  502    0 -0.36595390021E+02 -0.43095990966E+02 -0.40687883003E+02  0.69656233256E+02  0.00000000000E+00 0. -1.
          3    1    5    5  503    0 -0.49050004049E+03  0.87553430409E+02 -0.25783184183E+03  0.56101083016E+03  0.00000000000E+00 0. -1.
         -4    1    5    5    0  503 -0.42293327591E+03  0.35355214140E+02 -0.29262323698E+03  0.51551033536E+03  0.00000000000E+00 0.  1.
         -1    1    6    6    0  502 -0.62968725877E+03 -0.66233174502E+03 -0.30313445779E+03  0.96284987606E+03  0.00000000000E+00 0.  1.
<mgrwt>
<rscale>  0 0.35990629E+04</rscale>
<asrwt>0</asrwt>
<pdfrwt beam="1">  1        2 0.45167281E+00 0.35990629E+04</pdfrwt>
<pdfrwt beam="2">  1       -2 0.16969468E+00 0.35990629E+04</pdfrwt>
<totfact> 0.33312255E-01</totfact>
</mgrwt>
</event>
<event>
12    1  0.1980523E-007  0.1215974E+04  0.7818608E-02  0.9098988E-01
         -2   -1    0    0    0  501 -0.00000000000E+00  0.00000000000E+00  0.29310639327E+03  0.29310639327E+03  0.00000000000E+00 0.  1.
          2   -1    0    0  501    0  0.00000000000E+00 -0.00000000000E+00 -0.12611395847E+04  0.12611395847E+04  0.00000000000E+00 0. -1.
         23    2    1    2    0    0 -0.25397801251E+02  0.88150949710E+02  0.91878295021E+02  0.16233764458E+03  0.97448712202E+02 0.  0.
        254    2    1    2    0    0  0.25397801251E+02 -0.88150949710E+02 -0.10599114864E+04  0.13919083333E+04  0.89754153728E+03 0.  0.
        -24    2    4    4    0    0 -0.17148442663E+03 -0.39899868970E+03 -0.85784590418E+03  0.96482531477E+03  0.79883851597E+02 0.  0.
         24    2    4    4    0    0  0.19688222788E+03  0.31084773999E+03 -0.20206558223E+03  0.42708301856E+03  0.78616004153E+02 0.  0.
         11    1    3    3    0    0 -0.13537838408E+02  0.55681649060E+01  0.76016567638E+02  0.77413151885E+02  0.00000000000E+00 0.  1.
        -11    1    3    3    0    0 -0.11859962843E+02  0.82582784804E+02  0.15861727383E+02  0.84924492699E+02  0.00000000000E+00 0. -1.
          2    1    6    6  502    0  0.74412897073E+02  0.62627318307E+02 -0.73411377720E+02  0.12185520353E+03  0.00000000000E+00 0. -1.
          3    1    5    5  503    0 -0.36948071241E+02 -0.48172648219E+02 -0.17783484558E+03  0.18791220372E+03  0.00000000000E+00 0. -1.
         -4    1    5    5    0  503 -0.13453635539E+03 -0.35082604148E+03 -0.68001105859E+03  0.77691311105E+03  0.00000000000E+00 0.  1.
         -1    1    6    6    0  502  0.12246933081E+03  0.24822042169E+03 -0.12865420451E+03  0.30522781503E+03  0.00000000000E+00 0.  1.
<mgrwt>
<rscale>  0 0.12159738E+04</rscale>
<asrwt>0</asrwt>
<pdfrwt beam="1">  1        2 0.19402147E+00 0.12159738E+04</pdfrwt>
<pdfrwt beam="2">  1       -2 0.45093292E-01 0.12159738E+04</pdfrwt>
<totfact> 0.80055976E+01</totfact>
</mgrwt>
</event>
<event>
12    1  0.1980523E-007  0.1476245E+04  0.7818608E-02  0.8900405E-01
          1   -1    0    0  501    0  0.00000000000E+00  0.00000000000E+00  0.28666697591E+04  0.28666697591E+04  0.00000000000E+00 0. -1.
         -1   -1    0    0    0  501 -0.00000000000E+00 -0.00000000000E+00 -0.19005488235E+03  0.19005488235E+03  0.00000000000E+00 0.  1.
         23    2    1    2    0    0 -0.27072869229E+03 -0.81390624246E+02  0.10107073754E+03  0.31383211263E+03  0.91415766626E+02 0.  0.
        254    2    1    2    0    0  0.27072869229E+03  0.81390624246E+02  0.25755441392E+04  0.27428925288E+04  0.90006297175E+03 0.  0.
        -24    2    4    4    0    0  0.27489520510E+03  0.22243416305E+02  0.16593322375E+03  0.33125766344E+03  0.78330463381E+02 0.  0.
         24    2    4    4    0    0 -0.41665128083E+01  0.59147207941E+02  0.24096109154E+04  0.24116348653E+04  0.79007645013E+02 0.  0.
         13    1    3    3    0    0 -0.23984232089E+03 -0.62606116122E+02  0.52655369592E+02  0.25340965375E+03  0.00000000000E+00 0.  1.
        -13    1    3    3    0    0 -0.30886371395E+02 -0.18784508124E+02  0.48415367949E+02  0.60422458880E+02  0.00000000000E+00 0. -1.
          2    1    6    6  502    0 -0.74062511912E+01 -0.93573521796E+01  0.69349485464E+02  0.70368769569E+02  0.00000000000E+00 0. -1.
          3    1    5    5  503    0  0.19627658665E+03  0.20521304983E+01  0.15341452347E+03  0.24912793042E+03  0.00000000000E+00 0. -1.
         -4    1    5    5    0  503  0.78618618448E+02  0.20191285807E+02  0.12518700276E+02  0.82129733019E+02  0.00000000000E+00 0.  1.
         -1    1    6    6    0  502  0.32397383829E+01  0.68504560120E+02  0.23402614300E+04  0.23412660958E+04  0.00000000000E+00 0.  1.
<mgrwt>
<rscale>  0 0.14762447E+04</rscale>
<asrwt>0</asrwt>
<pdfrwt beam="1">  1        1 0.44102609E+00 0.14762447E+04</pdfrwt>
<pdfrwt beam="2">  1       -1 0.29239215E-01 0.14762447E+04</pdfrwt>
<totfact> 0.77663689E+00</totfact>
</mgrwt>
</event>
<event>
12    1  0.1980523E-007  0.3896226E+04  0.7818608E-02  0.8025815E-01
          1   -1    0    0  501    0  0.00000000000E+00  0.00000000000E+00  0.18237549524E+04  0.18237549524E+04  0.00000000000E+00 0. -1.
         -1   -1    0    0    0  501 -0.00000000000E+00 -0.00000000000E+00 -0.20809503593E+04  0.20809503593E+04  0.00000000000E+00 0.  1.
         23    2    1    2    0    0  0.12180052937E+04  0.13783844477E+04 -0.23933498451E+03  0.18571938503E+04  0.91690684435E+02 0.  0.
        254    2    1    2    0    0 -0.12180052937E+04 -0.13783844477E+04 -0.17860422399E+02  0.20475114614E+04  0.89916828718E+03 0.  0.
        -24    2    4    4    0    0 -0.24069733800E+03  0.73393002965E+02 -0.12463288848E+03  0.29238423200E+03  0.81445938031E+02 0.  0.
         24    2    4    4    0    0 -0.97730795569E+03 -0.14517774507E+04  0.10677246608E+03  0.17551272294E+04  0.79263013376E+02 0.  0.
         11    1    3    3    0    0  0.65895471954E+03  0.76245985529E+03 -0.17572806610E+03  0.10229597776E+04  0.00000000000E+00 0.  1.
        -11    1    3    3    0    0  0.55905057416E+03  0.61592459244E+03 -0.63606918412E+02  0.83423407273E+03  0.00000000000E+00 0. -1.
          2    1    6    6  502    0 -0.63965211634E+03 -0.88145796892E+03  0.68396120430E+02  0.10912382921E+04  0.00000000000E+00 0. -1.
          1    1    5    5  503    0 -0.16572898797E+02  0.32758140162E+02 -0.17453798565E+02  0.40649622455E+02  0.00000000000E+00 0. -1.
         -2    1    5    5    0  503 -0.22412443921E+03  0.40634862803E+02 -0.10717908992E+03  0.25173460954E+03  0.00000000000E+00 0.  1.
         -1    1    6    6    0  502 -0.33765583935E+03 -0.57031948177E+03  0.38376345652E+02  0.66388893728E+03  0.00000000000E+00 0.  1.
<mgrwt>
<rscale>  0 0.38962256E+04</rscale>
<asrwt>0</asrwt>
<pdfrwt beam="1">  1        1 0.28057769E+00 0.38962256E+04</pdfrwt>
<pdfrwt beam="2">  1       -1 0.32014621E+00 0.38962256E+04</pdfrwt>
<totfact> 0.75654112E-02</totfact>
</mgrwt>
</event>
<event>
12    1  0.1980523E-007  0.1640384E+04  0.7818608E-02  0.8796116E-01
         -4   -1    0    0    0  501 -0.00000000000E+00  0.00000000000E+00  0.53876991637E+03  0.53876991637E+03  0.00000000000E+00 0.  1.
          4   -1    0    0  501    0  0.00000000000E+00 -0.00000000000E+00 -0.12486119755E+04  0.12486119755E+04  0.00000000000E+00 0. -1.
         23    2    1    2    0    0  0.35871933040E+03 -0.39766812951E+03 -0.51402270482E+03  0.74824021176E+03  0.93939204721E+02 0.  0.
        254    2    1    2    0    0 -0.35871933040E+03  0.39766812951E+03 -0.19581935435E+03  0.10391416802E+04  0.86870634432E+03 0.  0.
        -24    2    4    4    0    0  0.25570011554E+03 -0.25917519643E+02 -0.68892432599E+02  0.27770885160E+03  0.79509572239E+02 0.  0.
         24    2    4    4    0    0 -0.61441944594E+03  0.42358564915E+03 -0.12692692175E+03  0.76143282855E+03  0.82057609086E+02 0.  0.
         11    1    3    3    0    0  0.18104773392E+03 -0.13191689985E+03 -0.20686436187E+03  0.30491509414E+03  0.00000000000E+00 0. -1.
        -11    1    3    3    0    0  0.17767159648E+03 -0.26575122966E+03 -0.30715834295E+03  0.44332511761E+03  0.00000000000E+00 0.  1.
          4    1    6    6  502    0 -0.70170286567E+02  0.21868510172E+02 -0.18829900370E+01  0.73523101849E+02  0.00000000000E+00 0. -1.
          3    1    5    5  503    0  0.10972858178E+03 -0.70658771324E+01 -0.70318528649E+02  0.13051813571E+03  0.00000000000E+00 0. -1.
         -4    1    5    5    0  503  0.14597153376E+03 -0.18851642511E+02  0.14260960501E+01  0.14719071589E+03  0.00000000000E+00 0.  1.
         -3    1    6    6    0  502 -0.54424915937E+03  0.40171713898E+03 -0.12504393171E+03  0.68790972670E+03  0.00000000000E+00 0.  1.
<mgrwt>
<rscale>  0 0.16403836E+04</rscale>
<asrwt>0</asrwt>
<pdfrwt beam="1">  1        4 0.19209415E+00 0.16403836E+04</pdfrwt>
<pdfrwt beam="2">  1       -4 0.82887681E-01 0.16403836E+04</pdfrwt>
<totfact> 0.36366899E-01</totfact>
</mgrwt>
</event>
<event>
12    1  0.1980523E-007  0.2289803E+04  0.7818608E-02  0.8481953E-01
          2   -1    0    0  501    0  0.00000000000E+00  0.00000000000E+00  0.23632933099E+04  0.23632933099E+04  0.00000000000E+00 0. -1.
         -2   -1    0    0    0  501 -0.00000000000E+00 -0.00000000000E+00 -0.55464926676E+03  0.55464926676E+03  0.00000000000E+00 0.  1.
         23    2    1    2    0    0  0.14923063903E+03 -0.51588264430E+03  0.17918331949E+04  0.18728857636E+04  0.92898863285E+02 0.  0.
        254    2    1    2    0    0 -0.14923063903E+03  0.51588264430E+03  0.16810848153E+02  0.10450568130E+04  0.89635732351E+03 0.  0.
        -24    2    4    4    0    0 -0.38193305159E+03  0.65207748151E+03  0.55534016024E+02  0.76191661250E+03  0.79718251841E+02 0.  0.
         24    2    4    4    0    0  0.23270241256E+03 -0.13619483721E+03 -0.38723167871E+02  0.28314020048E+03  0.77262169939E+02 0.  0.
         11    1    3    3    0    0  0.21643434105E+02 -0.12154025831E+03  0.55102697098E+03  0.56468681177E+03  0.00000000000E+00 0. -1.
        -11    1    3    3    0    0  0.12758720493E+03 -0.39434238599E+03  0.12408062240E+04  0.13081989519E+04  0.00000000000E+00 0.  1.
          4    1    6    6  502    0  0.70722597131E+02 -0.34023614658E+01 -0.49183414513E+01  0.70975008919E+02  0.00000000000E+00 0. -1.
          1    1    5    5  503    0 -0.15194705907E+03  0.21614232274E+03 -0.11720216288E+02  0.26446696563E+03  0.00000000000E+00 0. -1.
         -2    1    5    5    0  503 -0.22998599253E+03  0.43593515876E+03  0.67254232312E+02  0.49744964687E+03  0.00000000000E+00 0.  1.
         -3    1    6    6    0  502  0.16197981543E+03 -0.13279247574E+03 -0.33804826420E+02  0.21216519156E+03  0.00000000000E+00 0.  1.
<mgrwt>
<rscale>  0 0.22898025E+04</rscale>
<asrwt>0</asrwt>
<pdfrwt beam="1">  1        2 0.36358358E+00 0.22898025E+04</pdfrwt>
<pdfrwt beam="2">  1       -2 0.85330658E-01 0.22898025E+04</pdfrwt>
<totfact> 0.45211411E+00</totfact>
</mgrwt>
</event>
<event>
12    1  0.1980523E-007  0.2570253E+04  0.7818608E-02  0.8378376E-01
         -1   -1    0    0    0  501 -0.00000000000E+00  0.00000000000E+00  0.77663824842E+03  0.77663824842E+03  0.00000000000E+00 0.  1.
          1   -1    0    0  501    0  0.00000000000E+00 -0.00000000000E+00 -0.21265371594E+04  0.21265371594E+04  0.00000000000E+00 0. -1.
         23    2    1    2    0    0  0.10489970113E+04 -0.17134435980E+03 -0.17624519796E+03  0.10812492679E+04  0.91016427983E+02 0.  0.
        254    2    1    2    0    0 -0.10489970113E+04  0.17134435980E+03 -0.11736537130E+04  0.18219261399E+04  0.90122039574E+03 0.  0.
        -24    2    4    4    0    0 -0.11887353503E+04  0.16401217337E+03 -0.11403101983E+04  0.16572711139E+04  0.79047268843E+02 0.  0.
         24    2    4    4    0    0  0.13973833892E+03  0.73321864376E+01 -0.33343514661E+02  0.16465502594E+03  0.80118183165E+02 0.  0.
         11    1    3    3    0    0  0.25990159386E+03 -0.23705813007E+02 -0.84761446846E+01  0.26111807500E+03  0.00000000000E+00 0.  1.
        -11    1    3    3    0    0  0.78909541748E+03 -0.14763854680E+03 -0.16776905328E+03  0.82013119293E+03  0.00000000000E+00 0. -1.
          4    1    6    6  502    0  0.85784350062E+02 -0.14128951864E+02 -0.54779731042E+02  0.10275894574E+03  0.00000000000E+00 0. -1.
          3    1    5    5  503    0 -0.11894424495E+04  0.16286015697E+03 -0.11362255781E+04  0.16529686433E+04  0.00000000000E+00 0. -1.
         -4    1    5    5    0  503  0.70709925398E+00  0.11520164002E+01 -0.40846202131E+01  0.43024706189E+01  0.00000000000E+00 0.  1.
         -3    1    6    6    0  502  0.53953988859E+02  0.21461138301E+02  0.21436216381E+02  0.61896080197E+02  0.00000000000E+00 0.  1.
<mgrwt>
<rscale>  0 0.25702530E+04</rscale>
<asrwt>0</asrwt>
<pdfrwt beam="1">  1        1 0.32715956E+00 0.25702530E+04</pdfrwt>
<pdfrwt beam="2">  1       -1 0.11948281E+00 0.25702530E+04</pdfrwt>
<totfact> 0.13503289E+00</totfact>
</mgrwt>
</event>
<event>
12    1  0.1980523E-007  0.2341242E+04  0.7818608E-02  0.8461835E-01
         -1   -1    0    0    0  501 -0.00000000000E+00  0.00000000000E+00  0.11075039271E+04  0.11075039271E+04  0.00000000000E+00 0.  1.
          1   -1    0    0  501    0  0.00000000000E+00 -0.00000000000E+00 -0.12373349399E+04  0.12373349399E+04  0.00000000000E+00 0. -1.
         23    2    1    2    0    0 -0.51520149628E+03  0.82703177003E+03  0.14452561910E+03  0.98948876350E+03  0.93734882068E+02 0.  0.
        254    2    1    2    0    0  0.51520149628E+03 -0.82703177003E+03 -0.27435663191E+03  0.13553501035E+04  0.90127033197E+03 0.  0.
        -24    2    4    4    0    0  0.47455877578E+03 -0.89866634662E+03  0.40294794949E+02  0.10204615466E+04  0.83131602759E+02 0.  0.
         24    2    4    4    0    0  0.40642720499E+02  0.71634576591E+02 -0.31465142686E+03  0.33488855694E+03  0.79758898248E+02 0.  0.
         11    1    3    3    0    0 -0.10123412205E+03  0.23740243570E+03  0.26437223702E+02  0.25943629418E+03  0.00000000000E+00 0. -1.
        -11    1    3    3    0    0 -0.41396737424E+03  0.58962933433E+03  0.11808839540E+03  0.73005246932E+03  0.00000000000E+00 0.  1.
          4    1    6    6  502    0  0.84942785273E+01  0.76713561610E+02 -0.26064860288E+03  0.27183601212E+03  0.00000000000E+00 0. -1.
          1    1    5    5  503    0  0.34993690005E+03 -0.59421743702E+03  0.49392410388E+02  0.69136806889E+03  0.00000000000E+00 0. -1.
         -4    1    5    5    0  503  0.12462187573E+03 -0.30444890960E+03 -0.90976154388E+01  0.32909347771E+03  0.00000000000E+00 0.  1.
         -1    1    6    6    0  502  0.32148441972E+02 -0.50789850191E+01 -0.54002823984E+02  0.63052544820E+02  0.00000000000E+00 0.  1.
<mgrwt>
<rscale>  0 0.23412418E+04</rscale>
<asrwt>0</asrwt>
<pdfrwt beam="1">  1        1 0.19035922E+00 0.23412418E+04</pdfrwt>
<pdfrwt beam="2">  1       -1 0.17038522E+00 0.23412418E+04</pdfrwt>
<totfact> 0.22100403E+00</totfact>
</mgrwt>
</event>
<event>
12    1  0.1980523E-007  0.1643294E+04  0.7818608E-02  0.8794384E-01
          2   -1    0    0  501    0  0.00000000000E+00  0.00000000000E+00  0.99191404820E+03  0.99191404820E+03  0.00000000000E+00 0. -1.
         -2   -1    0    0    0  501 -0.00000000000E+00 -0.00000000000E+00 -0.68060722119E+03  0.68060722119E+03  0.00000000000E+00 0.  1.
         23    2    1    2    0    0  0.49009155592E+03  0.28982635044E+03  0.12831289393E+03  0.59121210162E+03  0.94225812591E+02 0.  0.
        254    2    1    2    0    0 -0.49009155592E+03 -0.28982635044E+03  0.18299393308E+03  0.10813091678E+04  0.90086274768E+03 0.  0.
        -24    2    4    4    0    0 -0.43551276945E+03  0.15650499788E+03  0.36006062568E+03  0.59188532121E+03  0.80742755609E+02 0.  0.
         24    2    4    4    0    0 -0.54578786471E+02 -0.44633134832E+03 -0.17706669259E+03  0.48942384656E+03  0.77411701540E+02 0.  0.
         13    1    3    3    0    0  0.45435784970E+03  0.24586243095E+03  0.13554198044E+03  0.53409832334E+03  0.00000000000E+00 0. -1.
        -13    1    3    3    0    0  0.35733706224E+02  0.43963919491E+02 -0.72290865113E+01  0.57113778279E+02  0.00000000000E+00 0.  1.
          2    1    6    6  502    0 -0.74286106512E+02 -0.36866417194E+03 -0.14917259418E+03  0.40457899123E+03  0.00000000000E+00 0. -1.
          1    1    5    5  503    0 -0.31666288575E+03  0.14596091174E+03  0.29000342605E+03  0.45352172835E+03  0.00000000000E+00 0. -1.
         -2    1    5    5    0  503 -0.11884988370E+03  0.10544086141E+02  0.70057199621E+02  0.13836359285E+03  0.00000000000E+00 0.  1.
         -1    1    6    6    0  502  0.19707320041E+02 -0.77667176379E+02 -0.27894098410E+02  0.84844855330E+02  0.00000000000E+00 0.  1.
<mgrwt>
<rscale>  0 0.16432941E+04</rscale>
<asrwt>0</asrwt>
<pdfrwt beam="1">  1        2 0.15260216E+00 0.16432941E+04</pdfrwt>
<pdfrwt beam="2">  1       -2 0.10470880E+00 0.16432941E+04</pdfrwt>
<totfact> 0.18032906E+01</totfact>
</mgrwt>
</event>
<event>
12    1  0.1980523E-007  0.2281868E+04  0.7818608E-02  0.8485105E-01
         -1   -1    0    0    0  501 -0.00000000000E+00  0.00000000000E+00  0.18029465604E+04  0.18029465604E+04  0.00000000000E+00 0.  1.
          1   -1    0    0  501    0  0.00000000000E+00 -0.00000000000E+00 -0.72200141360E+03  0.72200141360E+03  0.00000000000E+00 0. -1.
         23    2    1    2    0    0 -0.76617056091E+03  0.17940471673E+03  0.10675417617E+04  0.13293563222E+04  0.91320521816E+02 0.  0.
        254    2    1    2    0    0  0.76617056091E+03 -0.17940471673E+03  0.13403385119E+02  0.11955916518E+04  0.90003131405E+03 0.  0.
        -24    2    4    4    0    0  0.52868173684E+02 -0.26803658896E+03 -0.29470996948E+03  0.40948484192E+03  0.78646124160E+02 0.  0.
         24    2    4    4    0    0  0.71330238723E+03  0.88631872236E+02  0.30811335460E+03  0.78610680985E+03  0.79838416917E+02 0.  0.
         11    1    3    3    0    0 -0.25655275934E+03  0.10474030574E+03  0.37061746990E+03  0.46276036884E+03  0.00000000000E+00 0. -1.
        -11    1    3    3    0    0 -0.50961780157E+03  0.74664410988E+02  0.69692429181E+03  0.86659595340E+03  0.00000000000E+00 0.  1.
          4    1    6    6  502    0  0.23502690941E+03  0.63990482844E+02  0.12050971955E+03  0.27176280567E+03  0.00000000000E+00 0. -1.
          3    1    5    5  503    0  0.42922721198E+02 -0.11999844082E+03 -0.87334138631E+02  0.15449672348E+03  0.00000000000E+00 0. -1.
         -4    1    5    5    0  503  0.99454524860E+01 -0.14803814814E+03 -0.20737583085E+03  0.25498811845E+03  0.00000000000E+00 0.  1.
         -3    1    6    6    0  502  0.47827547782E+03  0.24641389391E+02  0.18760363505E+03  0.51434400418E+03  0.00000000000E+00 0.  1.
<mgrwt>
<rscale>  0 0.22818676E+04</rscale>
<asrwt>0</asrwt>
<pdfrwt beam="1">  1        1 0.11107714E+00 0.22818676E+04</pdfrwt>
<pdfrwt beam="2">  1       -1 0.27737639E+00 0.22818676E+04</pdfrwt>
<totfact> 0.10887515E+00</totfact>
</mgrwt>
</event>
<event>
12    1  0.1980523E-007  0.2553980E+04  0.7818608E-02  0.8384003E-01
          2   -1    0    0  501    0  0.00000000000E+00  0.00000000000E+00  0.33475532610E+04  0.33475532610E+04  0.00000000000E+00 0. -1.
         -2   -1    0    0    0  501 -0.00000000000E+00 -0.00000000000E+00 -0.48713296957E+03  0.48713296957E+03  0.00000000000E+00 0.  1.
         23    2    1    2    0    0 -0.24848684457E+03 -0.72979985953E+03  0.42299297011E+02  0.77713935576E+03  0.88333463955E+02 0.  0.
        254    2    1    2    0    0  0.24848684457E+03  0.72979985953E+03  0.28181209944E+04  0.30575468748E+04  0.90135087815E+03 0.  0.
        -24    2    4    4    0    0  0.15031124189E+03 -0.26610095014E+02  0.41554097301E+02  0.17702015486E+03  0.79421820869E+02 0.  0.
         24    2    4    4    0    0  0.98175602683E+02  0.75640995454E+03  0.27765668971E+04  0.28805267199E+04  0.79473151533E+02 0.  0.
         11    1    3    3    0    0 -0.10257543516E+03 -0.36741517906E+03  0.59633161014E+02  0.38609810617E+03  0.00000000000E+00 0. -1.
        -11    1    3    3    0    0 -0.14591140942E+03 -0.36238468047E+03 -0.17333864003E+02  0.39104124959E+03  0.00000000000E+00 0.  1.
          4    1    6    6  502    0  0.44630256263E+02  0.17389210298E+03  0.75286663685E+03  0.77397577232E+03  0.00000000000E+00 0. -1.
          1    1    5    5  503    0  0.11964450031E+03  0.13856838918E+02  0.21088276524E+02  0.12227646481E+03  0.00000000000E+00 0. -1.
         -2    1    5    5    0  503  0.30666741585E+02 -0.40466933931E+02  0.20465820778E+02  0.54743690059E+02  0.00000000000E+00 0.  1.
         -3    1    6    6    0  502  0.53545346419E+02  0.58251785156E+03  0.20237002603E+04  0.21065509476E+04  0.00000000000E+00 0.  1.
<mgrwt>
<rscale>  0 0.25539801E+04</rscale>
<asrwt>0</asrwt>
<pdfrwt beam="1">  1        2 0.51500818E+00 0.25539801E+04</pdfrwt>
<pdfrwt beam="2">  1       -2 0.74943536E-01 0.25539801E+04</pdfrwt>
<totfact> 0.14706728E+00</totfact>
</mgrwt>
</event>
<event>
12    1  0.1980523E-007  0.1984999E+04  0.7818608E-02  0.8613666E-01
          1   -1    0    0  501    0  0.00000000000E+00  0.00000000000E+00  0.20236279680E+04  0.20236279680E+04  0.00000000000E+00 0. -1.
         -1   -1    0    0    0  501 -0.00000000000E+00 -0.00000000000E+00 -0.48677707797E+03  0.48677707797E+03  0.00000000000E+00 0.  1.
         23    2    1    2    0    0 -0.46637009395E+03  0.40321694741E+03  0.12300928399E+04  0.13790940154E+04  0.93203740851E+02 0.  0.
        254    2    1    2    0    0  0.46637009395E+03 -0.40321694741E+03  0.30675805010E+03  0.11313110306E+04  0.89759633206E+03 0.  0.
        -24    2    4    4    0    0 -0.13382843694E+03 -0.11015232607E+03 -0.20948853315E+03  0.28354234908E+03  0.80419106728E+02 0.  0.
         24    2    4    4    0    0  0.60019853090E+03 -0.29306462134E+03  0.51624658325E+03  0.84776868147E+03  0.77949046086E+02 0.  0.
         11    1    3    3    0    0 -0.22203807423E+03  0.21152272752E+03  0.51350323364E+03  0.59810395553E+03  0.00000000000E+00 0.  1.
        -11    1    3    3    0    0 -0.24433201973E+03  0.19169421990E+03  0.71658960629E+03  0.78099005989E+03  0.00000000000E+00 0. -1.
          4    1    6    6  502    0  0.58554929348E+03 -0.28307839446E+03  0.51570377215E+03  0.83003116394E+03  0.00000000000E+00 0. -1.
          3    1    5    5  503    0 -0.13405684125E+03 -0.93185377809E+02 -0.15009693063E+03  0.22177429948E+03  0.00000000000E+00 0. -1.
         -4    1    5    5    0  503  0.22840430950E+00 -0.16966948263E+02 -0.59391602520E+02  0.61768049603E+02  0.00000000000E+00 0.  1.
         -3    1    6    6    0  502  0.14649237415E+02 -0.99862268793E+01  0.54281110708E+00  0.17737517527E+02  0.00000000000E+00 0.  1.
<mgrwt>
<rscale>  0 0.19849995E+04</rscale>
<asrwt>0</asrwt>
<pdfrwt beam="1">  1        1 0.31132738E+00 0.19849995E+04</pdfrwt>
<pdfrwt beam="2">  1       -1 0.74888782E-01 0.19849995E+04</pdfrwt>
<totfact> 0.47839871E+00</totfact>
</mgrwt>
</event>
<event>
12    1  0.1980523E-007  0.1329636E+04  0.7818608E-02  0.9006388E-01
          2   -1    0    0  501    0  0.00000000000E+00  0.00000000000E+00  0.16652363548E+04  0.16652363548E+04  0.00000000000E+00 0. -1.
         -2   -1    0    0    0  501 -0.00000000000E+00 -0.00000000000E+00 -0.26541760337E+03  0.26541760337E+03  0.00000000000E+00 0.  1.
         23    2    1    2    0    0  0.99429760778E+02 -0.23863797143E+03  0.40020482854E+02  0.27699926378E+03  0.91063682944E+02 0.  0.
        254    2    1    2    0    0 -0.99429760778E+02  0.23863797143E+03  0.13597982685E+04  0.16536546943E+04  0.90481388045E+03 0.  0.
        -24    2    4    4    0    0  0.39288911209E+03  0.16930197715E+03  0.57097109838E+03  0.71787770758E+03  0.79469453160E+02 0.  0.
         24    2    4    4    0    0 -0.49231887287E+03  0.69335994283E+02  0.78882717015E+03  0.93577698676E+03  0.79024754952E+02 0.  0.
         13    1    3    3    0    0  0.81176891425E+02 -0.80760270545E+02  0.26227566797E+02  0.11747252555E+03  0.00000000000E+00 0. -1.
        -13    1    3    3    0    0  0.18252869354E+02 -0.15787770089E+03  0.13792916058E+02  0.15952673823E+03  0.00000000000E+00 0.  1.
          4    1    6    6  502    0 -0.21342797789E+03  0.64202023971E+02  0.38773152618E+03  0.44722381200E+03  0.00000000000E+00 0. -1.
          3    1    5    5  503    0  0.12419267517E+03  0.35281525481E+02  0.12115818639E+03  0.17705341774E+03  0.00000000000E+00 0. -1.
         -4    1    5    5    0  503  0.26869643692E+03  0.13402045167E+03  0.44981291199E+03  0.54082428983E+03  0.00000000000E+00 0.  1.
         -3    1    6    6    0  502 -0.27889089498E+03  0.51339703121E+01  0.40109564397E+03  0.48855317476E+03  0.00000000000E+00 0.  1.
<mgrwt>
<rscale>  0 0.13296361E+04</rscale>
<asrwt>0</asrwt>
<pdfrwt beam="1">  1        2 0.25619020E+00 0.13296361E+04</pdfrwt>
<pdfrwt beam="2">  1       -2 0.40833479E-01 0.13296361E+04</pdfrwt>
<totfact> 0.56955590E+01</totfact>
</mgrwt>
</event>
<event>
12    1  0.1980523E-007  0.1469648E+04  0.7818608E-02  0.8904891E-01
          2   -1    0    0  501    0  0.00000000000E+00  0.00000000000E+00  0.13809162205E+04  0.13809162205E+04  0.00000000000E+00 0. -1.
         -2   -1    0    0    0  501 -0.00000000000E+00 -0.00000000000E+00 -0.39102055118E+03  0.39102055118E+03  0.00000000000E+00 0.  1.
         23    2    1    2    0    0  0.20689350646E+03 -0.36331054343E+03  0.99300165142E+02  0.44040924171E+03  0.96438080667E+02 0.  0.
        254    2    1    2    0    0 -0.20689350646E+03  0.36331054343E+03  0.89059550421E+03  0.13315275300E+04  0.89722111937E+03 0.  0.
        -24    2    4    4    0    0 -0.34619289414E+02  0.46686680966E+03  0.98730784205E+03  0.10955787284E+04  0.79704842571E+02 0.  0.
         24    2    4    4    0    0 -0.17227421705E+03 -0.10355626623E+03 -0.96712337844E+02  0.23594880162E+03  0.76917192895E+02 0.  0.
         11    1    3    3    0    0  0.81872501488E+02 -0.87316663614E+02 -0.54563664793E+01  0.11982102562E+03  0.00000000000E+00 0.  1.
        -11    1    3    3    0    0  0.12502100497E+03 -0.27599387982E+03  0.10475653162E+03  0.32058821609E+03  0.00000000000E+00 0. -1.
          2    1    6    6  502    0 -0.14982968689E+03 -0.54478027121E+02 -0.58489503318E+02  0.16981699712E+03  0.00000000000E+00 0. -1.
          3    1    5    5  503    0 -0.25494061168E+02  0.46442777211E+03  0.97262806932E+03  0.10781226572E+04  0.00000000000E+00 0. -1.
         -4    1    5    5    0  503 -0.91252282458E+01  0.24390375558E+01  0.14679772729E+02  0.17456071210E+02  0.00000000000E+00 0.  1.
         -1    1    6    6    0  502 -0.22444530157E+02 -0.49078239109E+02 -0.38222834526E+02  0.66131804506E+02  0.00000000000E+00 0.  1.
<mgrwt>
<rscale>  0 0.14696484E+04</rscale>
<asrwt>0</asrwt>
<pdfrwt beam="1">  1        2 0.21244865E+00 0.14696484E+04</pdfrwt>
<pdfrwt beam="2">  1       -2 0.60157009E-01 0.14696484E+04</pdfrwt>
<totfact> 0.37010826E+01</totfact>
</mgrwt>
</event>
<event>
12    1  0.1980523E-007  0.1636631E+04  0.7818608E-02  0.8798355E-01
          2   -1    0    0  501    0  0.00000000000E+00  0.00000000000E+00  0.15813870273E+04  0.15813870273E+04  0.00000000000E+00 0. -1.
         -2   -1    0    0    0  501 -0.00000000000E+00 -0.00000000000E+00 -0.42345142374E+03  0.42345142374E+03  0.00000000000E+00 0.  1.
         23    2    1    2    0    0 -0.56391116986E+03  0.22450569200E+01  0.34606513108E+03  0.66796221725E+03  0.91714780435E+02 0.  0.
        254    2    1    2    0    0  0.56391116986E+03 -0.22450569200E+01  0.81187047249E+03  0.13368762338E+04  0.90005752741E+03 0.  0.
        -24    2    4    4    0    0 -0.93337524624E+02  0.13595822685E+03 -0.94483729166E+02  0.20593689578E+03  0.79286171657E+02 0.  0.
         24    2    4    4    0    0  0.65724869448E+03 -0.13820328377E+03  0.90635420165E+03  0.11309393380E+04  0.80435398859E+02 0.  0.
         13    1    3    3    0    0 -0.29385709433E+03  0.10428086249E+02  0.23263232483E+03  0.37493804212E+03  0.00000000000E+00 0.  1.
        -13    1    3    3    0    0 -0.27005407553E+03 -0.81830293294E+01  0.11343280626E+03  0.29302417513E+03  0.00000000000E+00 0. -1.
          2    1    6    6  502    0  0.10599046113E+03 -0.19845065271E+02  0.10033156124E+03  0.14728960129E+03  0.00000000000E+00 0. -1.
          3    1    5    5  503    0  0.83304759167E+01  0.12409079696E+02 -0.29831359473E+02  0.33366032067E+02  0.00000000000E+00 0. -1.
         -4    1    5    5    0  503 -0.10166800054E+03  0.12354914715E+03 -0.64652369694E+02  0.17257086371E+03  0.00000000000E+00 0.  1.
         -1    1    6    6    0  502  0.55125823336E+03 -0.11835821850E+03  0.80602264041E+03  0.98364973673E+03  0.00000000000E+00 0.  1.
<mgrwt>
<rscale>  0 0.16366314E+04</rscale>
<asrwt>0</asrwt>
<pdfrwt beam="1">  1        2 0.24329031E+00 0.16366314E+04</pdfrwt>
<pdfrwt beam="2">  1       -2 0.65146374E-01 0.16366314E+04</pdfrwt>
<totfact> 0.23729045E+01</totfact>
</mgrwt>
</event>
<event>
12    1  0.1980523E-007  0.1661690E+04  0.7818608E-02  0.8783521E-01
         -2   -1    0    0    0  501 -0.00000000000E+00  0.00000000000E+00  0.52054990325E+03  0.52054990325E+03  0.00000000000E+00 0. -1.
          2   -1    0    0  501    0  0.00000000000E+00 -0.00000000000E+00 -0.13261037751E+04  0.13261037751E+04  0.00000000000E+00 0.  1.
         23    2    1    2    0    0  0.26994891663E+03  0.25842385383E+03  0.21042781455E+03  0.43848057901E+03  0.91269092342E+02 0.  0.
        254    2    1    2    0    0 -0.26994891663E+03 -0.25842385383E+03 -0.10159816864E+04  0.14081730993E+04  0.90059834820E+03 0.  0.
        -24    2    4    4    0    0 -0.15593952912E+03  0.32670949603E+03 -0.33652122692E+03  0.50074586403E+03  0.80272365403E+02 0.  0.
         24    2    4    4    0    0 -0.11400938751E+03 -0.58513334985E+03 -0.67946045947E+03  0.90742723529E+03  0.79865473224E+02 0.  0.
         13    1    3    3    0    0  0.22583827439E+03  0.18172782329E+03  0.19315457678E+03  0.34833406159E+03  0.00000000000E+00 0. -1.
        -13    1    3    3    0    0  0.44110642238E+02  0.76696030543E+02  0.17273237778E+02  0.90146517421E+02  0.00000000000E+00 0.  1.
          4    1    6    6  502    0 -0.15291190816E+02 -0.18309654299E+03 -0.25721992576E+03  0.31610165260E+03  0.00000000000E+00 0. -1.
          1    1    5    5  503    0 -0.77273251614E+02  0.14311345661E+03 -0.99000272087E+02  0.19040396727E+03  0.00000000000E+00 0. -1.
         -2    1    5    5    0  503 -0.78666277504E+02  0.18359603941E+03 -0.23752095483E+03  0.31034189676E+03  0.00000000000E+00 0.  1.
         -3    1    6    6    0  502 -0.98718196694E+02 -0.40203680686E+03 -0.42224053371E+03  0.59132558268E+03  0.00000000000E+00 0.  1.
<mgrwt>
<rscale>  0 0.16616897E+04</rscale>
<asrwt>0</asrwt>
<pdfrwt beam="1">  1        2 0.20401596E+00 0.16616897E+04</pdfrwt>
<pdfrwt beam="2">  1       -2 0.80084601E-01 0.16616897E+04</pdfrwt>
<totfact> 0.21010309E+01</totfact>
</mgrwt>
</event>
<event>
12    1  0.1980523E-007  0.1404371E+04  0.7818608E-02  0.8950660E-01
          2   -1    0    0  501    0  0.00000000000E+00  0.00000000000E+00  0.34034987430E+04  0.34034987430E+04  0.00000000000E+00 0. -1.
         -2   -1    0    0    0  501 -0.00000000000E+00 -0.00000000000E+00 -0.14486994536E+03  0.14486994536E+03  0.00000000000E+00 0.  1.
         23    2    1    2    0    0  0.30608078777E+03  0.22028411815E+03  0.13393833214E+04  0.13945131080E+04  0.92241992902E+02 0.  0.
        254    2    1    2    0    0 -0.30608078777E+03 -0.22028411815E+03  0.19192454762E+04  0.21538555803E+04  0.90187589047E+03 0.  0.
        -24    2    4    4    0    0  0.28075189251E+03 -0.25020534665E+03  0.73292078622E+03  0.82761590090E+03  0.79692282625E+02 0.  0.
         24    2    4    4    0    0 -0.58683268028E+03  0.29921228498E+02  0.11863246900E+04  0.13262396794E+04  0.79230945818E+02 0.  0.
         11    1    3    3    0    0  0.19145403438E+03  0.11563646156E+03  0.63522213679E+03  0.67344903414E+03  0.00000000000E+00 0.  1.
        -11    1    3    3    0    0  0.11462675338E+03  0.10464765659E+03  0.70416118464E+03  0.72106407384E+03  0.00000000000E+00 0. -1.
          4    1    6    6  502    0 -0.30724347086E+03 -0.23531742927E+02  0.62978266353E+03  0.70112659100E+03  0.00000000000E+00 0. -1.
          1    1    5    5  503    0  0.18932097469E+03 -0.18640833468E+03  0.43747867406E+03  0.51183795184E+03  0.00000000000E+00 0. -1.
         -2    1    5    5    0  503  0.91430917817E+02 -0.63797011973E+02  0.29544211216E+03  0.31577794905E+03  0.00000000000E+00 0.  1.
         -3    1    6    6    0  502 -0.27958920941E+03  0.53452971426E+02  0.55654202643E+03  0.62511308845E+03  0.00000000000E+00 0.  1.
<mgrwt>
<rscale>  0 0.14043713E+04</rscale>
<asrwt>0</asrwt>
<pdfrwt beam="1">  1        2 0.52361513E+00 0.14043713E+04</pdfrwt>
<pdfrwt beam="2">  1       -2 0.22287687E-01 0.14043713E+04</pdfrwt>
<totfact> 0.16527023E+01</totfact>
</mgrwt>
</event>
<event>
12    1  0.1980523E-007  0.1776559E+04  0.7818608E-02  0.8718865E-01
         -1   -1    0    0    0  501 -0.00000000000E+00  0.00000000000E+00  0.20846940702E+03  0.20846940702E+03  0.00000000000E+00 0.  1.
          1   -1    0    0  501    0  0.00000000000E+00 -0.00000000000E+00 -0.37849234568E+04  0.37849234568E+04  0.00000000000E+00 0. -1.
         23    2    1    2    0    0  0.60758006776E+03 -0.24110334107E+03 -0.12333011252E+04  0.13987451219E+04  0.90398512059E+02 0.  0.
        254    2    1    2    0    0 -0.60758006776E+03  0.24110334107E+03 -0.23431529246E+04  0.25946477419E+04  0.90252252969E+03 0.  0.
        -24    2    4    4    0    0  0.77265843045E+01 -0.21220821251E+03 -0.11745842266E+04  0.11962050454E+04  0.78526298670E+02 0.  0.
         24    2    4    4    0    0 -0.61530665206E+03  0.45331155358E+03 -0.11685686980E+04  0.13984426966E+04  0.77430826357E+02 0.  0.
         13    1    3    3    0    0  0.51307186865E+03 -0.17677311949E+03 -0.10649549486E+04  0.11952491459E+04  0.00000000000E+00 0. -1.
        -13    1    3    3    0    0  0.94508199111E+02 -0.64330221577E+02 -0.16834617660E+03  0.20349597609E+03  0.00000000000E+00 0.  1.
          2    1    6    6  502    0 -0.43299893328E+03  0.30800401132E+03 -0.74712909879E+03  0.91681865026E+03  0.00000000000E+00 0. -1.
          1    1    5    5  503    0  0.38401997815E+02 -0.16751716856E+03 -0.86426018317E+03  0.88118237580E+03  0.00000000000E+00 0. -1.
         -2    1    5    5    0  503 -0.30675413510E+02 -0.44691043957E+02 -0.31032404344E+03  0.31502266956E+03  0.00000000000E+00 0.  1.
         -1    1    6    6    0  502 -0.18230771878E+03  0.14530754226E+03 -0.42143959925E+03  0.48162404631E+03  0.00000000000E+00 0.  1.
<mgrwt>
<rscale>  0 0.17765593E+04</rscale>
<asrwt>0</asrwt>
<pdfrwt beam="1">  1        1 0.58229591E+00 0.17765593E+04</pdfrwt>
<pdfrwt beam="2">  1       -1 0.32072217E-01 0.17765593E+04</pdfrwt>
<totfact> 0.12703148E+00</totfact>
</mgrwt>
</event>
<event>
12    1  0.1980523E-007  0.1551629E+04  0.7818608E-02  0.8850828E-01
          2   -1    0    0  501    0  0.00000000000E+00  0.00000000000E+00  0.14127561905E+04  0.14127561905E+04  0.00000000000E+00 0. -1.
         -2   -1    0    0    0  501 -0.00000000000E+00 -0.00000000000E+00 -0.42603814481E+03  0.42603814481E+03  0.00000000000E+00 0.  1.
         23    2    1    2    0    0  0.25161689943E+03 -0.43683121445E+03  0.41673014653E+03  0.66038103709E+03  0.91140140034E+02 0.  0.
        254    2    1    2    0    0 -0.25161689943E+03  0.43683121445E+03  0.56998789915E+03  0.11784132982E+04  0.89979949000E+03 0.  0.
        -24    2    4    4    0    0 -0.58069321298E+03  0.32200216187E+03  0.31475131755E+03  0.73895711827E+03  0.78097572899E+02 0.  0.
         24    2    4    4    0    0  0.32907631354E+03  0.11482905258E+03  0.25523658160E+03  0.43945617993E+03  0.80616933993E+02 0.  0.
         11    1    3    3    0    0  0.65808124872E+02 -0.12032518794E+03  0.64001182024E+02  0.15134401690E+03  0.00000000000E+00 0.  1.
        -11    1    3    3    0    0  0.18580877456E+03 -0.31650602651E+03  0.35272896451E+03  0.50903702019E+03  0.00000000000E+00 0. -1.
          2    1    6    6  502    0  0.82275882065E+02  0.61855585446E+02  0.97642234595E+02  0.14187825837E+03  0.00000000000E+00 0. -1.
          1    1    5    5  503    0 -0.10897149838E+02 -0.44886663862E+01  0.70953228912E+01  0.13756438764E+02  0.00000000000E+00 0. -1.
         -2    1    5    5    0  503 -0.56979606314E+03  0.32649082826E+03  0.30765599466E+03  0.72520067951E+03  0.00000000000E+00 0.  1.
         -1    1    6    6    0  502  0.24680043148E+03  0.52973467132E+02  0.15759434700E+03  0.29757792157E+03  0.00000000000E+00 0.  1.
<mgrwt>
<rscale>  0 0.15516289E+04</rscale>
<asrwt>0</asrwt>
<pdfrwt beam="1">  1        2 0.21734710E+00 0.15516289E+04</pdfrwt>
<pdfrwt beam="2">  1       -2 0.65544331E-01 0.15516289E+04</pdfrwt>
<totfact> 0.29364196E+01</totfact>
</mgrwt>
</event>
<event>
12    1  0.1980523E-007  0.1511755E+04  0.7818608E-02  0.8876673E-01
         -2   -1    0    0    0  501 -0.00000000000E+00  0.00000000000E+00  0.16307561382E+03  0.16307561382E+03  0.00000000000E+00 0.  1.
          2   -1    0    0  501    0  0.00000000000E+00 -0.00000000000E+00 -0.35035948496E+04  0.35035948496E+04  0.00000000000E+00 0. -1.
         23    2    1    2    0    0 -0.27189188978E+03 -0.39145072429E+03 -0.12498347926E+04  0.13407116260E+04  0.90894367054E+02 0.  0.
        254    2    1    2    0    0  0.27189188978E+03  0.39145072429E+03 -0.20906844432E+04  0.23259588374E+04  0.90109056327E+03 0.  0.
        -24    2    4    4    0    0  0.79979083904E+02 -0.28633074311E+03 -0.60557017571E+03  0.68015612993E+03  0.86690109376E+02 0.  0.
         24    2    4    4    0    0  0.19191280588E+03  0.67778146740E+03 -0.14851142675E+04  0.16458027075E+04  0.82969403806E+02 0.  0.
         13    1    3    3    0    0 -0.22062631006E+02 -0.29102381097E+02 -0.44694752084E+02  0.57717667454E+02  0.00000000000E+00 0.  1.
        -13    1    3    3    0    0 -0.24982925878E+03 -0.36234834319E+03 -0.12051400405E+04  0.12829939585E+04  0.00000000000E+00 0. -1.
          2    1    6    6  502    0  0.36451269216E+02  0.96318798565E+02 -0.15828322386E+03  0.18883745640E+03  0.00000000000E+00 0. -1.
          1    1    5    5  503    0  0.75767921566E+01 -0.11082759357E+03 -0.30551043469E+03  0.32507966558E+03  0.00000000000E+00 0. -1.
         -2    1    5    5    0  503  0.72402291747E+02 -0.17550314955E+03 -0.30005974103E+03  0.35507646435E+03  0.00000000000E+00 0.  1.
         -1    1    6    6    0  502  0.15546153666E+03  0.58146266883E+03 -0.13268310436E+04  0.14569652511E+04  0.00000000000E+00 0.  1.
<mgrwt>
<rscale>  0 0.15117551E+04</rscale>
<asrwt>0</asrwt>
<pdfrwt beam="1">  1        2 0.53901459E+00 0.15117551E+04</pdfrwt>
<pdfrwt beam="2">  1       -2 0.25088556E-01 0.15117551E+04</pdfrwt>
<totfact> 0.11278343E+01</totfact>
</mgrwt>
</event>
<event>
12    1  0.1980523E-007  0.3477523E+04  0.7818608E-02  0.8119138E-01
         -2   -1    0    0    0  501 -0.00000000000E+00  0.00000000000E+00  0.16651425591E+04  0.16651425591E+04  0.00000000000E+00 0.  1.
          2   -1    0    0  501    0  0.00000000000E+00 -0.00000000000E+00 -0.18156349914E+04  0.18156349914E+04  0.00000000000E+00 0. -1.
         23    2    1    2    0    0 -0.46212578225E+02 -0.13306466959E+04  0.85779385443E+03  0.15864054462E+04  0.90087242694E+02 0.  0.
        254    2    1    2    0    0  0.46212578225E+02  0.13306466959E+04 -0.10082862867E+04  0.18943721044E+04  0.89400682458E+03 0.  0.
        -24    2    4    4    0    0 -0.28647699869E+03  0.95847220410E+03 -0.95633234639E+03  0.13863506259E+04  0.81599414472E+02 0.  0.
         24    2    4    4    0    0  0.33268957691E+03  0.37217449176E+03 -0.51953940327E+02  0.50802147848E+03  0.78679119087E+02 0.  0.
         13    1    3    3    0    0 -0.26620715424E+02 -0.11116406347E+03  0.61082993400E+02  0.12960418041E+03  0.00000000000E+00 0. -1.
        -13    1    3    3    0    0 -0.19591862800E+02 -0.12194826324E+04  0.79671086103E+03  0.14568012657E+04  0.00000000000E+00 0.  1.
          4    1    6    6  502    0  0.93608575111E+01  0.23246957725E+02  0.12444914270E+02  0.27980753885E+02  0.00000000000E+00 0. -1.
          1    1    5    5  503    0 -0.93605843415E+02  0.23325357431E+03 -0.27811972074E+03  0.37485979101E+03  0.00000000000E+00 0. -1.
         -2    1    5    5    0  503 -0.19287115527E+03  0.72521862979E+03 -0.67821262565E+03  0.10114908349E+04  0.00000000000E+00 0.  1.
         -3    1    6    6    0  502  0.32332871940E+03  0.34892753404E+03 -0.64398854597E+02  0.48004072460E+03  0.00000000000E+00 0.  1.
<mgrwt>
<rscale>  0 0.34775227E+04</rscale>
<asrwt>0</asrwt>
<pdfrwt beam="1">  1        2 0.27932846E+00 0.34775227E+04</pdfrwt>
<pdfrwt beam="2">  1       -2 0.25617578E+00 0.34775227E+04</pdfrwt>
<totfact> 0.41002857E-01</totfact>
</mgrwt>
</event>
<event>
12    1  0.1980523E-007  0.1202362E+04  0.7818608E-02  0.9110791E-01
          2   -1    0    0  501    0  0.00000000000E+00  0.00000000000E+00  0.29776809095E+03  0.29776809095E+03  0.00000000000E+00 0. -1.
         -2   -1    0    0    0  501 -0.00000000000E+00 -0.00000000000E+00 -0.12137593030E+04  0.12137593030E+04  0.00000000000E+00 0.  1.
         23    2    1    2    0    0  0.10396867464E+03 -0.27787125605E+02  0.82686713529E+02  0.16499466399E+03  0.93832493805E+02 0.  0.
        254    2    1    2    0    0 -0.10396867464E+03  0.27787125605E+02 -0.99867792560E+03  0.13465327300E+04  0.89677822463E+03 0.  0.
        -24    2    4    4    0    0 -0.35135527000E+03  0.35818097927E+02 -0.10239069845E+04  0.10859579364E+04  0.78648996666E+02 0.  0.
         24    2    4    4    0    0  0.24738659536E+03 -0.80309723215E+01  0.25229058915E+02  0.26057479363E+03  0.77447360067E+02 0.  0.
         13    1    3    3    0    0 -0.14046834661E+02 -0.15994917637E+02  0.25818190384E+02  0.33462365560E+02  0.00000000000E+00 0. -1.
        -13    1    3    3    0    0  0.11801550930E+03 -0.11792207969E+02  0.56868523145E+02  0.13153229843E+03  0.00000000000E+00 0.  1.
          2    1    6    6  502    0  0.16992351741E+02 -0.17877681606E+02 -0.11238564663E+02  0.27104554100E+02  0.00000000000E+00 0. -1.
          1    1    5    5  503    0 -0.10999338608E+03  0.38579427458E+02 -0.26274707940E+03  0.28744207231E+03  0.00000000000E+00 0. -1.
         -2    1    5    5    0  503 -0.24136188392E+03 -0.27613295312E+01 -0.76115990512E+03  0.79851586404E+03  0.00000000000E+00 0.  1.
         -3    1    6    6    0  502  0.23039424362E+03  0.98467092849E+01  0.36467623578E+02  0.23347023953E+03  0.00000000000E+00 0.  1.
<mgrwt>
<rscale>  0 0.12023623E+04</rscale>
<asrwt>0</asrwt>
<pdfrwt beam="1">  1        2 0.45810475E-01 0.12023623E+04</pdfrwt>
<pdfrwt beam="2">  1       -2 0.18673220E+00 0.12023623E+04</pdfrwt>
<totfact> 0.17794307E+01</totfact>
</mgrwt>
</event>
<event>
12    1  0.1980523E-007  0.2288690E+04  0.7818608E-02  0.8482394E-01
         -1   -1    0    0    0  501 -0.00000000000E+00  0.00000000000E+00  0.77202193392E+03  0.77202193392E+03  0.00000000000E+00 0.  1.
          1   -1    0    0  501    0  0.00000000000E+00 -0.00000000000E+00 -0.16962289487E+04  0.16962289487E+04  0.00000000000E+00 0. -1.
         23    2    1    2    0    0  0.57522313094E+03 -0.43070665342E+03 -0.10859348164E+04  0.13051937122E+04  0.88805007970E+02 0.  0.
        254    2    1    2    0    0 -0.57522313094E+03  0.43070665342E+03  0.16172780162E+03  0.11630571703E+04  0.90008678914E+03 0.  0.
        -24    2    4    4    0    0 -0.70019700741E+03  0.57275892562E+02 -0.50216360696E+02  0.70886292474E+03  0.80053645391E+02 0.  0.
         24    2    4    4    0    0  0.12497387647E+03  0.37343076086E+03  0.21194416231E+03  0.45419424560E+03  0.79391950733E+02 0.  0.
         13    1    3    3    0    0  0.45997156795E+03 -0.38587291112E+03 -0.90320671491E+03  0.10845524961E+04  0.00000000000E+00 0. -1.
        -13    1    3    3    0    0  0.11525156299E+03 -0.44833742304E+02 -0.18272810145E+03  0.22064121618E+03  0.00000000000E+00 0.  1.
          4    1    6    6  502    0  0.21272235880E+02  0.12809371232E+03  0.35202579643E+02  0.13453523244E+03  0.00000000000E+00 0. -1.
          1    1    5    5  503    0 -0.59438144835E+03  0.31990697360E+02 -0.18458455892E+02  0.59552785447E+03  0.00000000000E+00 0. -1.
         -2    1    5    5    0  503 -0.10581555906E+03  0.25285195202E+02 -0.31757904803E+02  0.11333507027E+03  0.00000000000E+00 0.  1.
         -3    1    6    6    0  502  0.10370164059E+03  0.24533704854E+03  0.17674158267E+03  0.31965901315E+03  0.00000000000E+00 0.  1.
<mgrwt>
<rscale>  0 0.22886904E+04</rscale>
<asrwt>0</asrwt>
<pdfrwt beam="1">  1        1 0.26095830E+00 0.22886904E+04</pdfrwt>
<pdfrwt beam="2">  1       -1 0.11877261E+00 0.22886904E+04</pdfrwt>
<totfact> 0.27537244E+00</totfact>
</mgrwt>
</event>
<event>
12    1  0.1980523E-007  0.2922368E+04  0.7818608E-02  0.8266253E-01
          2   -1    0    0  501    0  0.00000000000E+00  0.00000000000E+00  0.13712980408E+04  0.13712980408E+04  0.00000000000E+00 0. -1.
         -2   -1    0    0    0  501 -0.00000000000E+00 -0.00000000000E+00 -0.15569615116E+04  0.15569615116E+04  0.00000000000E+00 0.  1.
         23    2    1    2    0    0  0.12486219526E+04  0.37324894508E+03 -0.28515622425E+03  0.13371466790E+04  0.90970398641E+02 0.  0.
        254    2    1    2    0    0 -0.12486219526E+04 -0.37324894508E+03  0.99492753505E+02  0.15911128734E+04  0.90739727379E+03 0.  0.
        -24    2    4    4    0    0 -0.31999492878E+03 -0.37534512026E+03  0.36884222200E+03  0.62095892102E+03  0.79149751200E+02 0.  0.
         24    2    4    4    0    0 -0.92862702382E+03  0.20961751826E+01 -0.26934946849E+03  0.97015395242E+03  0.79353713804E+02 0.  0.
         11    1    3    3    0    0  0.46693478629E+03  0.17358069988E+03 -0.78363519400E+02  0.50428086935E+03  0.00000000000E+00 0.  1.
        -11    1    3    3    0    0  0.78168716631E+03  0.19966824520E+03 -0.20679270485E+03  0.83286580966E+03  0.00000000000E+00 0. -1.
          2    1    6    6  502    0 -0.53513759339E+03 -0.37709432081E+02 -0.15000512809E+03  0.55704199445E+03  0.00000000000E+00 0. -1.
          3    1    5    5  503    0 -0.29443514772E+03 -0.32113296569E+03  0.34765454673E+03  0.55738866308E+03  0.00000000000E+00 0. -1.
         -4    1    5    5    0  503 -0.25559781058E+02 -0.54212154573E+02  0.21187675263E+02  0.63570257937E+02  0.00000000000E+00 0.  1.
         -1    1    6    6    0  502 -0.39348943043E+03  0.39805607263E+02 -0.11934434040E+03  0.41311195797E+03  0.00000000000E+00 0.  1.
<mgrwt>
<rscale>  0 0.29223677E+04</rscale>
<asrwt>0</asrwt>
<pdfrwt beam="1">  1        2 0.21096893E+00 0.29223677E+04</pdfrwt>
<pdfrwt beam="2">  1       -2 0.23953254E+00 0.29223677E+04</pdfrwt>
<totfact> 0.96561427E-01</totfact>
</mgrwt>
</event>
<event>
12    1  0.1980523E-007  0.1596839E+04  0.7818608E-02  0.8822492E-01
          2   -1    0    0  501    0  0.00000000000E+00  0.00000000000E+00  0.12696963243E+04  0.12696963243E+04  0.00000000000E+00 0. -1.
         -2   -1    0    0    0  501 -0.00000000000E+00 -0.00000000000E+00 -0.50206812016E+03  0.50206812016E+03  0.00000000000E+00 0.  1.
         23    2    1    2    0    0 -0.45691990737E+03 -0.11108595768E+03  0.55742458780E+03  0.73476845141E+03  0.89702922756E+02 0.  0.
        254    2    1    2    0    0  0.45691990737E+03  0.11108595768E+03  0.21020361637E+03  0.10369959931E+04  0.90003290918E+03 0.  0.
        -24    2    4    4    0    0 -0.13888285350E+03 -0.24167540223E+03  0.17642767151E+03  0.33936027371E+03  0.79644366170E+02 0.  0.
         24    2    4    4    0    0  0.59580276087E+03  0.35276135992E+03  0.33775944864E+02  0.69763571938E+03  0.78315232212E+02 0.  0.
         11    1    3    3    0    0 -0.14762705201E+03  0.37786291024E+01  0.19586526938E+03  0.24529824352E+03  0.00000000000E+00 0. -1.
        -11    1    3    3    0    0 -0.30929285536E+03 -0.11486458679E+03  0.36155931842E+03  0.48947020789E+03  0.00000000000E+00 0.  1.
          2    1    6    6  502    0  0.50119137685E+03  0.32805086835E+03  0.31082611999E+02  0.59981355205E+03  0.00000000000E+00 0. -1.
          3    1    5    5  503    0 -0.69785748711E+02 -0.12813050903E+03  0.13842080727E+03  0.20111637912E+03  0.00000000000E+00 0. -1.
         -4    1    5    5    0  503 -0.69097104785E+02 -0.11354489321E+03  0.38006864240E+02  0.13824389459E+03  0.00000000000E+00 0.  1.
         -1    1    6    6    0  502  0.94611384016E+02  0.24710491563E+02  0.26933328659E+01  0.97822167327E+02  0.00000000000E+00 0.  1.
<mgrwt>
<rscale>  0 0.15968394E+04</rscale>
<asrwt>0</asrwt>
<pdfrwt beam="1">  1        2 0.19533789E+00 0.15968394E+04</pdfrwt>
<pdfrwt beam="2">  1       -2 0.77241250E-01 0.15968394E+04</pdfrwt>
<totfact> 0.24704201E+01</totfact>
</mgrwt>
</event>
<event>
12    1  0.1980523E-007  0.1898760E+04  0.7818608E-02  0.8655474E-01
         -2   -1    0    0    0  501 -0.00000000000E+00  0.00000000000E+00  0.18459596597E+04  0.18459596597E+04  0.00000000000E+00 0.  1.
          2   -1    0    0  501    0  0.00000000000E+00 -0.00000000000E+00 -0.48826741750E+03  0.48826741750E+03  0.00000000000E+00 0. -1.
         23    2    1    2    0    0  0.60309127863E+03 -0.17315668185E+03  0.99291673610E+03  0.11782786206E+04  0.93565678570E+02 0.  0.
        254    2    1    2    0    0 -0.60309127863E+03  0.17315668185E+03  0.36477550610E+03  0.11559484565E+04  0.89969624736E+03 0.  0.
        -24    2    4    4    0    0 -0.19371378171E+03  0.12582338341E+03  0.61880120466E+03  0.66533076678E+03  0.79959647898E+02 0.  0.
         24    2    4    4    0    0 -0.40937749692E+03  0.47333298443E+02 -0.25402569857E+03  0.49061768976E+03  0.79663579207E+02 0.  0.
         13    1    3    3    0    0  0.27781032283E+03 -0.55368830768E+02  0.52250484078E+03  0.59435308658E+03  0.00000000000E+00 0. -1.
        -13    1    3    3    0    0  0.32528095580E+03 -0.11778785108E+03  0.47041189533E+03  0.58392553407E+03  0.00000000000E+00 0.  1.
          4    1    6    6  502    0 -0.16900097431E+03  0.53761267432E+02 -0.13120493712E+03  0.22060448481E+03  0.00000000000E+00 0. -1.
          1    1    5    5  503    0 -0.75349132666E+02  0.22063205369E+02  0.29542921868E+03  0.30568398727E+03  0.00000000000E+00 0. -1.
         -2    1    5    5    0  503 -0.11836464905E+03  0.10376017804E+03  0.32337198598E+03  0.35964677951E+03  0.00000000000E+00 0.  1.
         -3    1    6    6    0  502 -0.24037652261E+03 -0.64279689888E+01 -0.12282076144E+03  0.27001320495E+03  0.00000000000E+00 0.  1.
<mgrwt>
<rscale>  0 0.18987595E+04</rscale>
<asrwt>0</asrwt>
<pdfrwt beam="1">  1        2 0.75118065E-01 0.18987595E+04</pdfrwt>
<pdfrwt beam="2">  1       -2 0.28399379E+00 0.18987595E+04</pdfrwt>
<totfact> 0.23626574E+00</totfact>
</mgrwt>
</event>
<event>
12    1  0.1980523E-007  0.1933458E+04  0.7818608E-02  0.8638379E-01
         -2   -1    0    0    0  501 -0.00000000000E+00  0.00000000000E+00  0.43844308122E+03  0.43844308122E+03  0.00000000000E+00 0.  1.
          2   -1    0    0  501    0  0.00000000000E+00 -0.00000000000E+00 -0.21315529208E+04  0.21315529208E+04  0.00000000000E+00 0. -1.
         23    2    1    2    0    0  0.19645729891E+03 -0.72291349719E+03 -0.76590013854E+03  0.10767024222E+04  0.10717130742E+03 0.  0.
        254    2    1    2    0    0 -0.19645729891E+03  0.72291349719E+03 -0.92720970105E+03  0.14932935798E+04  0.89944899301E+03 0.  0.
        -24    2    4    4    0    0  0.24216940686E+02  0.60229432795E+03 -0.88574822148E+02  0.61423100920E+03  0.78034068566E+02 0.  0.
         24    2    4    4    0    0 -0.22067423959E+03  0.12061916925E+03 -0.83863487891E+03  0.87906257059E+03  0.78717462452E+02 0.  0.
         13    1    3    3    0    0  0.20490689712E+02 -0.26235846296E+03 -0.28671721843E+03  0.38917681688E+03  0.00000000000E+00 0.  1.
        -13    1    3    3    0    0  0.17596660919E+03 -0.46055503423E+03 -0.47918292011E+03  0.68752560536E+03  0.00000000000E+00 0. -1.
          2    1    6    6  502    0 -0.74710839553E+02  0.85187463980E+02 -0.35688550588E+03  0.37444075349E+03  0.00000000000E+00 0. -1.
          1    1    5    5  503    0  0.31104556694E+02  0.42946208230E+03 -0.30072097614E+02  0.43163584725E+03  0.00000000000E+00 0. -1.
         -2    1    5    5    0  503 -0.68876160085E+01  0.17283224565E+03 -0.58502724533E+02  0.18259516195E+03  0.00000000000E+00 0.  1.
         -1    1    6    6    0  502 -0.14596340004E+03  0.35431705267E+02 -0.48174937303E+03  0.50462181711E+03  0.00000000000E+00 0.  1.
<mgrwt>
<rscale>  0 0.19334577E+04</rscale>
<asrwt>0</asrwt>
<pdfrwt beam="1">  1        2 0.32793122E+00 0.19334577E+04</pdfrwt>
<pdfrwt beam="2">  1       -2 0.67452781E-01 0.19334577E+04</pdfrwt>
<totfact> 0.10619721E+01</totfact>
</mgrwt>
</event>
<event>
12    1  0.1980523E-007  0.2104125E+04  0.7818608E-02  0.8559429E-01
          2   -1    0    0  501    0  0.00000000000E+00  0.00000000000E+00  0.12294098513E+04  0.12294098513E+04  0.00000000000E+00 0. -1.
         -2   -1    0    0    0  501 -0.00000000000E+00 -0.00000000000E+00 -0.90029787295E+03  0.90029787295E+03  0.00000000000E+00 0.  1.
         23    2    1    2    0    0 -0.74741087482E+03  0.29620324289E+03  0.43452096129E+03  0.91830245920E+03  0.90064220864E+02 0.  0.
        254    2    1    2    0    0  0.74741087482E+03 -0.29620324289E+03 -0.10540898299E+03  0.12114052650E+04  0.90001793620E+03 0.  0.
        -24    2    4    4    0    0  0.24987947958E+03  0.14412160732E+02  0.36878418188E+03  0.45288626109E+03  0.80353767712E+02 0.  0.
         24    2    4    4    0    0  0.49753139524E+03 -0.31061540362E+03 -0.47419316487E+03  0.75851900391E+03  0.80451870538E+02 0.  0.
         11    1    3    3    0    0 -0.97042908006E+02  0.75493004197E+01  0.57268208317E+02  0.11293345658E+03  0.00000000000E+00 0.  1.
        -11    1    3    3    0    0 -0.65036796681E+03  0.28865394247E+03  0.37725275297E+03  0.80536900262E+03  0.00000000000E+00 0. -1.
          4    1    6    6  502    0  0.44032151329E+03 -0.27528473055E+03 -0.38318065917E+03  0.64536201895E+03  0.00000000000E+00 0. -1.
          1    1    5    5  503    0  0.16716532202E+03 -0.25643677235E+02  0.26383121789E+03  0.31338276053E+03  0.00000000000E+00 0. -1.
         -2    1    5    5    0  503  0.82714157561E+02  0.40055837967E+02  0.10495296400E+03  0.13950350056E+03  0.00000000000E+00 0.  1.
         -3    1    6    6    0  502  0.57209881944E+02 -0.35330673073E+02 -0.91012505700E+02  0.11315698496E+03  0.00000000000E+00 0.  1.
<mgrwt>
<rscale>  0 0.21041246E+04</rscale>
<asrwt>0</asrwt>
<pdfrwt beam="1">  1        2 0.18913998E+00 0.21041246E+04</pdfrwt>
<pdfrwt beam="2">  1       -2 0.13850737E+00 0.21041246E+04</pdfrwt>
<totfact> 0.61897501E+00</totfact>
</mgrwt>
</event>
<event>
12    1  0.1980523E-007  0.2451751E+04  0.7818608E-02  0.8420379E-01
          2   -1    0    0  501    0  0.00000000000E+00  0.00000000000E+00  0.12518049909E+04  0.12518049909E+04  0.00000000000E+00 0. -1.
         -2   -1    0    0    0  501 -0.00000000000E+00 -0.00000000000E+00 -0.12004829443E+04  0.12004829443E+04  0.00000000000E+00 0.  1.
         23    2    1    2    0    0  0.35520715096E+03  0.55778634878E+03 -0.80445469736E+03  0.10454565060E+04  0.92380813914E+02 0.  0.
        254    2    1    2    0    0 -0.35520715096E+03 -0.55778634878E+03  0.85577674392E+03  0.14068314293E+04  0.89973501877E+03 0.  0.
        -24    2    4    4    0    0 -0.45380078986E+03  0.75178987039E+02  0.41152027359E+03  0.62316621901E+03  0.86024205723E+02 0.  0.
         24    2    4    4    0    0  0.98593638901E+02 -0.63296533582E+03  0.44425647033E+03  0.78366521027E+03  0.80009551808E+02 0.  0.
         13    1    3    3    0    0  0.25507231261E+03  0.37733700427E+03 -0.48676895846E+03  0.66662517082E+03  0.00000000000E+00 0. -1.
        -13    1    3    3    0    0  0.10013483835E+03  0.18044934450E+03 -0.31768573890E+03  0.37883133513E+03  0.00000000000E+00 0.  1.
          2    1    6    6  502    0  0.90415279254E+02 -0.54090300587E+03  0.34430937199E+03  0.64753372740E+03  0.00000000000E+00 0. -1.
          1    1    5    5  503    0 -0.26363306874E+03  0.62556917705E+02  0.29128731681E+03  0.39782416194E+03  0.00000000000E+00 0. -1.
         -2    1    5    5    0  503 -0.19016772112E+03  0.12622069335E+02  0.12023295678E+03  0.22534205707E+03  0.00000000000E+00 0.  1.
         -1    1    6    6    0  502  0.81783596464E+01 -0.92062329949E+02  0.99947098340E+02  0.13613148287E+03  0.00000000000E+00 0.  1.
<mgrwt>
<rscale>  0 0.24517508E+04</rscale>
<asrwt>0</asrwt>
<pdfrwt beam="1">  1        2 0.19258538E+00 0.24517508E+04</pdfrwt>
<pdfrwt beam="2">  1       -2 0.18468968E+00 0.24517508E+04</pdfrwt>
<totfact> 0.26601740E+00</totfact>
</mgrwt>
</event>
<event>
12    1  0.1980523E-007  0.1485792E+04  0.7818608E-02  0.8893956E-01
          2   -1    0    0  501    0  0.00000000000E+00  0.00000000000E+00  0.18772993828E+03  0.18772993828E+03  0.00000000000E+00 0. -1.
         -2   -1    0    0    0  501 -0.00000000000E+00 -0.00000000000E+00 -0.29398317564E+04  0.29398317564E+04  0.00000000000E+00 0.  1.
         23    2    1    2    0    0 -0.29736002101E+03  0.64035767175E+02 -0.13826733360E+03  0.34655757745E+03  0.91982266614E+02 0.  0.
        254    2    1    2    0    0  0.29736002101E+03 -0.64035767175E+02 -0.26138344846E+04  0.27810041173E+04  0.89962749293E+03 0.  0.
        -24    2    4    4    0    0 -0.21828067697E+03  0.39210089106E+02 -0.17561038942E+04  0.17719300715E+04  0.81556151604E+02 0.  0.
         24    2    4    4    0    0  0.51564069798E+03 -0.10324585628E+03 -0.85773059032E+03  0.10090740458E+04  0.77353914176E+02 0.  0.
         13    1    3    3    0    0 -0.12848478991E+03 -0.14500160816E+02 -0.36644823603E+02  0.13439285323E+03  0.00000000000E+00 0.  1.
        -13    1    3    3    0    0 -0.16887523110E+03  0.78535927991E+02 -0.10162251000E+03  0.21216472422E+03  0.00000000000E+00 0. -1.
          4    1    6    6  502    0  0.17090995596E+03 -0.23458862354E+02 -0.35002490673E+03  0.39022809561E+03  0.00000000000E+00 0. -1.
          3    1    5    5  503    0 -0.18712780281E+03  0.17834400872E+02 -0.12092949299E+04  0.12238174324E+04  0.00000000000E+00 0. -1.
         -4    1    5    5    0  503 -0.31152874164E+02  0.21375688234E+02 -0.54680896435E+03  0.54811263907E+03  0.00000000000E+00 0.  1.
         -3    1    6    6    0  502  0.34473074202E+03 -0.79786993927E+02 -0.50770568359E+03  0.61884595017E+03  0.00000000000E+00 0.  1.
<mgrwt>
<rscale>  0 0.14857920E+04</rscale>
<asrwt>0</asrwt>
<pdfrwt beam="1">  1        2 0.28881532E-01 0.14857920E+04</pdfrwt>
<pdfrwt beam="2">  1       -2 0.45228177E+00 0.14857920E+04</pdfrwt>
<totfact> 0.60840035E-01</totfact>
</mgrwt>
</event>
<event>
12    1  0.1980523E-007  0.1882722E+04  0.7818608E-02  0.8663505E-01
         -2   -1    0    0    0  501 -0.00000000000E+00  0.00000000000E+00  0.31563912873E+03  0.31563912873E+03  0.00000000000E+00 0.  1.
          2   -1    0    0  501    0  0.00000000000E+00 -0.00000000000E+00 -0.28075117557E+04  0.28075117557E+04  0.00000000000E+00 0. -1.
         23    2    1    2    0    0  0.18491731734E+03  0.70197648786E+03 -0.10626560796E+04  0.12902337596E+04  0.92194399087E+02 0.  0.
        254    2    1    2    0    0 -0.18491731734E+03 -0.70197648786E+03 -0.14292165474E+04  0.18329171248E+04  0.88879685158E+03 0.  0.
        -24    2    4    4    0    0 -0.16747029030E+03  0.17098762022E+03 -0.19864825335E+03  0.32136848805E+03  0.80830143834E+02 0.  0.
         24    2    4    4    0    0 -0.17447027045E+02 -0.87296410808E+03 -0.12305682940E+04  0.15115486367E+04  0.90056772585E+02 0.  0.
         11    1    3    3    0    0  0.27755631919E+01  0.19628126843E+02 -0.89695509213E+01  0.21758215877E+02  0.00000000000E+00 0.  1.
        -11    1    3    3    0    0  0.18214175415E+03  0.68234836102E+03 -0.10536865287E+04  0.12684755438E+04  0.00000000000E+00 0. -1.
          4    1    6    6  502    0 -0.30713451398E+02 -0.83053815389E+03 -0.11891029424E+04  0.14507593697E+04  0.00000000000E+00 0. -1.
          1    1    5    5  503    0 -0.17532850768E+02  0.69220234776E+02 -0.55719371111E+02  0.90573120050E+02  0.00000000000E+00 0. -1.
         -2    1    5    5    0  503 -0.14993743953E+03  0.10176738544E+03 -0.14292888224E+03  0.23079536800E+03  0.00000000000E+00 0.  1.
         -1    1    6    6    0  502  0.13266424353E+02 -0.42425954193E+02 -0.41465351637E+02  0.60789267068E+02  0.00000000000E+00 0.  1.
<mgrwt>
<rscale>  0 0.18827220E+04</rscale>
<asrwt>0</asrwt>
<pdfrwt beam="1">  1        2 0.43192489E+00 0.18827220E+04</pdfrwt>
<pdfrwt beam="2">  1       -2 0.48559865E-01 0.18827220E+04</pdfrwt>
<totfact> 0.86380402E+00</totfact>
</mgrwt>
</event>
<event>
12    1  0.1980523E-007  0.4526936E+04  0.7818608E-02  0.7905938E-01
          1   -1    0    0  501    0  0.00000000000E+00  0.00000000000E+00  0.13664220077E+04  0.13664220077E+04  0.00000000000E+00 0. -1.
         -1   -1    0    0    0  501 -0.00000000000E+00 -0.00000000000E+00 -0.37494185075E+04  0.37494185075E+04  0.00000000000E+00 0.  1.
         23    2    1    2    0    0 -0.58547444878E+03 -0.16018628592E+04 -0.26690284753E+04  0.31687162634E+04  0.91130710495E+02 0.  0.
        254    2    1    2    0    0  0.58547444878E+03  0.16018628592E+04  0.28603197554E+03  0.19471242517E+04  0.89483719799E+03 0.  0.
        -24    2    4    4    0    0 -0.83852424867E+01 -0.46739591101E+02  0.16432696757E+03  0.18885260998E+03  0.80044077596E+02 0.  0.
         24    2    4    4    0    0  0.59385969127E+03  0.16486024503E+04  0.12170500797E+03  0.17582716418E+04  0.78407176338E+02 0.  0.
         13    1    3    3    0    0 -0.18984074082E+03 -0.40479485768E+03 -0.68493890588E+03  0.81794846321E+03  0.00000000000E+00 0. -1.
        -13    1    3    3    0    0 -0.39563370796E+03 -0.11970680015E+04 -0.19840895694E+04  0.23507678002E+04  0.00000000000E+00 0.  1.
          2    1    6    6  502    0  0.58664480963E+03  0.16138385370E+04  0.12910771904E+03  0.17220034145E+04  0.00000000000E+00 0. -1.
          3    1    5    5  503    0 -0.66070341838E+01 -0.69659010183E+02  0.11963603151E+03  0.13859585361E+03  0.00000000000E+00 0. -1.
         -4    1    5    5    0  503 -0.17782083029E+01  0.22919419082E+02  0.44690936051E+02  0.50256756371E+02  0.00000000000E+00 0.  1.
         -1    1    6    6    0  502  0.72148816343E+01  0.34763913235E+02 -0.74027110697E+01  0.36268227302E+02  0.00000000000E+00 0.  1.
<mgrwt>
<rscale>  0 0.45269363E+04</rscale>
<asrwt>0</asrwt>
<pdfrwt beam="1">  1        1 0.21021877E+00 0.45269363E+04</pdfrwt>
<pdfrwt beam="2">  1       -1 0.57683362E+00 0.45269363E+04</pdfrwt>
<totfact> 0.33859061E-03</totfact>
</mgrwt>
</event>
<event>
12    1  0.2222103E-007  0.2935196E+04  0.7818608E-02  0.8262482E-01
         -2   -1    0    0    0  501 -0.00000000000E+00  0.00000000000E+00  0.10371424973E+04  0.10371424973E+04  0.00000000000E+00 0.  1.
          2   -1    0    0  501    0  0.00000000000E+00 -0.00000000000E+00 -0.20767097800E+04  0.20767097800E+04  0.00000000000E+00 0. -1.
         23    2    1    2    0    0 -0.37374181239E+03  0.53397737231E+03  0.75113674663E+03  0.99859419167E+03  0.90383466604E+02 0.  0.
        254    2    1    2    0    0  0.37374181239E+03 -0.53397737231E+03 -0.17907040294E+04  0.21152580856E+04  0.91808554702E+03 0.  0.
        -24    2    4    4    0    0  0.27930055224E+03 -0.53806662881E+03 -0.42528905502E+03  0.74429993704E+03  0.74747043013E+02 0.  0.
         24    2    4    4    0    0  0.94441260149E+02  0.40892564975E+01 -0.13654149743E+04  0.13709581486E+04  0.78945040582E+02 0.  0.
         11    1    3    3    0    0 -0.16637937179E+03  0.29503592319E+03  0.43527030257E+03  0.55153288899E+03  0.00000000000E+00 0.  1.
        -11    1    3    3    0    0 -0.20736244060E+03  0.23894144912E+03  0.31586644406E+03  0.44706130269E+03  0.00000000000E+00 0. -1.
          2    1    6    6  502    0  0.74701086589E+01 -0.22619913563E+02 -0.12762914093E+03  0.12983320310E+03  0.00000000000E+00 0. -1.
          1    1    5    5  503    0  0.19876034510E+02 -0.40987303072E+02 -0.10228162756E+02  0.46686519193E+02  0.00000000000E+00 0. -1.
         -2    1    5    5    0  503  0.25942451773E+03 -0.49707932574E+03 -0.41506089226E+03  0.69761341785E+03  0.00000000000E+00 0.  1.
         -1    1    6    6    0  502  0.86971151490E+02  0.26709170061E+02 -0.12377858334E+04  0.12411249455E+04  0.00000000000E+00 0.  1.
<mgrwt>
<rscale>  0 0.29351961E+04</rscale>
<asrwt>0</asrwt>
<pdfrwt beam="1">  1        2 0.31949381E+00 0.29351961E+04</pdfrwt>
<pdfrwt beam="2">  1       -2 0.15956038E+00 0.29351961E+04</pdfrwt>
<totfact> 0.13224141E+00</totfact>
</mgrwt>
</event>
<event>
12    1  0.1980523E-007  0.2298111E+04  0.7818608E-02  0.8478666E-01
         -2   -1    0    0    0  501 -0.00000000000E+00  0.00000000000E+00  0.99088956074E+03  0.99088956074E+03  0.00000000000E+00 0. -1.
          2   -1    0    0  501    0  0.00000000000E+00 -0.00000000000E+00 -0.13324676906E+04  0.13324676906E+04  0.00000000000E+00 0.  1.
         23    2    1    2    0    0 -0.53879663589E+03 -0.80873969496E+03 -0.21718187674E+02  0.97634670980E+03  0.91757882550E+02 0.  0.
        254    2    1    2    0    0  0.53879663589E+03  0.80873969496E+03 -0.31985994215E+03  0.13470105415E+04  0.87622217919E+03 0.  0.
        -24    2    4    4    0    0  0.60787324995E+03  0.94888327391E+03 -0.24445894289E+03  0.11556419314E+04  0.76542427882E+02 0.  0.
         24    2    4    4    0    0 -0.69076614062E+02 -0.14014357895E+03 -0.75400999262E+02  0.19136861014E+03  0.80776437955E+02 0.  0.
         11    1    3    3    0    0 -0.33521640915E+03 -0.43903375315E+03  0.16036141668E+02  0.55261002091E+03  0.00000000000E+00 0. -1.
        -11    1    3    3    0    0 -0.20358022674E+03 -0.36970594181E+03 -0.37754329341E+02  0.42373668889E+03  0.00000000000E+00 0.  1.
          2    1    6    6  502    0  0.24519747019E+01 -0.64817924015E+02 -0.33512253710E+01  0.64950798033E+02  0.00000000000E+00 0. -1.
          1    1    5    5  503    0  0.10069210522E+02  0.40175035181E+02 -0.14527662386E+02  0.43891632765E+02  0.00000000000E+00 0. -1.
         -2    1    5    5    0  503  0.59780403943E+03  0.90870823872E+03 -0.22993128051E+03  0.11117502986E+04  0.00000000000E+00 0.  1.
         -1    1    6    6    0  502 -0.71528588764E+02 -0.75325654931E+02 -0.72049773891E+02  0.12641781211E+03  0.00000000000E+00 0.  1.
<mgrwt>
<rscale>  0 0.22981108E+04</rscale>
<asrwt>0</asrwt>
<pdfrwt beam="1">  1        2 0.20499503E+00 0.22981108E+04</pdfrwt>
<pdfrwt beam="2">  1       -2 0.15244455E+00 0.22981108E+04</pdfrwt>
<totfact> 0.41195939E+00</totfact>
</mgrwt>
</event>
<event>
12    1  0.1980523E-007  0.1653102E+04  0.7818608E-02  0.8788573E-01
         -2   -1    0    0    0  501 -0.00000000000E+00  0.00000000000E+00  0.47720762266E+03  0.47720762266E+03  0.00000000000E+00 0.  1.
          2   -1    0    0  501    0  0.00000000000E+00 -0.00000000000E+00 -0.14316344588E+04  0.14316344588E+04  0.00000000000E+00 0. -1.
         23    2    1    2    0    0  0.43729954785E+02 -0.43142488481E+03  0.10253064246E+03  0.45474526546E+03  0.90779863621E+02 0.  0.
        254    2    1    2    0    0 -0.43729954785E+02  0.43142488481E+03 -0.10569574786E+04  0.14540968160E+04  0.89955472239E+03 0.  0.
        -24    2    4    4    0    0  0.32699738117E+03  0.77611364067E+02 -0.89764933620E+02  0.35684668083E+03  0.79567576266E+02 0.  0.
         24    2    4    4    0    0 -0.37072733595E+03  0.35381352074E+03 -0.96719254499E+03  0.10972501352E+04  0.76639904648E+02 0.  0.
         13    1    3    3    0    0  0.10972105981E+02 -0.60954607955E+02 -0.16768602350E+02  0.64164143923E+02  0.00000000000E+00 0. -1.
        -13    1    3    3    0    0  0.32757848804E+02 -0.37047027685E+03  0.11929924481E+03  0.39058112154E+03  0.00000000000E+00 0.  1.
          2    1    6    6  502    0 -0.44153944854E+02  0.67235112799E+02 -0.11048238997E+03  0.13666195422E+03  0.00000000000E+00 0. -1.
          1    1    5    5  503    0 -0.25411193342E+01  0.74190437621E+01 -0.53765598699E+01  0.95082539853E+01  0.00000000000E+00 0. -1.
         -2    1    5    5    0  503  0.32953850050E+03  0.70192320304E+02 -0.84388373751E+02  0.34733842685E+03  0.00000000000E+00 0.  1.
         -1    1    6    6    0  502 -0.32657339110E+03  0.28657840794E+03 -0.85671015503E+03  0.96058818096E+03  0.00000000000E+00 0.  1.
<mgrwt>
<rscale>  0 0.16531024E+04</rscale>
<asrwt>0</asrwt>
<pdfrwt beam="1">  1        2 0.22025145E+00 0.16531024E+04</pdfrwt>
<pdfrwt beam="2">  1       -2 0.73416558E-01 0.16531024E+04</pdfrwt>
<totfact> 0.22191324E+01</totfact>
</mgrwt>
</event>
<event>
12    1  0.1980523E-007  0.2773771E+04  0.7818608E-02  0.8311458E-01
         -1   -1    0    0    0  501 -0.00000000000E+00  0.00000000000E+00  0.17997382433E+04  0.17997382433E+04  0.00000000000E+00 0.  1.
          1   -1    0    0  501    0  0.00000000000E+00 -0.00000000000E+00 -0.10687393846E+04  0.10687393846E+04  0.00000000000E+00 0. -1.
         23    2    1    2    0    0  0.74280102943E+03 -0.97887882690E+03  0.16122148996E+03  0.12427499556E+04  0.92075818602E+02 0.  0.
        254    2    1    2    0    0 -0.74280102943E+03  0.97887882690E+03  0.56977736873E+03  0.16257276723E+04  0.89910349098E+03 0.  0.
        -24    2    4    4    0    0 -0.63803346133E+02 -0.65550367977E+02  0.33415566641E+03  0.35546965836E+03  0.79567272791E+02 0.  0.
         24    2    4    4    0    0 -0.67899768329E+03  0.10444291949E+04  0.23562170232E+03  0.12702580139E+04  0.78534313208E+02 0.  0.
         11    1    3    3    0    0  0.52228931961E+03 -0.62258858440E+03  0.12453466473E+03  0.82213840777E+03  0.00000000000E+00 0. -1.
        -11    1    3    3    0    0  0.22051170981E+03 -0.35629024250E+03  0.36686825225E+02  0.42061154788E+03  0.00000000000E+00 0.  1.
          2    1    6    6  502    0 -0.10618615078E+03  0.21467076740E+03  0.31923860502E+02  0.24161574838E+03  0.00000000000E+00 0. -1.
          1    1    5    5  503    0 -0.59994133971E+02 -0.18595507936E+02  0.11233856563E+03  0.12870525379E+03  0.00000000000E+00 0. -1.
         -2    1    5    5    0  503 -0.38092121618E+01 -0.46954860041E+02  0.22181710078E+03  0.22676440456E+03  0.00000000000E+00 0.  1.
         -1    1    6    6    0  502 -0.57281153251E+03  0.82975842747E+03  0.20369784182E+03  0.10286422656E+04  0.00000000000E+00 0.  1.
<mgrwt>
<rscale>  0 0.27737708E+04</rscale>
<asrwt>0</asrwt>
<pdfrwt beam="1">  1        1 0.16442144E+00 0.27737708E+04</pdfrwt>
<pdfrwt beam="2">  1       -1 0.27688281E+00 0.27737708E+04</pdfrwt>
<totfact> 0.54164771E-01</totfact>
</mgrwt>
</event>
<event>
12    1  0.1980523E-007  0.1522897E+04  0.7818608E-02  0.8869368E-01
         -2   -1    0    0    0  501 -0.00000000000E+00  0.00000000000E+00  0.14132874901E+04  0.14132874901E+04  0.00000000000E+00 0.  1.
          2   -1    0    0  501    0  0.00000000000E+00 -0.00000000000E+00 -0.41025208047E+03  0.41025208047E+03  0.00000000000E+00 0. -1.
         23    2    1    2    0    0  0.79872083347E+01  0.26496258883E+03  0.82064769929E+03  0.86733997841E+03  0.92450109973E+02 0.  0.
        254    2    1    2    0    0 -0.79872083347E+01 -0.26496258883E+03  0.18238771036E+03  0.95619959216E+03  0.90043512492E+03 0.  0.
        -24    2    4    4    0    0 -0.23612823846E+03  0.24948844301E+03  0.15964077584E+03  0.38722246616E+03  0.80343218695E+02 0.  0.
         24    2    4    4    0    0  0.22814103012E+03 -0.51445103185E+03  0.22746934519E+02  0.56897712601E+03  0.80680562074E+02 0.  0.
         13    1    3    3    0    0 -0.33949678200E+02  0.15096483774E+03  0.53528913340E+03  0.55720500646E+03  0.00000000000E+00 0.  1.
        -13    1    3    3    0    0  0.41936886535E+02  0.11399775110E+03  0.28535856588E+03  0.31013497196E+03  0.00000000000E+00 0. -1.
          2    1    6    6  502    0  0.16461979661E+03 -0.43443150524E+03  0.12699237923E+01  0.46457725180E+03  0.00000000000E+00 0. -1.
          1    1    5    5  503    0 -0.22041688225E+03  0.18933940025E+03  0.12920093629E+03  0.31800297546E+03  0.00000000000E+00 0. -1.
         -2    1    5    5    0  503 -0.15711356208E+02  0.60149042766E+02  0.30439839553E+02  0.69219490692E+02  0.00000000000E+00 0.  1.
         -1    1    6    6    0  502  0.63521233515E+02 -0.80019526608E+02  0.21477010726E+02  0.10439987421E+03  0.00000000000E+00 0.  1.
<mgrwt>
<rscale>  0 0.15228974E+04</rscale>
<asrwt>0</asrwt>
<pdfrwt beam="1">  1        2 0.63115705E-01 0.15228974E+04</pdfrwt>
<pdfrwt beam="2">  1       -2 0.21742884E+00 0.15228974E+04</pdfrwt>
<totfact> 0.76436166E+00</totfact>
</mgrwt>
</event>
<event>
12    1  0.1980523E-007  0.4435131E+04  0.7818608E-02  0.7922093E-01
          1   -1    0    0  501    0  0.00000000000E+00  0.00000000000E+00  0.19371625310E+04  0.19371625310E+04  0.00000000000E+00 0. -1.
         -1   -1    0    0    0  501 -0.00000000000E+00 -0.00000000000E+00 -0.25385570783E+04  0.25385570783E+04  0.00000000000E+00 0.  1.
         23    2    1    2    0    0  0.14128298248E+04 -0.14069656809E+04  0.45379622832E+03  0.20469296574E+04  0.91375404297E+02 0.  0.
        254    2    1    2    0    0 -0.14128298248E+04  0.14069656809E+04 -0.10551907756E+04  0.24287899518E+04  0.89997361971E+03 0.  0.
        -24    2    4    4    0    0 -0.14024939470E+03  0.57930279850E+03 -0.43760881729E+02  0.60304399236E+03  0.80532086088E+02 0.  0.
         24    2    4    4    0    0 -0.12725804301E+04  0.82766288239E+03 -0.10114298939E+04  0.18257459595E+04  0.76622975250E+02 0.  0.
         13    1    3    3    0    0  0.74091725194E+03 -0.71526101403E+03  0.27819755816E+03  0.10667476617E+04  0.00000000000E+00 0. -1.
        -13    1    3    3    0    0  0.67191257282E+03 -0.69170466686E+03  0.17559867017E+03  0.98018199567E+03  0.00000000000E+00 0.  1.
          4    1    6    6  502    0 -0.66628969428E+03  0.39235062933E+03 -0.49431472940E+03  0.91772982121E+03  0.00000000000E+00 0. -1.
          3    1    5    5  503    0 -0.35477263216E+02  0.50150854912E+02  0.36545499955E+01  0.61539419801E+02  0.00000000000E+00 0. -1.
         -4    1    5    5    0  503 -0.10477213148E+03  0.52915194359E+03 -0.47415431724E+02  0.54150457256E+03  0.00000000000E+00 0.  1.
         -3    1    6    6    0  502 -0.60629073580E+03  0.43531225305E+03 -0.51711516451E+03  0.90801613826E+03  0.00000000000E+00 0.  1.
<mgrwt>
<rscale>  0 0.44351314E+04</rscale>
<asrwt>0</asrwt>
<pdfrwt beam="1">  1        1 0.29802501E+00 0.44351314E+04</pdfrwt>
<pdfrwt beam="2">  1       -1 0.39054724E+00 0.44351314E+04</pdfrwt>
<totfact> 0.20603213E-02</totfact>
</mgrwt>
</event>
<event>
12    1  0.1980523E-007  0.2094380E+04  0.7818608E-02  0.8563723E-01
          1   -1    0    0  501    0  0.00000000000E+00  0.00000000000E+00  0.63896611175E+03  0.63896611175E+03  0.00000000000E+00 0. -1.
         -1   -1    0    0    0  501 -0.00000000000E+00 -0.00000000000E+00 -0.17162204862E+04  0.17162204862E+04  0.00000000000E+00 0.  1.
         23    2    1    2    0    0  0.81098051409E+03 -0.50429442847E+02 -0.72358967564E+03  0.10917481539E+04  0.89997166025E+02 0.  0.
        254    2    1    2    0    0 -0.81098051409E+03  0.50429442847E+02 -0.35366469883E+03  0.12634384441E+04  0.90053620686E+03 0.  0.
        -24    2    4    4    0    0 -0.42250765147E+03 -0.28308365284E+03  0.15419046926E+03  0.53779470279E+03  0.82458301474E+02 0.  0.
         24    2    4    4    0    0 -0.38847286261E+03  0.33351309568E+03 -0.50785516809E+03  0.72564374130E+03  0.80621446009E+02 0.  0.
         13    1    3    3    0    0  0.73591470398E+03 -0.19505774720E+02 -0.65800194209E+03  0.98737909770E+03  0.00000000000E+00 0.  1.
        -13    1    3    3    0    0  0.75065810102E+02 -0.30923668127E+02 -0.65587733554E+02  0.10436905619E+03  0.00000000000E+00 0. -1.
          2    1    6    6  502    0 -0.26652564540E+02  0.46757468018E+02 -0.31903777884E+02  0.62565733875E+02  0.00000000000E+00 0. -1.
          3    1    5    5  503    0 -0.24077434224E+03 -0.18219238051E+03  0.52782457325E+02  0.30651645175E+03  0.00000000000E+00 0. -1.
         -4    1    5    5    0  503 -0.18173330923E+03 -0.10089127233E+03  0.10140801193E+03  0.23127825103E+03  0.00000000000E+00 0.  1.
         -1    1    6    6    0  502 -0.36182029807E+03  0.28675562766E+03 -0.47595139020E+03  0.66307800743E+03  0.00000000000E+00 0.  1.
<mgrwt>
<rscale>  0 0.20943798E+04</rscale>
<asrwt>0</asrwt>
<pdfrwt beam="1">  1        1 0.98302480E-01 0.20943798E+04</pdfrwt>
<pdfrwt beam="2">  1       -1 0.26403392E+00 0.20943798E+04</pdfrwt>
<totfact> 0.16237772E+00</totfact>
</mgrwt>
</event>
<event>
12    1  0.1980523E-007  0.1904161E+04  0.7818608E-02  0.8652788E-01
          2   -1    0    0  501    0  0.00000000000E+00  0.00000000000E+00  0.63904362402E+03  0.63904362402E+03  0.00000000000E+00 0. -1.
         -2   -1    0    0    0  501 -0.00000000000E+00 -0.00000000000E+00 -0.14184589979E+04  0.14184589979E+04  0.00000000000E+00 0.  1.
         23    2    1    2    0    0 -0.32955719816E+03  0.56924491876E+03 -0.65915179431E+03  0.93554357228E+03  0.90071989532E+02 0.  0.
        254    2    1    2    0    0  0.32955719816E+03 -0.56924491876E+03 -0.12026357957E+03  0.11219590496E+04  0.90093343600E+03 0.  0.
        -24    2    4    4    0    0 -0.11547239420E+03  0.97545099818E+02  0.19188684689E+03  0.25738314408E+03  0.81096242371E+02 0.  0.
         24    2    4    4    0    0  0.44502959236E+03 -0.66679001858E+03 -0.31215042645E+03  0.86457590557E+03  0.85984538115E+02 0.  0.
         11    1    3    3    0    0 -0.33277396500E+03  0.56652874317E+03 -0.64475800184E+03  0.92054669059E+03  0.00000000000E+00 0. -1.
        -11    1    3    3    0    0  0.32167668415E+01  0.27161755954E+01 -0.14393792476E+02  0.14996881696E+02  0.00000000000E+00 0.  1.
          4    1    6    6  502    0  0.43284343462E+03 -0.66448073082E+03 -0.31194154094E+03  0.85217111280E+03  0.00000000000E+00 0. -1.
          3    1    5    5  503    0 -0.74910837784E+02  0.10756663725E+02  0.88084546003E+02  0.11613021431E+03  0.00000000000E+00 0. -1.
         -4    1    5    5    0  503 -0.40561556416E+02  0.86788436093E+02  0.10380230088E+03  0.14125292976E+03  0.00000000000E+00 0.  1.
         -3    1    6    6    0  502  0.12186157742E+02 -0.23092877602E+01 -0.20888551608E+00  0.12404792769E+02  0.00000000000E+00 0.  1.
<mgrwt>
<rscale>  0 0.19041609E+04</rscale>
<asrwt>0</asrwt>
<pdfrwt beam="1">  1        2 0.98314406E-01 0.19041609E+04</pdfrwt>
<pdfrwt beam="2">  1       -2 0.21822446E+00 0.19041609E+04</pdfrwt>
<totfact> 0.43579471E+00</totfact>
</mgrwt>
</event>
<event>
12    1  0.1980523E-007  0.4457661E+04  0.7818608E-02  0.7918091E-01
          2   -1    0    0  501    0  0.00000000000E+00  0.00000000000E+00  0.41548534511E+04  0.41548534511E+04  0.00000000000E+00 0. -1.
         -2   -1    0    0    0  501 -0.00000000000E+00 -0.00000000000E+00 -0.11956345505E+04  0.11956345505E+04  0.00000000000E+00 0.  1.
         23    2    1    2    0    0 -0.36457347691E+03  0.19486842588E+04  0.23777843382E+04  0.30972025604E+04  0.92310241956E+02 0.  0.
        254    2    1    2    0    0  0.36457347691E+03 -0.19486842588E+04  0.58143456237E+03  0.22532854412E+04  0.89941368064E+03 0.  0.
        -24    2    4    4    0    0  0.17378427155E+03 -0.93067150459E+02  0.29581614842E+03  0.36445778404E+03  0.80372975221E+02 0.  0.
         24    2    4    4    0    0  0.19078920536E+03 -0.18556171083E+04  0.28561841395E+03  0.18888276572E+04  0.79854033556E+02 0.  0.
         11    1    3    3    0    0 -0.33556845438E+03  0.17356633527E+04  0.21598780490E+04  0.27910941668E+04  0.00000000000E+00 0. -1.
        -11    1    3    3    0    0 -0.29005022529E+02  0.21302090611E+03  0.21790628925E+03  0.30610839366E+03  0.00000000000E+00 0.  1.
          2    1    6    6  502    0  0.18540021674E+03 -0.15426572024E+04  0.25122859423E+03  0.15739378295E+04  0.00000000000E+00 0. -1.
          3    1    5    5  503    0  0.13263287079E+01  0.64434195676E+01  0.38731057649E+02  0.39285768800E+02  0.00000000000E+00 0. -1.
         -4    1    5    5    0  503  0.17245794284E+03 -0.99510570027E+02  0.25708509077E+03  0.32517201524E+03  0.00000000000E+00 0.  1.
         -1    1    6    6    0  502  0.53889886182E+01 -0.31295990589E+03  0.34389819728E+02  0.31488982770E+03  0.00000000000E+00 0.  1.
<mgrwt>
<rscale>  0 0.44576614E+04</rscale>
<asrwt>0</asrwt>
<pdfrwt beam="1">  1        2 0.63920821E+00 0.44576614E+04</pdfrwt>
<pdfrwt beam="2">  1       -2 0.18394378E+00 0.44576614E+04</pdfrwt>
<totfact> 0.32766326E-02</totfact>
</mgrwt>
</event>
<event>
12    1  0.1980523E-007  0.2587759E+04  0.7818608E-02  0.8372371E-01
         -2   -1    0    0    0  501 -0.00000000000E+00  0.00000000000E+00  0.11444446691E+04  0.11444446691E+04  0.00000000000E+00 0.  1.
          2   -1    0    0  501    0  0.00000000000E+00 -0.00000000000E+00 -0.14628268906E+04  0.14628268906E+04  0.00000000000E+00 0. -1.
         23    2    1    2    0    0  0.13129454563E+03 -0.10586123118E+04  0.25056719468E+03  0.10995537282E+04  0.91302780906E+02 0.  0.
        254    2    1    2    0    0 -0.13129454563E+03  0.10586123118E+04 -0.56894941612E+03  0.15077178315E+04  0.90089474240E+03 0.  0.
        -24    2    4    4    0    0 -0.33021719990E+03  0.28944159113E+03 -0.55092121245E+03  0.70899449398E+03  0.79618944897E+02 0.  0.
         24    2    4    4    0    0  0.19892265426E+03  0.76917072065E+03 -0.18028203670E+02  0.79872333749E+03  0.80250444529E+02 0.  0.
         11    1    3    3    0    0  0.52019836697E+02 -0.44404602103E+03  0.15132928005E+03  0.47199945254E+03  0.00000000000E+00 0.  1.
        -11    1    3    3    0    0  0.79274708935E+02 -0.61456629075E+03  0.99237914632E+02  0.62755427566E+03  0.00000000000E+00 0. -1.
          2    1    6    6  502    0  0.71748069406E+02  0.15012175121E+03 -0.10187096430E+02  0.16669763820E+03  0.00000000000E+00 0. -1.
          1    1    5    5  503    0 -0.13162890775E+03  0.68425448327E+02 -0.16388806785E+03  0.22105996951E+03  0.00000000000E+00 0. -1.
         -2    1    5    5    0  503 -0.19858829214E+03  0.22101614280E+03 -0.38703314459E+03  0.48793452447E+03  0.00000000000E+00 0.  1.
         -1    1    6    6    0  502  0.12717458486E+03  0.61904896944E+03 -0.78411072409E+01  0.63202569929E+03  0.00000000000E+00 0.  1.
<mgrwt>
<rscale>  0 0.25877592E+04</rscale>
<asrwt>0</asrwt>
<pdfrwt beam="1">  1        2 0.22505029E+00 0.25877592E+04</pdfrwt>
<pdfrwt beam="2">  1       -2 0.17606841E+00 0.25877592E+04</pdfrwt>
<totfact> 0.22787682E+00</totfact>
</mgrwt>
</event>
<event>
12    1  0.1980523E-007  0.2392926E+04  0.7818608E-02  0.8442157E-01
          2   -1    0    0  501    0  0.00000000000E+00  0.00000000000E+00  0.10857244732E+04  0.10857244732E+04  0.00000000000E+00 0. -1.
         -2   -1    0    0    0  501 -0.00000000000E+00 -0.00000000000E+00 -0.13184967267E+04  0.13184967267E+04  0.00000000000E+00 0.  1.
         23    2    1    2    0    0  0.14064920438E+03  0.10083006011E+04  0.19044242530E+02  0.10215560249E+04  0.82229725863E+02 0.  0.
        254    2    1    2    0    0 -0.14064920438E+03 -0.10083006011E+04 -0.25181649602E+03  0.13826651750E+04  0.90105445875E+03 0.  0.
        -24    2    4    4    0    0 -0.22114224153E+03  0.25955324621E+02  0.13554288039E+03  0.27244116923E+03  0.79213309510E+02 0.  0.
         24    2    4    4    0    0  0.80493037155E+02 -0.10342559258E+04 -0.38735937640E+03  0.11102240058E+04  0.79909996629E+02 0.  0.
         13    1    3    3    0    0  0.11720359037E+03  0.86438500987E+03  0.44983686323E+02  0.87345386766E+03  0.00000000000E+00 0.  1.
        -13    1    3    3    0    0  0.23445614003E+02  0.14391559128E+03 -0.25939443794E+02  0.14810215722E+03  0.00000000000E+00 0. -1.
          4    1    6    6  502    0  0.50712384037E+02 -0.80929686493E+03 -0.33488097958E+03  0.87731318921E+03  0.00000000000E+00 0. -1.
          1    1    5    5  503    0 -0.16645725461E+03  0.78267723424E+01  0.13558199729E+03  0.21482959286E+03  0.00000000000E+00 0. -1.
         -2    1    5    5    0  503 -0.54684986922E+02  0.18128552279E+02 -0.39116904707E-01  0.57611576375E+02  0.00000000000E+00 0.  1.
         -3    1    6    6    0  502  0.29780653118E+02 -0.22495906084E+03 -0.52478396826E+02  0.23291081659E+03  0.00000000000E+00 0.  1.
<mgrwt>
<rscale>  0 0.23929264E+04</rscale>
<asrwt>0</asrwt>
<pdfrwt beam="1">  1        2 0.16703453E+00 0.23929264E+04</pdfrwt>
<pdfrwt beam="2">  1       -2 0.20284565E+00 0.23929264E+04</pdfrwt>
<totfact> 0.25485904E+00</totfact>
</mgrwt>
</event>
<event>
12    1  0.1980523E-007  0.1186925E+04  0.7818608E-02  0.9124378E-01
          1   -1    0    0  501    0  0.00000000000E+00  0.00000000000E+00  0.56028716370E+03  0.56028716370E+03  0.00000000000E+00 0. -1.
         -1   -1    0    0    0  501 -0.00000000000E+00 -0.00000000000E+00 -0.62860253970E+03  0.62860253970E+03  0.00000000000E+00 0.  1.
         23    2    1    2    0    0  0.10885248440E+03  0.58055049913E+02  0.18977062629E+03  0.24437787419E+03  0.92132527416E+02 0.  0.
        254    2    1    2    0    0 -0.10885248440E+03 -0.58055049913E+02 -0.25808600229E+03  0.94451182921E+03  0.90015274191E+03 0.  0.
        -24    2    4    4    0    0 -0.42828817503E+03  0.10900625449E+03 -0.34458918152E+03  0.56553359818E+03  0.75983039289E+02 0.  0.
         24    2    4    4    0    0  0.31943569063E+03 -0.16706130440E+03  0.86503179234E+02  0.37897823103E+03  0.78695995442E+02 0.  0.
         13    1    3    3    0    0 -0.63185676097E+01  0.92846420554E+01  0.71050228263E+02  0.71932355800E+02  0.00000000000E+00 0. -1.
        -13    1    3    3    0    0  0.11517105201E+03  0.48770407858E+02  0.11872039803E+03  0.17244551839E+03  0.00000000000E+00 0.  1.
          4    1    6    6  502    0  0.28115112364E+02 -0.15678719289E+02  0.33432135081E+02  0.46411091755E+02  0.00000000000E+00 0. -1.
          1    1    5    5  503    0 -0.19836978045E+03  0.60783347016E+02 -0.20802854697E+03  0.29380446121E+03  0.00000000000E+00 0. -1.
         -2    1    5    5    0  503 -0.22991839458E+03  0.48222907476E+02 -0.13656063455E+03  0.27172913698E+03  0.00000000000E+00 0.  1.
         -3    1    6    6    0  502  0.29132057827E+03 -0.15138258512E+03  0.53071044153E+02  0.33256713928E+03  0.00000000000E+00 0.  1.
<mgrwt>
<rscale>  0 0.11869253E+04</rscale>
<asrwt>0</asrwt>
<pdfrwt beam="1">  1        1 0.86198025E-01 0.11869253E+04</pdfrwt>
<pdfrwt beam="2">  1       -1 0.96708083E-01 0.11869253E+04</pdfrwt>
<totfact> 0.38521718E+01</totfact>
</mgrwt>
</event>
<event>
12    1  0.1980523E-007  0.3798171E+04  0.7818608E-02  0.8046548E-01
         -1   -1    0    0    0  501 -0.00000000000E+00  0.00000000000E+00  0.96980202999E+03  0.96980202999E+03  0.00000000000E+00 0.  1.
          1   -1    0    0  501    0  0.00000000000E+00 -0.00000000000E+00 -0.37188263141E+04  0.37188263141E+04  0.00000000000E+00 0. -1.
         23    2    1    2    0    0  0.12396104068E+04  0.96166851038E+03 -0.22883188197E+03  0.15880783217E+04  0.90490007225E+02 0.  0.
        254    2    1    2    0    0 -0.12396104068E+04 -0.96166851038E+03 -0.25201924022E+04  0.31005500224E+04  0.89476276906E+03 0.  0.
        -24    2    4    4    0    0 -0.77423316920E+02 -0.35600261766E+03 -0.17306597941E+03  0.41115783192E+03  0.79791576850E+02 0.  0.
         24    2    4    4    0    0 -0.11621870898E+04 -0.60566589272E+03 -0.23471264228E+04  0.26893921905E+04  0.79485245699E+02 0.  0.
         11    1    3    3    0    0  0.61125807492E+03  0.52244752821E+03 -0.14174934700E+03  0.81650519365E+03  0.00000000000E+00 0. -1.
        -11    1    3    3    0    0  0.62835233184E+03  0.43922098217E+03 -0.87082534973E+02  0.77157312809E+03  0.00000000000E+00 0.  1.
          2    1    6    6  502    0 -0.84079861464E+03 -0.41188805579E+03 -0.17304484781E+04  0.19674973993E+04  0.00000000000E+00 0. -1.
          3    1    5    5  503    0 -0.65059910321E+02 -0.19396103868E+03 -0.13222450950E+03  0.24359186638E+03  0.00000000000E+00 0. -1.
         -2    1    5    5    0  503 -0.12363406599E+02 -0.16204157898E+03 -0.40841469912E+02  0.16756596553E+03  0.00000000000E+00 0.  1.
         -1    1    6    6    0  502 -0.32138847520E+03 -0.19377783693E+03 -0.61667794471E+03  0.72189479120E+03  0.00000000000E+00 0.  1.
<mgrwt>
<rscale>  0 0.37981708E+04</rscale>
<asrwt>0</asrwt>
<pdfrwt beam="1">  1        1 0.57212712E+00 0.37981708E+04</pdfrwt>
<pdfrwt beam="2">  1       -1 0.14920031E+00 0.37981708E+04</pdfrwt>
<totfact> 0.46794733E-02</totfact>
</mgrwt>
</event>
<event>
12    1  0.1980523E-007  0.2150978E+04  0.7818608E-02  0.8539114E-01
          2   -1    0    0  501    0  0.00000000000E+00  0.00000000000E+00  0.78500539661E+03  0.78500539661E+03  0.00000000000E+00 0. -1.
         -2   -1    0    0    0  501 -0.00000000000E+00 -0.00000000000E+00 -0.14734625977E+04  0.14734625977E+04  0.00000000000E+00 0.  1.
         23    2    1    2    0    0 -0.50048570196E+03 -0.60675342437E+03 -0.70940559144E+03  0.10626721844E+04  0.85908221803E+02 0.  0.
        254    2    1    2    0    0  0.50048570196E+03  0.60675342437E+03  0.20948390367E+02  0.11957958099E+04  0.90047383524E+03 0.  0.
        -24    2    4    4    0    0 -0.24054065683E+03  0.25304021819E+03  0.86205372020E+02  0.36835383510E+03  0.79774820952E+02 0.  0.
         24    2    4    4    0    0  0.74102635879E+03  0.35371320618E+03 -0.65256981653E+02  0.82744197475E+03  0.78540761909E+02 0.  0.
         11    1    3    3    0    0 -0.37132484252E+03 -0.43786619384E+03 -0.56607259922E+03  0.80625500307E+03  0.00000000000E+00 0.  1.
        -11    1    3    3    0    0 -0.12916085944E+03 -0.16888723053E+03 -0.14333299222E+03  0.25641718138E+03  0.00000000000E+00 0. -1.
          4    1    6    6  502    0  0.59620641271E+03  0.25663408684E+03 -0.31512528646E+02  0.64985858503E+03  0.00000000000E+00 0. -1.
          1    1    5    5  503    0 -0.21784977025E+03  0.21816072898E+03  0.48300189403E+02  0.31206655438E+03  0.00000000000E+00 0. -1.
         -2    1    5    5    0  503 -0.22690886578E+02  0.34879489205E+02  0.37905182618E+02  0.56287280714E+02  0.00000000000E+00 0.  1.
         -3    1    6    6    0  502  0.14481994608E+03  0.97079119341E+02 -0.33744453007E+02  0.17758338972E+03  0.00000000000E+00 0.  1.
<mgrwt>
<rscale>  0 0.21509775E+04</rscale>
<asrwt>0</asrwt>
<pdfrwt beam="1">  1        2 0.12077006E+00 0.21509775E+04</pdfrwt>
<pdfrwt beam="2">  1       -2 0.22668655E+00 0.21509775E+04</pdfrwt>
<totfact> 0.29062441E+00</totfact>
</mgrwt>
</event>
<event>
12    1  0.1980523E-007  0.4428104E+04  0.7818608E-02  0.7923346E-01
         -2   -1    0    0    0  501 -0.00000000000E+00  0.00000000000E+00  0.15549944725E+04  0.15549944725E+04  0.00000000000E+00 0.  1.
          2   -1    0    0  501    0  0.00000000000E+00 -0.00000000000E+00 -0.31524395767E+04  0.31524395767E+04  0.00000000000E+00 0. -1.
         23    2    1    2    0    0  0.11271390786E+04  0.17899164485E+04 -0.94688484331E+03  0.23192470731E+04  0.89848117590E+02 0.  0.
        254    2    1    2    0    0 -0.11271390786E+04 -0.17899164485E+04 -0.65056026092E+03  0.23881869761E+04  0.89775552591E+03 0.  0.
        -24    2    4    4    0    0 -0.10180752691E+04 -0.18705799186E+04 -0.65945173099E+03  0.22308509496E+04  0.79201568501E+02 0.  0.
         24    2    4    4    0    0 -0.10906380955E+03  0.80663470051E+02  0.88914700713E+01  0.15733602648E+03  0.79208945430E+02 0.  0.
         11    1    3    3    0    0  0.13814551399E+03  0.26229363489E+03 -0.10970378238E+03  0.31609658936E+03  0.00000000000E+00 0.  1.
        -11    1    3    3    0    0  0.98899356466E+03  0.15276228136E+04 -0.83718106093E+03  0.20031504837E+04  0.00000000000E+00 0. -1.
          4    1    6    6  502    0 -0.71500339442E+02  0.38845331579E+01  0.35266736896E+01  0.71692576781E+02  0.00000000000E+00 0. -1.
          1    1    5    5  503    0 -0.16341048450E+03 -0.28442883901E+03 -0.13073951697E+03  0.35312260222E+03  0.00000000000E+00 0. -1.
         -2    1    5    5    0  503 -0.85466478460E+03 -0.15861510796E+04 -0.52871221401E+03  0.18777283474E+04  0.00000000000E+00 0.  1.
         -1    1    6    6    0  502 -0.37563470105E+02  0.76778936893E+02  0.53647963816E+01  0.85643449703E+02  0.00000000000E+00 0.  1.
<mgrwt>
<rscale>  0 0.44281039E+04</rscale>
<asrwt>0</asrwt>
<pdfrwt beam="1">  1        2 0.48499070E+00 0.44281039E+04</pdfrwt>
<pdfrwt beam="2">  1       -2 0.23922992E+00 0.44281039E+04</pdfrwt>
<totfact> 0.79407232E-02</totfact>
</mgrwt>
</event>
<event>
12    1  0.1980523E-007  0.2557547E+04  0.7818608E-02  0.8382766E-01
          1   -1    0    0  501    0  0.00000000000E+00  0.00000000000E+00  0.27007139126E+04  0.27007139126E+04  0.00000000000E+00 0. -1.
         -1   -1    0    0    0  501 -0.00000000000E+00 -0.00000000000E+00 -0.60549237436E+03  0.60549237436E+03  0.00000000000E+00 0.  1.
         23    2    1    2    0    0  0.92334605653E+03 -0.22398467610E+03  0.15423052389E+03  0.96651391339E+03  0.87321332146E+02 0.  0.
        254    2    1    2    0    0 -0.92334605653E+03  0.22398467610E+03  0.19409910143E+04  0.23396923735E+04  0.89664776243E+03 0.  0.
        -24    2    4    4    0    0  0.94665764795E+01  0.22772548141E+03  0.78375504480E+02  0.25504931431E+03  0.83420153878E+02 0.  0.
         24    2    4    4    0    0 -0.93281263301E+03 -0.37408053089E+01  0.18626155099E+04  0.20846430592E+04  0.79036352099E+02 0.  0.
         13    1    3    3    0    0  0.45330703076E+03 -0.13090425805E+03  0.11565165701E+03  0.48579676273E+03  0.00000000000E+00 0. -1.
        -13    1    3    3    0    0  0.47003902577E+03 -0.93080418052E+02  0.38578866883E+02  0.48071715066E+03  0.00000000000E+00 0.  1.
          4    1    6    6  502    0 -0.30881519299E+03 -0.36071730546E+02  0.58998021462E+03  0.66689178043E+03  0.00000000000E+00 0. -1.
          3    1    5    5  503    0  0.17551630234E+02  0.16014386395E+03  0.92164853538E+02  0.18560300944E+03  0.00000000000E+00 0. -1.
         -4    1    5    5    0  503 -0.80850537543E+01  0.67581617459E+02 -0.13789349058E+02  0.69446304870E+02  0.00000000000E+00 0.  1.
         -3    1    6    6    0  502 -0.62399744002E+03  0.32330925237E+02  0.12726352952E+04  0.14177512788E+04  0.00000000000E+00 0.  1.
<mgrwt>
<rscale>  0 0.25575470E+04</rscale>
<asrwt>0</asrwt>
<pdfrwt beam="1">  1        1 0.41549444E+00 0.25575470E+04</pdfrwt>
<pdfrwt beam="2">  1       -1 0.93152674E-01 0.25575470E+04</pdfrwt>
<totfact> 0.96927093E-01</totfact>
</mgrwt>
</event>
<event>
12    1  0.1980523E-007  0.1616077E+04  0.7818608E-02  0.8810732E-01
          1   -1    0    0  501    0  0.00000000000E+00  0.00000000000E+00  0.88240322208E+03  0.88240322208E+03  0.00000000000E+00 0. -1.
         -1   -1    0    0    0  501 -0.00000000000E+00 -0.00000000000E+00 -0.73994102442E+03  0.73994102442E+03  0.00000000000E+00 0.  1.
         23    2    1    2    0    0  0.41154148141E+03  0.22468500469E+03  0.34158444248E+03  0.58740822168E+03  0.92297049207E+02 0.  0.
        254    2    1    2    0    0 -0.41154148141E+03 -0.22468500469E+03 -0.19912224482E+03  0.10349360248E+04  0.90088465679E+03 0.  0.
        -24    2    4    4    0    0 -0.28565554272E+03  0.30060227303E+03  0.67410292613E+02  0.42736019370E+03  0.78305631806E+02 0.  0.
         24    2    4    4    0    0 -0.12588593869E+03 -0.52528727772E+03 -0.26653253744E+03  0.60757583113E+03  0.79591478000E+02 0.  0.
         11    1    3    3    0    0  0.29533443432E+03  0.11920579391E+03  0.25621494114E+03  0.40875242563E+03  0.00000000000E+00 0. -1.
        -11    1    3    3    0    0  0.11620704709E+03  0.10547921078E+03  0.85369501337E+02  0.17865579604E+03  0.00000000000E+00 0.  1.
          2    1    6    6  502    0 -0.57926631762E+02 -0.20599324639E+03 -0.14842800683E+03  0.26042193732E+03  0.00000000000E+00 0. -1.
          3    1    5    5  503    0 -0.16325770528E+03  0.16504810829E+03  0.76684509070E+02  0.24448818031E+03  0.00000000000E+00 0. -1.
         -4    1    5    5    0  503 -0.12239783744E+03  0.13555416474E+03 -0.92742164566E+01  0.18287201338E+03  0.00000000000E+00 0.  1.
         -1    1    6    6    0  502 -0.67959306932E+02 -0.31929403132E+03 -0.11810453061E+03  0.34715389381E+03  0.00000000000E+00 0.  1.
<mgrwt>
<rscale>  0 0.16160772E+04</rscale>
<asrwt>0</asrwt>
<pdfrwt beam="1">  1        1 0.13575434E+00 0.16160772E+04</pdfrwt>
<pdfrwt beam="2">  1       -1 0.11383708E+00 0.16160772E+04</pdfrwt>
<totfact> 0.12684731E+01</totfact>
</mgrwt>
</event>
<event>
12    1  0.1980523E-007  0.1668321E+04  0.7818608E-02  0.8779641E-01
         -2   -1    0    0    0  501 -0.00000000000E+00  0.00000000000E+00  0.61207847146E+03  0.61207847146E+03  0.00000000000E+00 0.  1.
          2   -1    0    0  501    0  0.00000000000E+00 -0.00000000000E+00 -0.11368217045E+04  0.11368217045E+04  0.00000000000E+00 0. -1.
         23    2    1    2    0    0  0.31641320392E+03  0.39385990187E+03  0.12650968638E+03  0.52808838839E+03  0.87348195670E+02 0.  0.
        254    2    1    2    0    0 -0.31641320392E+03 -0.39385990187E+03 -0.65125291943E+03  0.12208117876E+04  0.90055989124E+03 0.  0.
        -24    2    4    4    0    0 -0.58073877091E+03 -0.16363758299E+03 -0.19347936618E+03  0.63864713677E+03  0.80007009467E+02 0.  0.
         24    2    4    4    0    0  0.26432556699E+03 -0.23022231888E+03 -0.45777355324E+03  0.58216465081E+03  0.80552673001E+02 0.  0.
         11    1    3    3    0    0  0.31284623161E+03  0.39081928071E+03  0.11220116885E+03  0.51303175057E+03  0.00000000000E+00 0. -1.
        -11    1    3    3    0    0  0.35669723166E+01  0.30406211606E+01  0.14308517526E+02  0.15056637817E+02  0.00000000000E+00 0.  1.
          4    1    6    6  502    0  0.19154879837E+03 -0.12985424684E+03 -0.25375308058E+03  0.34342931366E+03  0.00000000000E+00 0. -1.
          1    1    5    5  503    0 -0.35311917800E+03 -0.10529193816E+03 -0.15831277793E+03  0.40105171957E+03  0.00000000000E+00 0. -1.
         -2    1    5    5    0  503 -0.22761959291E+03 -0.58345644826E+02 -0.35166588255E+02  0.23759541720E+03  0.00000000000E+00 0.  1.
         -3    1    6    6    0  502  0.72776768615E+02 -0.10036807204E+03 -0.20402047266E+03  0.23873533715E+03  0.00000000000E+00 0.  1.
<mgrwt>
<rscale>  0 0.16683214E+04</rscale>
<asrwt>0</asrwt>
<pdfrwt beam="1">  1        2 0.17489565E+00 0.16683214E+04</pdfrwt>
<pdfrwt beam="2">  1       -2 0.94165919E-01 0.16683214E+04</pdfrwt>
<totfact> 0.18772529E+01</totfact>
</mgrwt>
</event>
<event>
12    1  0.1980523E-007  0.1399968E+04  0.7818608E-02  0.8953842E-01
         -2   -1    0    0    0  501 -0.00000000000E+00  0.00000000000E+00  0.10762086655E+04  0.10762086655E+04  0.00000000000E+00 0. -1.
          2   -1    0    0  501    0  0.00000000000E+00 -0.00000000000E+00 -0.45528112746E+03  0.45528112746E+03  0.00000000000E+00 0.  1.
         23    2    1    2    0    0 -0.15415825547E+03 -0.34521786920E+03  0.30335006166E+02  0.39006575253E+03  0.91054564735E+02 0.  0.
        254    2    1    2    0    0  0.15415825547E+03  0.34521786920E+03  0.59059253184E+03  0.11414240404E+04  0.90061598719E+03 0.  0.
        -24    2    4    4    0    0  0.21428788851E+03  0.54006518145E+03  0.87537630984E+02  0.59292416430E+03  0.79413653699E+02 0.  0.
         24    2    4    4    0    0 -0.60129633035E+02 -0.19484731225E+03  0.50305490086E+03  0.54849987610E+03  0.78783455989E+02 0.  0.
         13    1    3    3    0    0  0.62535253725E+00 -0.73001578465E+02 -0.12295636655E+02  0.74032453727E+02  0.00000000000E+00 0.  1.
        -13    1    3    3    0    0 -0.15478360801E+03 -0.27221629073E+03  0.42630642821E+02  0.31603329881E+03  0.00000000000E+00 0. -1.
          4    1    6    6  502    0 -0.53751260439E+02 -0.11237836833E+03  0.38268171339E+03  0.40244675353E+03  0.00000000000E+00 0. -1.
          1    1    5    5  503    0  0.15760594773E+03  0.29298966429E+03  0.58130235934E+02  0.33773022144E+03  0.00000000000E+00 0. -1.
         -4    1    5    5    0  503  0.56681940776E+02  0.24707551716E+03  0.29407395049E+02  0.25519394286E+03  0.00000000000E+00 0.  1.
         -3    1    6    6    0  502 -0.63783725962E+01 -0.82468943920E+02  0.12037318747E+03  0.14605312256E+03  0.00000000000E+00 0.  1.
<mgrwt>
<rscale>  0 0.13999678E+04</rscale>
<asrwt>0</asrwt>
<pdfrwt beam="1">  1        2 0.70043251E-01 0.13999678E+04</pdfrwt>
<pdfrwt beam="2">  1       -2 0.16557056E+00 0.13999678E+04</pdfrwt>
<totfact> 0.15300066E+01</totfact>
</mgrwt>
</event>
<event>
12    1  0.1980523E-007  0.2408308E+04  0.7818608E-02  0.8436400E-01
          2   -1    0    0  501    0  0.00000000000E+00  0.00000000000E+00  0.12232714329E+04  0.12232714329E+04  0.00000000000E+00 0. -1.
         -2   -1    0    0    0  501 -0.00000000000E+00 -0.00000000000E+00 -0.11853348780E+04  0.11853348780E+04  0.00000000000E+00 0.  1.
         23    2    1    2    0    0 -0.53263539572E+03  0.55999649899E+03  0.70293876101E+03  0.10485191226E+04  0.89291125984E+02 0.  0.
        254    2    1    2    0    0  0.53263539572E+03 -0.55999649899E+03 -0.66500220611E+03  0.13600871883E+04  0.90017369539E+03 0.  0.
        -24    2    4    4    0    0  0.17222300373E+03 -0.49546648431E+03  0.69630466845E+02  0.53522944325E+03  0.80463376231E+02 0.  0.
         24    2    4    4    0    0  0.36041239199E+03 -0.64530014674E+02 -0.73463267296E+03  0.82485774501E+03  0.81510246192E+02 0.  0.
         13    1    3    3    0    0 -0.39311087510E+03  0.37251351486E+03  0.53024945445E+03  0.75793598860E+03  0.00000000000E+00 0.  1.
        -13    1    3    3    0    0 -0.13952452061E+03  0.18748298413E+03  0.17268930656E+03  0.29058313405E+03  0.00000000000E+00 0. -1.
          4    1    6    6  502    0  0.15267451947E+03 -0.68479705351E+02 -0.32919542263E+03  0.36928120074E+03  0.00000000000E+00 0. -1.
          1    1    5    5  503    0  0.60092355008E+02 -0.20031687782E+03  0.66594777365E+02  0.21948304500E+03  0.00000000000E+00 0. -1.
         -2    1    5    5    0  503  0.11213064872E+03 -0.29514960649E+03  0.30356894803E+01  0.31574639825E+03  0.00000000000E+00 0.  1.
         -3    1    6    6    0  502  0.20773787252E+03  0.39496906772E+01 -0.40543725032E+03  0.45557654427E+03  0.00000000000E+00 0.  1.
<mgrwt>
<rscale>  0 0.24083075E+04</rscale>
<asrwt>0</asrwt>
<pdfrwt beam="1">  1        2 0.18819560E+00 0.24083075E+04</pdfrwt>
<pdfrwt beam="2">  1       -2 0.18235921E+00 0.24083075E+04</pdfrwt>
<totfact> 0.28794123E+00</totfact>
</mgrwt>
</event>
<event>
12    1  0.1980523E-007  0.2475509E+04  0.7818608E-02  0.8411763E-01
         -1   -1    0    0    0  501 -0.00000000000E+00  0.00000000000E+00  0.10770087821E+04  0.10770087821E+04  0.00000000000E+00 0.  1.
          1   -1    0    0  501    0  0.00000000000E+00 -0.00000000000E+00 -0.14224916793E+04  0.14224916793E+04  0.00000000000E+00 0. -1.
         23    2    1    2    0    0 -0.89930717763E+03 -0.39933995238E+03  0.27723135472E+03  0.10260764576E+04  0.88033377133E+02 0.  0.
        254    2    1    2    0    0  0.89930717763E+03  0.39933995238E+03 -0.62271425185E+03  0.14734240038E+04  0.90276212712E+03 0.  0.
        -24    2    4    4    0    0  0.97335355957E+03  0.50379132487E+03 -0.69984566821E+03  0.13028611804E+04  0.80252384553E+02 0.  0.
         24    2    4    4    0    0 -0.74046381944E+02 -0.10445137249E+03  0.77131416359E+02  0.17056282335E+03  0.82155130249E+02 0.  0.
         13    1    3    3    0    0 -0.49262842645E+03 -0.20061049836E+03  0.19189022952E+03  0.56546370245E+03  0.00000000000E+00 0.  1.
        -13    1    3    3    0    0 -0.40667875117E+03 -0.19872945402E+03  0.85341125200E+02  0.46061275514E+03  0.00000000000E+00 0. -1.
          4    1    6    6  502    0 -0.28560203752E+02 -0.13779789176E+02 -0.13563536873E+02  0.34489670346E+02  0.00000000000E+00 0. -1.
          1    1    5    5  503    0  0.16102152397E+03  0.70067104433E+02 -0.81116643335E+02  0.19343536422E+03  0.00000000000E+00 0. -1.
         -2    1    5    5    0  503  0.81233203560E+03  0.43372422043E+03 -0.61872902488E+03  0.11094258162E+04  0.00000000000E+00 0.  1.
         -3    1    6    6    0  502 -0.45486178192E+02 -0.90671583312E+02  0.90694953232E+02  0.13607315300E+03  0.00000000000E+00 0.  1.
<mgrwt>
<rscale>  0 0.24755089E+04</rscale>
<asrwt>0</asrwt>
<pdfrwt beam="1">  1        1 0.21884487E+00 0.24755089E+04</pdfrwt>
<pdfrwt beam="2">  1       -1 0.16569366E+00 0.24755089E+04</pdfrwt>
<totfact> 0.17467369E+00</totfact>
</mgrwt>
</event>
<event>
12    1  0.1980523E-007  0.1480931E+04  0.7818608E-02  0.8897233E-01
         -1   -1    0    0    0  501 -0.00000000000E+00  0.00000000000E+00  0.16212180125E+04  0.16212180125E+04  0.00000000000E+00 0.  1.
          1   -1    0    0  501    0  0.00000000000E+00 -0.00000000000E+00 -0.33819603428E+03  0.33819603428E+03  0.00000000000E+00 0. -1.
         23    2    1    2    0    0 -0.20611642955E+03 -0.31867188050E+03  0.75592001020E+03  0.85067950929E+03  0.90580438000E+02 0.  0.
        254    2    1    2    0    0  0.20611642955E+03  0.31867188050E+03  0.52710196801E+03  0.11087345375E+04  0.89856554574E+03 0.  0.
        -24    2    4    4    0    0  0.16524830600E+03 -0.27164819754E+03  0.36479129436E+03  0.49032935162E+03  0.79059716411E+02 0.  0.
         24    2    4    4    0    0  0.40868123550E+02  0.59032007804E+03  0.16231067366E+03  0.61840518587E+03  0.77020913160E+02 0.  0.
         13    1    3    3    0    0 -0.47387616642E+02 -0.87368652126E+02  0.12128855426E+03  0.15681129098E+03  0.00000000000E+00 0. -1.
        -13    1    3    3    0    0 -0.15872881291E+03 -0.23130322837E+03  0.63463145595E+03  0.69386821831E+03  0.00000000000E+00 0.  1.
          4    1    6    6  502    0 -0.17616490046E+02  0.23978879602E+03  0.82322755134E+02  0.25413784336E+03  0.00000000000E+00 0. -1.
          3    1    5    5  503    0  0.23277943169E+02 -0.54368097973E+02  0.28851389413E+02  0.65803916194E+02  0.00000000000E+00 0. -1.
         -4    1    5    5    0  503  0.14197036283E+03 -0.21728009957E+03  0.33593990494E+03  0.42452543543E+03  0.00000000000E+00 0.  1.
         -3    1    6    6    0  502  0.58484613596E+02  0.35053128203E+03  0.79987918521E+02  0.36426734251E+03  0.00000000000E+00 0.  1.
<mgrwt>
<rscale>  0 0.14809315E+04</rscale>
<asrwt>0</asrwt>
<pdfrwt beam="1">  1        1 0.52030160E-01 0.14809315E+04</pdfrwt>
<pdfrwt beam="2">  1       -1 0.24941815E+00 0.14809315E+04</pdfrwt>
<totfact> 0.51092042E+00</totfact>
</mgrwt>
</event>
<event>
12    1  0.1980523E-007  0.3053174E+04  0.7818608E-02  0.8228708E-01
         -2   -1    0    0    0  501 -0.00000000000E+00  0.00000000000E+00  0.11942104500E+04  0.11942104500E+04  0.00000000000E+00 0.  1.
          2   -1    0    0  501    0  0.00000000000E+00 -0.00000000000E+00 -0.19514714665E+04  0.19514714665E+04  0.00000000000E+00 0. -1.
         23    2    1    2    0    0 -0.19331910809E+03 -0.99962737139E+03 -0.13256153972E+04  0.16739224201E+04  0.90182748394E+02 0.  0.
        254    2    1    2    0    0  0.19331910809E+03  0.99962737139E+03  0.56835438073E+03  0.14717594964E+04  0.89801010787E+03 0.  0.
        -24    2    4    4    0    0  0.43925286173E+03  0.10043024513E+04  0.44742075223E+03  0.11866535438E+04  0.79967575691E+02 0.  0.
         24    2    4    4    0    0 -0.24593375364E+03 -0.46750798997E+01  0.12093362850E+03  0.28510595261E+03  0.78455045482E+02 0.  0.
         13    1    3    3    0    0 -0.11736976528E+03 -0.49065884489E+03 -0.59188679916E+03  0.77772215276E+03  0.00000000000E+00 0.  1.
        -13    1    3    3    0    0 -0.75949342816E+02 -0.50896852650E+03 -0.73372859806E+03  0.89620026738E+03  0.00000000000E+00 0. -1.
          2    1    6    6  502    0 -0.23751990361E+03  0.13433895465E+02  0.11524252687E+03  0.26434260753E+03  0.00000000000E+00 0. -1.
          3    1    5    5  503    0  0.35573597657E+03  0.78798984940E+03  0.31863684224E+03  0.92141495810E+03  0.00000000000E+00 0. -1.
         -4    1    5    5    0  503  0.83516885157E+02  0.21631260189E+03  0.12878390999E+03  0.26523858565E+03  0.00000000000E+00 0.  1.
         -1    1    6    6    0  502 -0.84138500307E+01 -0.18108975365E+02  0.56911016253E+01  0.20763345078E+02  0.00000000000E+00 0.  1.
<mgrwt>
<rscale>  0 0.30531738E+04</rscale>
<asrwt>0</asrwt>
<pdfrwt beam="1">  1        2 0.30022638E+00 0.30531738E+04</pdfrwt>
<pdfrwt beam="2">  1       -2 0.18372468E+00 0.30531738E+04</pdfrwt>
<totfact> 0.10359238E+00</totfact>
</mgrwt>
</event>
<event>
12    1  0.1980523E-007  0.1408647E+04  0.7818608E-02  0.8947583E-01
          2   -1    0    0  501    0  0.00000000000E+00  0.00000000000E+00  0.21518183352E+04  0.21518183352E+04  0.00000000000E+00 0. -1.
         -2   -1    0    0    0  501 -0.00000000000E+00 -0.00000000000E+00 -0.23053594666E+03  0.23053594666E+03  0.00000000000E+00 0.  1.
         23    2    1    2    0    0  0.18440159459E+03  0.29495736762E+03  0.20739429749E+03  0.41543600072E+03  0.92579043326E+02 0.  0.
        254    2    1    2    0    0 -0.18440159459E+03 -0.29495736762E+03  0.17138880910E+04  0.19669182811E+04  0.90019516729E+03 0.  0.
        -24    2    4    4    0    0 -0.58898774542E+02 -0.48487305516E+03  0.41221282877E+03  0.64310125833E+03  0.71336295173E+02 0.  0.
         24    2    4    4    0    0 -0.12550282005E+03  0.18991568754E+03  0.13016752622E+04  0.13238170228E+04  0.79461281285E+02 0.  0.
         11    1    3    3    0    0  0.13782110361E+03  0.26837278073E+03  0.19832403449E+03  0.36104158859E+03  0.00000000000E+00 0. -1.
        -11    1    3    3    0    0  0.46580490980E+02  0.26584586886E+02  0.90702630062E+01  0.54394412129E+02  0.00000000000E+00 0.  1.
          2    1    6    6  502    0 -0.73852487383E+01  0.63707505331E+02  0.25367836222E+03  0.26165989298E+03  0.00000000000E+00 0. -1.
          3    1    5    5  503    0 -0.39911404049E+02 -0.40650485362E+03  0.37420468275E+03  0.55395691239E+03  0.00000000000E+00 0. -1.
         -4    1    5    5    0  503 -0.18987370494E+02 -0.78368201535E+02  0.38008146017E+02  0.89144345943E+02  0.00000000000E+00 0.  1.
         -1    1    6    6    0  502 -0.11811757131E+03  0.12620818221E+03  0.10479969000E+04  0.10621571298E+04  0.00000000000E+00 0.  1.
<mgrwt>
<rscale>  0 0.14086468E+04</rscale>
<asrwt>0</asrwt>
<pdfrwt beam="1">  1        2 0.33104896E+00 0.14086468E+04</pdfrwt>
<pdfrwt beam="2">  1       -2 0.35467070E-01 0.14086468E+04</pdfrwt>
<totfact> 0.39976267E+01</totfact>
</mgrwt>
</event>
<event>
12    1  0.1980523E-007  0.1579702E+04  0.7818608E-02  0.8833115E-01
         -1   -1    0    0    0  501 -0.00000000000E+00  0.00000000000E+00  0.46570209665E+03  0.46570209665E+03  0.00000000000E+00 0.  1.
          1   -1    0    0  501    0  0.00000000000E+00 -0.00000000000E+00 -0.13396223787E+04  0.13396223787E+04  0.00000000000E+00 0. -1.
         23    2    1    2    0    0  0.23876770206E+03  0.33772281619E+03  0.79254885853E+02  0.43089509942E+03  0.91227921457E+02 0.  0.
        254    2    1    2    0    0 -0.23876770206E+03 -0.33772281619E+03 -0.95317516795E+03  0.13744293760E+04  0.89969244335E+03 0.  0.
        -24    2    4    4    0    0  0.20536297573E+03 -0.22699377505E+03 -0.83814357485E+03  0.89518590947E+03  0.71923812061E+02 0.  0.
         24    2    4    4    0    0 -0.44413067779E+03 -0.11072904114E+03 -0.11503159310E+03  0.47924346650E+03  0.83240935063E+02 0.  0.
         13    1    3    3    0    0  0.45999889065E+01  0.59881503186E+02  0.14926301757E+02  0.61884964296E+02  0.00000000000E+00 0. -1.
        -13    1    3    3    0    0  0.23416771315E+03  0.27784131301E+03  0.64328584096E+02  0.36901013513E+03  0.00000000000E+00 0.  1.
          2    1    6    6  502    0 -0.16274216580E+03 -0.42724514658E+02 -0.84105909963E+02  0.18810688657E+03  0.00000000000E+00 0. -1.
          1    1    5    5  503    0  0.19578306920E+03 -0.20752239210E+03 -0.70930547799E+03  0.76453306960E+03  0.00000000000E+00 0. -1.
         -2    1    5    5    0  503  0.95799065242E+01 -0.19471382949E+02 -0.12883809686E+03  0.13065283987E+03  0.00000000000E+00 0.  1.
         -1    1    6    6    0  502 -0.28138851198E+03 -0.68004526485E+02 -0.30925683133E+02  0.29113657993E+03  0.00000000000E+00 0.  1.
<mgrwt>
<rscale>  0 0.15797024E+04</rscale>
<asrwt>0</asrwt>
<pdfrwt beam="1">  1        1 0.20609575E+00 0.15797024E+04</pdfrwt>
<pdfrwt beam="2">  1       -1 0.71646477E-01 0.15797024E+04</pdfrwt>
<totfact> 0.16020667E+01</totfact>
</mgrwt>
</event>
<event>
12    1  0.1980523E-007  0.3850424E+04  0.7818608E-02  0.8035420E-01
         -1   -1    0    0    0  501 -0.00000000000E+00  0.00000000000E+00  0.17953094874E+04  0.17953094874E+04  0.00000000000E+00 0.  1.
          1   -1    0    0  501    0  0.00000000000E+00 -0.00000000000E+00 -0.20645134669E+04  0.20645134669E+04  0.00000000000E+00 0. -1.
         23    2    1    2    0    0 -0.19975821787E+03 -0.18074410373E+04 -0.70402377943E+02  0.18211462876E+04  0.69791526456E+02 0.  0.
        254    2    1    2    0    0  0.19975821787E+03  0.18074410373E+04 -0.19880160160E+03  0.20386766667E+04  0.89996334671E+03 0.  0.
        -24    2    4    4    0    0  0.36051556701E+03  0.29025494384E+03 -0.19791709728E+03  0.51102230265E+03  0.88052313604E+02 0.  0.
         24    2    4    4    0    0 -0.16075734914E+03  0.15171860935E+04 -0.88450432034E+00  0.15276543640E+04  0.77656332631E+02 0.  0.
         13    1    3    3    0    0 -0.42977226897E+02 -0.69754368614E+03 -0.28559714761E+02  0.69944970756E+03  0.00000000000E+00 0. -1.
        -13    1    3    3    0    0 -0.15678099097E+03 -0.11098973512E+04 -0.41842663182E+02  0.11216965801E+04  0.00000000000E+00 0.  1.
          2    1    6    6  502    0 -0.98505381583E+02  0.11506420638E+04  0.23182390272E+02  0.11550835002E+04  0.00000000000E+00 0. -1.
          3    1    5    5  503    0  0.33361659818E+03  0.26268450387E+03 -0.15181015798E+03  0.45094290905E+03  0.00000000000E+00 0. -1.
         -4    1    5    5    0  503  0.26898968832E+02  0.27570439973E+02 -0.46106939300E+02  0.60079393606E+02  0.00000000000E+00 0.  1.
         -1    1    6    6    0  502 -0.62251967558E+02  0.36654402970E+03 -0.24066894592E+02  0.37257086385E+03  0.00000000000E+00 0.  1.
<mgrwt>
<rscale>  0 0.38504237E+04</rscale>
<asrwt>0</asrwt>
<pdfrwt beam="1">  1        1 0.31761746E+00 0.38504237E+04</pdfrwt>
<pdfrwt beam="2">  1       -1 0.27620146E+00 0.38504237E+04</pdfrwt>
<totfact> 0.10054446E-01</totfact>
</mgrwt>
</event>
<event>
12    1  0.1980523E-007  0.3370964E+04  0.7818608E-02  0.8145070E-01
          1   -1    0    0  501    0  0.00000000000E+00  0.00000000000E+00  0.18823461469E+04  0.18823461469E+04  0.00000000000E+00 0. -1.
         -1   -1    0    0    0  501 -0.00000000000E+00 -0.00000000000E+00 -0.15092071713E+04  0.15092071713E+04  0.00000000000E+00 0.  1.
         23    2    1    2    0    0  0.13830803733E+04 -0.11343793446E+03  0.89931126050E+03  0.16558713307E+04  0.85846586949E+02 0.  0.
        254    2    1    2    0    0 -0.13830803733E+04  0.11343793446E+03 -0.52617228494E+03  0.17356819875E+04  0.89997511301E+03 0.  0.
        -24    2    4    4    0    0 -0.16073150338E+03  0.31989785875E+03  0.42637893803E+02  0.36941989240E+03  0.80522113106E+02 0.  0.
         24    2    4    4    0    0 -0.12223488700E+04 -0.20645992428E+03 -0.56881017874E+03  0.13662620951E+04  0.79778648295E+02 0.  0.
         11    1    3    3    0    0  0.11058791369E+04 -0.58605855010E+02  0.73180808626E+03  0.13273832856E+04  0.00000000000E+00 0. -1.
        -11    1    3    3    0    0  0.27720123643E+03 -0.54832079453E+02  0.16750317424E+03  0.32848804514E+03  0.00000000000E+00 0.  1.
          2    1    6    6  502    0 -0.67940845711E+03 -0.15426806236E+03 -0.32677100495E+03  0.76952828169E+03  0.00000000000E+00 0. -1.
          1    1    5    5  503    0 -0.15950659121E+03  0.31422530755E+03  0.54149907776E+02  0.35652785173E+03  0.00000000000E+00 0. -1.
         -2    1    5    5    0  503 -0.12249121707E+01  0.56725511977E+01 -0.11512013972E+02  0.12892040669E+02  0.00000000000E+00 0.  1.
         -1    1    6    6    0  502 -0.54294041286E+03 -0.52191861922E+02 -0.24203917379E+03  0.59673381337E+03  0.00000000000E+00 0.  1.
<mgrwt>
<rscale>  0 0.33709644E+04</rscale>
<asrwt>0</asrwt>
<pdfrwt beam="1">  1        1 0.28959171E+00 0.33709644E+04</pdfrwt>
<pdfrwt beam="2">  1       -1 0.23218572E+00 0.33709644E+04</pdfrwt>
<totfact> 0.26967917E-01</totfact>
</mgrwt>
</event>
<event>
12    1  0.1980523E-007  0.1487711E+04  0.7818608E-02  0.8892667E-01
         -2   -1    0    0    0  501 -0.00000000000E+00  0.00000000000E+00  0.44138115565E+03  0.44138115565E+03  0.00000000000E+00 0.  1.
          2   -1    0    0  501    0  0.00000000000E+00 -0.00000000000E+00 -0.12536121881E+04  0.12536121881E+04  0.00000000000E+00 0. -1.
         23    2    1    2    0    0 -0.37386026472E+03 -0.15997417660E+03  0.43725638793E+01  0.41731792616E+03  0.93658408405E+02 0.  0.
        254    2    1    2    0    0  0.37386026472E+03  0.15997417660E+03 -0.81660359637E+03  0.12776754176E+04  0.89456682506E+03 0.  0.
        -24    2    4    4    0    0  0.25095823808E+03  0.46501796169E+03 -0.19126132196E+03  0.56753386992E+03  0.79322495400E+02 0.  0.
         24    2    4    4    0    0  0.12290202664E+03 -0.30504378509E+03 -0.62534227441E+03  0.71014154771E+03  0.71354317661E+02 0.  0.
         13    1    3    3    0    0 -0.16384122113E+03 -0.11752192733E+03 -0.14929265428E+02  0.20218365936E+03  0.00000000000E+00 0. -1.
        -13    1    3    3    0    0 -0.21001904358E+03 -0.42452249268E+02  0.19301829307E+02  0.21513426680E+03  0.00000000000E+00 0.  1.
          4    1    6    6  502    0  0.10625521283E+03 -0.24816995219E+03 -0.44682183737E+03  0.52204238312E+03  0.00000000000E+00 0. -1.
          1    1    5    5  503    0  0.15737584018E+03  0.24651558167E+03 -0.14054546203E+03  0.32448438172E+03  0.00000000000E+00 0. -1.
         -2    1    5    5    0  503  0.93582397896E+02  0.21850238001E+03 -0.50715859936E+02  0.24304948821E+03  0.00000000000E+00 0.  1.
         -3    1    6    6    0  502  0.16646813808E+02 -0.56873832895E+02 -0.17852043704E+03  0.18809916459E+03  0.00000000000E+00 0.  1.
<mgrwt>
<rscale>  0 0.14877107E+04</rscale>
<asrwt>0</asrwt>
<pdfrwt beam="1">  1        2 0.19286341E+00 0.14877107E+04</pdfrwt>
<pdfrwt beam="2">  1       -2 0.67904794E-01 0.14877107E+04</pdfrwt>
<totfact> 0.33809719E+01</totfact>
</mgrwt>
</event>
<event>
12    1  0.1980523E-007  0.2948582E+04  0.7818608E-02  0.8258568E-01
          2   -1    0    0  501    0  0.00000000000E+00  0.00000000000E+00  0.33235890647E+04  0.33235890647E+04  0.00000000000E+00 0. -1.
         -2   -1    0    0    0  501 -0.00000000000E+00 -0.00000000000E+00 -0.65397194589E+03  0.65397194589E+03  0.00000000000E+00 0.  1.
         23    2    1    2    0    0 -0.18970957761E+03 -0.11198651862E+04  0.21556842015E+04  0.24382994470E+04  0.90785777426E+02 0.  0.
        254    2    1    2    0    0  0.18970957761E+03  0.11198651862E+04  0.51393291729E+03  0.15392615636E+04  0.90283517793E+03 0.  0.
        -24    2    4    4    0    0  0.30206810004E+03  0.12329001420E+04  0.44000636254E+03  0.13457901121E+04  0.79104549209E+02 0.  0.
         24    2    4    4    0    0 -0.11235852243E+03 -0.11303495573E+03  0.73926554747E+02  0.19347145147E+03  0.81023010663E+02 0.  0.
         13    1    3    3    0    0 -0.84773657719E+02 -0.69327581198E+03  0.13873673979E+04  0.15532566502E+04  0.00000000000E+00 0. -1.
        -13    1    3    3    0    0 -0.10493591989E+03 -0.42658937424E+03  0.76831680364E+03  0.88504279685E+03  0.00000000000E+00 0.  1.
          4    1    6    6  502    0  0.12498511845E+02 -0.42930745381E+01  0.57747255879E+01  0.14421884167E+02  0.00000000000E+00 0. -1.
          3    1    5    5  503    0  0.57424789365E+02  0.14364224325E+03  0.68754237238E+02  0.16928628302E+03  0.00000000000E+00 0. -1.
         -4    1    5    5    0  503  0.24464331067E+03  0.10892578987E+04  0.37125212531E+03  0.11765038291E+04  0.00000000000E+00 0.  1.
         -3    1    6    6    0  502 -0.12485703427E+03 -0.10874188119E+03  0.68151829159E+02  0.17904956730E+03  0.00000000000E+00 0.  1.
<mgrwt>
<rscale>  0 0.29485820E+04</rscale>
<asrwt>0</asrwt>
<pdfrwt beam="1">  1        2 0.51132138E+00 0.29485820E+04</pdfrwt>
<pdfrwt beam="2">  1       -2 0.10061107E+00 0.29485820E+04</pdfrwt>
<totfact> 0.75120154E-01</totfact>
</mgrwt>
</event>
<event>
12    1  0.1980523E-007  0.1879685E+04  0.7818608E-02  0.8665035E-01
          1   -1    0    0  501    0  0.00000000000E+00  0.00000000000E+00  0.14010583068E+04  0.14010583068E+04  0.00000000000E+00 0. -1.
         -1   -1    0    0    0  501 -0.00000000000E+00 -0.00000000000E+00 -0.63045480682E+03  0.63045480682E+03  0.00000000000E+00 0.  1.
         23    2    1    2    0    0 -0.63235720751E+03  0.29667080121E+03  0.49067886956E+03  0.85842002336E+03  0.90719244333E+02 0.  0.
        254    2    1    2    0    0  0.63235720751E+03 -0.29667080121E+03  0.27992463046E+03  0.11730930903E+04  0.89994466363E+03 0.  0.
        -24    2    4    4    0    0 -0.21395288672E+03  0.23577050713E+02  0.79637383582E+02  0.24282172596E+03  0.79300458245E+02 0.  0.
         24    2    4    4    0    0  0.84631009423E+03 -0.32024785193E+03  0.20028724688E+03  0.93027136434E+03  0.80562818931E+02 0.  0.
         11    1    3    3    0    0 -0.40232936985E+03  0.15547504008E+03  0.34063543397E+03  0.54961250787E+03  0.00000000000E+00 0. -1.
        -11    1    3    3    0    0 -0.23002783766E+03  0.14119576113E+03  0.15004343560E+03  0.30880751549E+03  0.00000000000E+00 0.  1.
          2    1    6    6  502    0  0.23419226853E+03 -0.12436267399E+03  0.73843862850E+02  0.27525444484E+03  0.00000000000E+00 0. -1.
          3    1    5    5  503    0 -0.12863438007E+03  0.48770154144E+02  0.29468541018E+02  0.14069017941E+03  0.00000000000E+00 0. -1.
         -2    1    5    5    0  503 -0.85318506652E+02 -0.25193103431E+02  0.50168842564E+02  0.10213154656E+03  0.00000000000E+00 0.  1.
         -3    1    6    6    0  502  0.61211782570E+03 -0.19588517793E+03  0.12644338403E+03  0.65501691950E+03  0.00000000000E+00 0.  1.
<mgrwt>
<rscale>  0 0.18796850E+04</rscale>
<asrwt>0</asrwt>
<pdfrwt beam="1">  1        1 0.21554743E+00 0.18796850E+04</pdfrwt>
<pdfrwt beam="2">  1       -1 0.96993048E-01 0.18796850E+04</pdfrwt>
<totfact> 0.73445857E+00</totfact>
</mgrwt>
</event>
<event>
12    1  0.1980523E-007  0.2510285E+04  0.7818608E-02  0.8399331E-01
          2   -1    0    0  501    0  0.00000000000E+00  0.00000000000E+00  0.13185843968E+04  0.13185843968E+04  0.00000000000E+00 0. -1.
         -2   -1    0    0    0  501 -0.00000000000E+00 -0.00000000000E+00 -0.11947527616E+04  0.11947527616E+04  0.00000000000E+00 0.  1.
         23    2    1    2    0    0 -0.71550676947E+03  0.39453754531E+03 -0.67132453638E+03  0.10614512016E+04  0.91608997197E+02 0.  0.
        254    2    1    2    0    0  0.71550676947E+03 -0.39453754531E+03  0.79515617156E+03  0.14518859569E+04  0.89893808623E+03 0.  0.
        -24    2    4    4    0    0  0.36374481913E+03 -0.38292664665E+03 -0.45661252269E+02  0.53687579353E+03  0.84897335448E+02 0.  0.
         24    2    4    4    0    0  0.35176195034E+03 -0.11610898660E+02  0.84081742383E+03  0.91501016337E+03  0.79989850486E+02 0.  0.
         13    1    3    3    0    0 -0.59904349871E+03  0.32065640143E+03 -0.51233713102E+03  0.85097765949E+03  0.00000000000E+00 0. -1.
        -13    1    3    3    0    0 -0.11646327076E+03  0.73881143884E+02 -0.15898740535E+03  0.21047354209E+03  0.00000000000E+00 0.  1.
          4    1    6    6  502    0  0.27069048605E+03 -0.41377908602E+02  0.61346981725E+03  0.67181149680E+03  0.00000000000E+00 0. -1.
          3    1    5    5  503    0  0.36798011403E+03 -0.38134416157E+03 -0.47353920131E+02  0.53204805012E+03  0.00000000000E+00 0. -1.
         -4    1    5    5    0  503 -0.42352949035E+01 -0.15824850770E+01  0.16926678624E+01  0.48277434098E+01  0.00000000000E+00 0.  1.
         -3    1    6    6    0  502  0.81071464284E+02  0.29767009942E+02  0.22734760658E+03  0.24319866657E+03  0.00000000000E+00 0.  1.
<mgrwt>
<rscale>  0 0.25102847E+04</rscale>
<asrwt>0</asrwt>
<pdfrwt beam="1">  1        2 0.20285914E+00 0.25102847E+04</pdfrwt>
<pdfrwt beam="2">  1       -2 0.18380812E+00 0.25102847E+04</pdfrwt>
<totfact> 0.24531880E+00</totfact>
</mgrwt>
</event>
<event>
12    1  0.1980523E-007  0.1208096E+04  0.7818608E-02  0.9105799E-01
          2   -1    0    0  501    0  0.00000000000E+00  0.00000000000E+00  0.15363772159E+04  0.15363772159E+04  0.00000000000E+00 0.  1.
         -2   -1    0    0    0  501 -0.00000000000E+00 -0.00000000000E+00 -0.23748999371E+03  0.23748999371E+03  0.00000000000E+00 0. -1.
         23    2    1    2    0    0  0.14643688615E+03  0.15396052676E+03  0.76653641485E+02  0.24373660714E+03  0.91564990493E+02 0.  0.
        254    2    1    2    0    0 -0.14643688615E+03 -0.15396052676E+03  0.12222335807E+04  0.15301306024E+04  0.89571040484E+03 0.  0.
        -24    2    4    4    0    0  0.34806734070E+03 -0.12718197783E+02  0.73459149052E+03  0.81676851031E+03  0.78571720574E+02 0.  0.
         24    2    4    4    0    0 -0.49450422685E+03 -0.14124232898E+03  0.48764209017E+03  0.71336209213E+03  0.81282473637E+02 0.  0.
         13    1    3    3    0    0  0.67850912257E+02  0.11647063430E+03  0.79737419212E+02  0.15661165656E+03  0.00000000000E+00 0.  1.
        -13    1    3    3    0    0  0.78585973890E+02  0.37489892464E+02 -0.30837777269E+01  0.87124950584E+02  0.00000000000E+00 0. -1.
          4    1    6    6  502    0 -0.47609654907E+03 -0.15047726211E+03  0.46010393025E+03  0.67897493111E+03  0.00000000000E+00 0. -1.
          3    1    5    5  503    0  0.32406854620E+03  0.65012985739E+01  0.64163092084E+03  0.71885529010E+03  0.00000000000E+00 0. -1.
         -4    1    5    5    0  503  0.23998794497E+02 -0.19219496357E+02  0.92960569682E+02  0.97913220216E+02  0.00000000000E+00 0.  1.
         -3    1    6    6    0  502 -0.18407677779E+02  0.92349331325E+01  0.27538159927E+02  0.34387161024E+02  0.00000000000E+00 0.  1.
<mgrwt>
<rscale>  0 0.12080964E+04</rscale>
<asrwt>0</asrwt>
<pdfrwt beam="1">  1        2 0.23636572E+00 0.12080964E+04</pdfrwt>
<pdfrwt beam="2">  1       -2 0.36536923E-01 0.12080964E+04</pdfrwt>
<totfact> 0.84181011E+01</totfact>
</mgrwt>
</event>
<event>
12    1  0.1980523E-007  0.1875623E+04  0.7818608E-02  0.8667087E-01
          1   -1    0    0  501    0  0.00000000000E+00  0.00000000000E+00  0.22590107324E+04  0.22590107324E+04  0.00000000000E+00 0. -1.
         -1   -1    0    0    0  501 -0.00000000000E+00 -0.00000000000E+00 -0.38932533855E+03  0.38932533855E+03  0.00000000000E+00 0.  1.
         23    2    1    2    0    0  0.29401184639E+03 -0.23804325759E+03  0.15831160508E+04  0.16302809273E+04  0.91934287277E+02 0.  0.
        254    2    1    2    0    0 -0.29401184639E+03  0.23804325759E+03  0.28656934301E+03  0.10180551437E+04  0.90067015542E+03 0.  0.
        -24    2    4    4    0    0 -0.22591250894E+03  0.40849969506E+02  0.59206813529E+03  0.64002919535E+03  0.79921914207E+02 0.  0.
         24    2    4    4    0    0 -0.68099337441E+02  0.19719328809E+03 -0.30549879228E+03  0.37802594830E+03  0.77790699211E+02 0.  0.
         11    1    3    3    0    0  0.27579259815E+03 -0.22685389342E+03  0.15518201651E+04  0.15923787460E+04  0.00000000000E+00 0. -1.
        -11    1    3    3    0    0  0.18219248232E+02 -0.11189364176E+02  0.31295885747E+02  0.37902181223E+02  0.00000000000E+00 0.  1.
          2    1    6    6  502    0 -0.77413010665E+02  0.16188592228E+03 -0.28312681889E+03  0.33520235922E+03  0.00000000000E+00 0. -1.
          3    1    5    5  503    0 -0.18768215767E+03  0.57260247067E+02  0.42914246227E+03  0.47187559920E+03  0.00000000000E+00 0. -1.
         -4    1    5    5    0  503 -0.38230351276E+02 -0.16410277561E+02  0.16292567302E+03  0.16815359614E+03  0.00000000000E+00 0.  1.
         -1    1    6    6    0  502  0.93136732237E+01  0.35307365803E+02 -0.22371973391E+02  0.42823589086E+02  0.00000000000E+00 0.  1.
<mgrwt>
<rscale>  0 0.18756227E+04</rscale>
<asrwt>0</asrwt>
<pdfrwt beam="1">  1        1 0.34754010E+00 0.18756227E+04</pdfrwt>
<pdfrwt beam="2">  1       -1 0.59896207E-01 0.18756227E+04</pdfrwt>
<totfact> 0.52625718E+00</totfact>
</mgrwt>
</event>
<event>
12    1  0.1980523E-007  0.1883678E+04  0.7818608E-02  0.8663024E-01
         -2   -1    0    0    0  501 -0.00000000000E+00  0.00000000000E+00  0.31168092266E+03  0.31168092266E+03  0.00000000000E+00 0.  1.
          2   -1    0    0  501    0  0.00000000000E+00 -0.00000000000E+00 -0.28460539578E+04  0.28460539578E+04  0.00000000000E+00 0. -1.
         23    2    1    2    0    0  0.68117926614E+03  0.18126207629E+03 -0.12495291903E+04  0.14374812075E+04  0.90376388415E+02 0.  0.
        254    2    1    2    0    0 -0.68117926614E+03 -0.18126207629E+03 -0.12848438448E+04  0.17202536729E+04  0.90088171294E+03 0.  0.
        -24    2    4    4    0    0 -0.70188507603E+03  0.21555711660E+03 -0.84289515649E+03  0.11205775394E+04  0.78193647740E+02 0.  0.
         24    2    4    4    0    0  0.20705809890E+02 -0.39681919289E+03 -0.44194868831E+03  0.59967613349E+03  0.79991371813E+02 0.  0.
         13    1    3    3    0    0  0.27933234479E+03  0.30929129453E+02 -0.46665028826E+03  0.54474366580E+03  0.00000000000E+00 0. -1.
        -13    1    3    3    0    0  0.40184692136E+03  0.15033294684E+03 -0.78287890205E+03  0.89273754171E+03  0.00000000000E+00 0.  1.
          4    1    6    6  502    0  0.30553295647E+02 -0.38534055576E+03 -0.40554948781E+03  0.56025997077E+03  0.00000000000E+00 0. -1.
          3    1    5    5  503    0 -0.36015700862E+03  0.69710658705E+02 -0.41848721634E+03  0.55651073398E+03  0.00000000000E+00 0. -1.
         -4    1    5    5    0  503 -0.34172806742E+03  0.14584645790E+03 -0.42440794015E+03  0.56406680544E+03  0.00000000000E+00 0.  1.
         -3    1    6    6    0  502 -0.98474857565E+01 -0.11478637136E+02 -0.36399200500E+02  0.39416162716E+02  0.00000000000E+00 0.  1.
<mgrwt>
<rscale>  0 0.18836780E+04</rscale>
<asrwt>0</asrwt>
<pdfrwt beam="1">  1        2 0.43785446E+00 0.18836780E+04</pdfrwt>
<pdfrwt beam="2">  1       -2 0.47950911E-01 0.18836780E+04</pdfrwt>
<totfact> 0.83973305E+00</totfact>
</mgrwt>
</event>
<event>
12    1  0.1980523E-007  0.2324970E+04  0.7818608E-02  0.8468140E-01
         -2   -1    0    0    0  501 -0.00000000000E+00  0.00000000000E+00  0.12520917219E+04  0.12520917219E+04  0.00000000000E+00 0. -1.
          2   -1    0    0  501    0  0.00000000000E+00 -0.00000000000E+00 -0.10792909978E+04  0.10792909978E+04  0.00000000000E+00 0.  1.
         23    2    1    2    0    0 -0.63083259203E+03 -0.60599136057E+03 -0.38893687111E+03  0.96170287257E+03  0.91789090603E+02 0.  0.
        254    2    1    2    0    0  0.63083259203E+03  0.60599136057E+03  0.56173759522E+03  0.13696798471E+04  0.89179508269E+03 0.  0.
        -24    2    4    4    0    0 -0.11211603113E+03  0.15172998614E+02 -0.13220897364E+03  0.19095459787E+03  0.78639820777E+02 0.  0.
         24    2    4    4    0    0  0.74294862316E+03  0.59081836196E+03  0.69394656886E+03  0.11787252493E+04  0.82415892486E+02 0.  0.
         13    1    3    3    0    0 -0.48863418346E+03 -0.51613735009E+03 -0.32820595314E+03  0.78286670454E+03  0.00000000000E+00 0.  1.
        -13    1    3    3    0    0 -0.14219840857E+03 -0.89854010487E+02 -0.60730917975E+02  0.17883616804E+03  0.00000000000E+00 0. -1.
          4    1    6    6  502    0  0.33981473569E+03  0.25208479422E+03  0.35696067204E+03  0.55357178347E+03  0.00000000000E+00 0. -1.
          3    1    5    5  503    0  0.11658498346E+02  0.50048109984E+01 -0.19378367467E+02  0.23162250376E+02  0.00000000000E+00 0. -1.
         -2    1    5    5    0  503 -0.12377452948E+03  0.10168187616E+02 -0.11283060618E+03  0.16779234749E+03  0.00000000000E+00 0.  1.
         -3    1    6    6    0  502  0.40313388747E+03  0.33873356774E+03  0.33698589682E+03  0.62515346579E+03  0.00000000000E+00 0.  1.
<mgrwt>
<rscale>  0 0.23249700E+04</rscale>
<asrwt>0</asrwt>
<pdfrwt beam="1">  1        2 0.16604477E+00 0.23249700E+04</pdfrwt>
<pdfrwt beam="2">  1       -2 0.19262950E+00 0.23249700E+04</pdfrwt>
<totfact> 0.30215145E+00</totfact>
</mgrwt>
</event>
<event>
12    1  0.2060952E-007  0.3104851E+04  0.7818608E-02  0.8214408E-01
         -1   -1    0    0    0  501 -0.00000000000E+00  0.00000000000E+00  0.12502522737E+04  0.12502522737E+04  0.00000000000E+00 0.  1.
          1   -1    0    0  501    0  0.00000000000E+00 -0.00000000000E+00 -0.19276309735E+04  0.19276309735E+04  0.00000000000E+00 0. -1.
         23    2    1    2    0    0  0.16886555155E+03  0.12817959438E+04 -0.91999379131E+03  0.15896082481E+04  0.94601216268E+02 0.  0.
        254    2    1    2    0    0 -0.16886555155E+03 -0.12817959438E+04  0.24261509149E+03  0.15882749991E+04  0.89007807180E+03 0.  0.
        -24    2    4    4    0    0  0.29310804449E+03 -0.44291523624E+03  0.31768453493E+03  0.62361280876E+03  0.76702276912E+02 0.  0.
         24    2    4    4    0    0 -0.46197359604E+03 -0.83888070760E+03 -0.75069443442E+02  0.96466219031E+03  0.88302180292E+02 0.  0.
         13    1    3    3    0    0  0.32885762368E+02  0.56922459625E+03 -0.43130865198E+03  0.71493025367E+03  0.00000000000E+00 0. -1.
        -13    1    3    3    0    0  0.13597978918E+03  0.71257134759E+03 -0.48868513933E+03  0.87467799439E+03  0.00000000000E+00 0.  1.
          4    1    6    6  502    0 -0.45718378756E+03 -0.82574090125E+03 -0.62608628986E+02  0.94593070150E+03  0.00000000000E+00 0. -1.
          1    1    5    5  503    0  0.20513795427E+03 -0.35682798468E+03  0.26633291428E+03  0.49024586909E+03  0.00000000000E+00 0. -1.
         -2    1    5    5    0  503  0.87970090216E+02 -0.86087251555E+02  0.51351620651E+02  0.13336693967E+03  0.00000000000E+00 0.  1.
         -3    1    6    6    0  502 -0.47898084816E+01 -0.13139806347E+02 -0.12460814456E+02  0.18731488810E+02  0.00000000000E+00 0.  1.
<mgrwt>
<rscale>  0 0.31048510E+04</rscale>
<asrwt>0</asrwt>
<pdfrwt beam="1">  1        1 0.29655861E+00 0.31048510E+04</pdfrwt>
<pdfrwt beam="2">  1       -1 0.19234650E+00 0.31048510E+04</pdfrwt>
<totfact> 0.47885595E-01</totfact>
</mgrwt>
</event>
<event>
12    1  0.1980523E-007  0.2222719E+04  0.7818608E-02  0.8509031E-01
          2   -1    0    0  501    0  0.00000000000E+00  0.00000000000E+00  0.57001942023E+03  0.57001942023E+03  0.00000000000E+00 0. -1.
         -2   -1    0    0    0  501 -0.00000000000E+00 -0.00000000000E+00 -0.21668039906E+04  0.21668039906E+04  0.00000000000E+00 0.  1.
         23    2    1    2    0    0 -0.38731292033E+03 -0.38290393908E+03 -0.15906847254E+04  0.16838754034E+04  0.92367493658E+02 0.  0.
        254    2    1    2    0    0  0.38731292033E+03  0.38290393908E+03 -0.60998450095E+01  0.10529480074E+04  0.90113016452E+03 0.  0.
        -24    2    4    4    0    0 -0.24324166069E+02  0.26174415091E+02  0.37439665262E+03  0.38355688695E+03  0.75274610398E+02 0.  0.
         24    2    4    4    0    0  0.41163708640E+03  0.35672952399E+03 -0.38049649763E+03  0.66939112047E+03  0.81276338936E+02 0.  0.
         13    1    3    3    0    0 -0.34887251011E+03 -0.32979956405E+03 -0.12979784904E+04  0.13839176068E+04  0.00000000000E+00 0. -1.
        -13    1    3    3    0    0 -0.38440410220E+02 -0.53104375036E+02 -0.29270623494E+03  0.29995779663E+03  0.00000000000E+00 0.  1.
          4    1    6    6  502    0  0.47498336761E+02  0.75764176054E+02 -0.80082127996E+02  0.12003936684E+03  0.00000000000E+00 0. -1.
          3    1    5    5  503    0 -0.44977583115E+02  0.20198597489E+02  0.33558610261E+03  0.33918873594E+03  0.00000000000E+00 0. -1.
         -4    1    5    5    0  503  0.20653417045E+02  0.59758176023E+01  0.38810550009E+02  0.44368151006E+02  0.00000000000E+00 0.  1.
         -3    1    6    6    0  502  0.36413874964E+03  0.28096534794E+03 -0.30041436963E+03  0.54935175363E+03  0.00000000000E+00 0.  1.
<mgrwt>
<rscale>  0 0.22227194E+04</rscale>
<asrwt>0</asrwt>
<pdfrwt beam="1">  1        2 0.87695296E-01 0.22227194E+04</pdfrwt>
<pdfrwt beam="2">  1       -2 0.33335446E+00 0.22227194E+04</pdfrwt>
<totfact> 0.95324331E-01</totfact>
</mgrwt>
</event>
<event>
12    1  0.1980523E-007  0.1753915E+04  0.7818608E-02  0.8731198E-01
          2   -1    0    0  501    0  0.00000000000E+00  0.00000000000E+00  0.22562310235E+04  0.22562310235E+04  0.00000000000E+00 0. -1.
         -2   -1    0    0    0  501 -0.00000000000E+00 -0.00000000000E+00 -0.34085801165E+03  0.34085801165E+03  0.00000000000E+00 0.  1.
         23    2    1    2    0    0  0.34504616311E+03  0.45984418805E+03  0.11155439048E+04  0.12583310600E+04  0.91898427753E+02 0.  0.
        254    2    1    2    0    0 -0.34504616311E+03 -0.45984418805E+03  0.79982910705E+03  0.13387579752E+04  0.90666023605E+03 0.  0.
        -24    2    4    4    0    0 -0.37145052531E+03 -0.35790559132E+03 -0.63384108539E+01  0.52196210769E+03  0.79576135617E+02 0.  0.
         24    2    4    4    0    0  0.26404362202E+02 -0.10193859672E+03  0.80616751790E+03  0.81679586748E+03  0.78490473070E+02 0.  0.
         11    1    3    3    0    0  0.27464044855E+03  0.38552401905E+03  0.83706398322E+03  0.96163000018E+03  0.00000000000E+00 0.  1.
        -11    1    3    3    0    0  0.70405714560E+02  0.74320168992E+02  0.27847992162E+03  0.29670105984E+03  0.00000000000E+00 0. -1.
          4    1    6    6  502    0  0.97628485896E+01 -0.41472062147E+02  0.11247436276E+03  0.12027355250E+03  0.00000000000E+00 0. -1.
          1    1    5    5  503    0 -0.44994267901E+02 -0.15453075990E+02 -0.10935505331E+02  0.48814618490E+02  0.00000000000E+00 0. -1.
         -2    1    5    5    0  503 -0.32645625741E+03 -0.34245251533E+03  0.45970944772E+01  0.47314748920E+03  0.00000000000E+00 0.  1.
         -1    1    6    6    0  502  0.16641513612E+02 -0.60466534576E+02  0.69369315514E+03  0.69652231498E+03  0.00000000000E+00 0.  1.
<mgrwt>
<rscale>  0 0.17539150E+04</rscale>
<asrwt>0</asrwt>
<pdfrwt beam="1">  1        2 0.34711246E+00 0.17539150E+04</pdfrwt>
<pdfrwt beam="2">  1       -2 0.52439695E-01 0.17539150E+04</pdfrwt>
<totfact> 0.15616319E+01</totfact>
</mgrwt>
</event>
<event>
12    1  0.1980523E-007  0.1617609E+04  0.7818608E-02  0.8809802E-01
          1   -1    0    0  501    0  0.00000000000E+00  0.00000000000E+00  0.44122452648E+03  0.44122452648E+03  0.00000000000E+00 0. -1.
         -1   -1    0    0    0  501 -0.00000000000E+00 -0.00000000000E+00 -0.14826122381E+04  0.14826122381E+04  0.00000000000E+00 0.  1.
         23    2    1    2    0    0 -0.52407228781E+03  0.23988208592E+02 -0.55679951177E+03  0.77047185626E+03  0.91509496622E+02 0.  0.
        254    2    1    2    0    0  0.52407228781E+03 -0.23988208592E+02 -0.48458819985E+03  0.11533649083E+04  0.90564766400E+03 0.  0.
        -24    2    4    4    0    0  0.16763464181E+02 -0.36523294625E+02 -0.61642429488E+03  0.62225551539E+03  0.74886916900E+02 0.  0.
         24    2    4    4    0    0  0.50730882363E+03  0.12535086032E+02  0.13183609503E+03  0.53110939294E+03  0.84717532990E+02 0.  0.
         13    1    3    3    0    0 -0.16919862003E+03  0.34505928124E+02 -0.13529300952E+03  0.21936962078E+03  0.00000000000E+00 0. -1.
        -13    1    3    3    0    0 -0.35487366778E+03 -0.10517719532E+02 -0.42150650225E+03  0.55110223547E+03  0.00000000000E+00 0.  1.
          2    1    6    6  502    0  0.28104132789E+03  0.68632664581E+00  0.29803914573E+02  0.28261806798E+03  0.00000000000E+00 0. -1.
          3    1    5    5  503    0  0.44516473935E+01 -0.67767389864E+01 -0.41005262826E+01  0.90860151661E+01  0.00000000000E+00 0. -1.
         -4    1    5    5    0  503  0.12311816787E+02 -0.29746555638E+02 -0.61232376860E+03  0.61316950022E+03  0.00000000000E+00 0.  1.
         -1    1    6    6    0  502  0.22626749574E+03  0.11848759387E+02  0.10203218046E+03  0.24849132496E+03  0.00000000000E+00 0.  1.
<mgrwt>
<rscale>  0 0.16176092E+04</rscale>
<asrwt>0</asrwt>
<pdfrwt beam="1">  1        1 0.67880698E-01 0.16176092E+04</pdfrwt>
<pdfrwt beam="2">  1       -1 0.22809419E+00 0.16176092E+04</pdfrwt>
<totfact> 0.48968187E+00</totfact>
</mgrwt>
</event>
<event>
12    1  0.1980523E-007  0.3256613E+04  0.7818608E-02  0.8174024E-01
         -2   -1    0    0    0  501 -0.00000000000E+00  0.00000000000E+00  0.22630442526E+04  0.22630442526E+04  0.00000000000E+00 0.  1.
          2   -1    0    0  501    0  0.00000000000E+00 -0.00000000000E+00 -0.11715995273E+04  0.11715995273E+04  0.00000000000E+00 0. -1.
         23    2    1    2    0    0 -0.51454203738E+03 -0.12027321410E+04 -0.27582168590E+03  0.13396567225E+04  0.85348816636E+02 0.  0.
        254    2    1    2    0    0  0.51454203738E+03  0.12027321410E+04  0.13672664112E+04  0.20949870574E+04  0.89901903223E+03 0.  0.
        -24    2    4    4    0    0  0.66237770497E+03  0.12316862784E+04  0.13004771368E+04  0.19112577565E+04  0.76616679964E+02 0.  0.
         24    2    4    4    0    0 -0.14783566758E+03 -0.28954137424E+02  0.66789274341E+02  0.18372930095E+03  0.81252213373E+02 0.  0.
         11    1    3    3    0    0 -0.37725943554E+03 -0.88862114919E+03 -0.24154796174E+03  0.99514704759E+03  0.00000000000E+00 0. -1.
        -11    1    3    3    0    0 -0.13728260185E+03 -0.31411099183E+03 -0.34273724162E+02  0.34450967494E+03  0.00000000000E+00 0.  1.
          4    1    6    6  502    0 -0.13467903736E+03 -0.49886466135E+02  0.68145911829E+02  0.15896844941E+03  0.00000000000E+00 0. -1.
          1    1    5    5  503    0  0.46059108086E+03  0.80313033855E+03  0.82450369859E+03  0.12397454712E+04  0.00000000000E+00 0. -1.
         -2    1    5    5    0  503  0.20178662411E+03  0.42855593990E+03  0.47597343825E+03  0.67151228523E+03  0.00000000000E+00 0.  1.
         -3    1    6    6    0  502 -0.13156630223E+02  0.20932328710E+02 -0.13566374880E+01  0.24760851547E+02  0.00000000000E+00 0.  1.
<mgrwt>
<rscale>  0 0.32566127E+04</rscale>
<asrwt>0</asrwt>
<pdfrwt beam="1">  1        2 0.18024608E+00 0.32566127E+04</pdfrwt>
<pdfrwt beam="2">  1       -2 0.34816065E+00 0.32566127E+04</pdfrwt>
<totfact> 0.26373785E-01</totfact>
</mgrwt>
</event>
<event>
12    1  0.1980523E-007  0.1529424E+04  0.7818608E-02  0.8865119E-01
         -1   -1    0    0    0  501 -0.00000000000E+00  0.00000000000E+00  0.49751631928E+03  0.49751631928E+03  0.00000000000E+00 0.  1.
          1   -1    0    0  501    0  0.00000000000E+00 -0.00000000000E+00 -0.11754070631E+04  0.11754070631E+04  0.00000000000E+00 0. -1.
         23    2    1    2    0    0 -0.39344888394E+03  0.66361544778E+02 -0.54320140711E+03  0.68040394043E+03  0.93144374910E+02 0.  0.
        254    2    1    2    0    0  0.39344888394E+03 -0.66361544778E+02 -0.13468933676E+03  0.99251944199E+03  0.89874787699E+03 0.  0.
        -24    2    4    4    0    0  0.41530424619E+03 -0.21855953374E+03  0.27349678562E+03  0.54905747035E+03  0.80110719064E+02 0.  0.
         24    2    4    4    0    0 -0.21855362253E+02  0.15219798896E+03 -0.40818612239E+03  0.44346197164E+03  0.80004531609E+02 0.  0.
         13    1    3    3    0    0 -0.31363045850E+03  0.82143079137E+02 -0.46989266897E+03  0.57088586451E+03  0.00000000000E+00 0. -1.
        -13    1    3    3    0    0 -0.79818425440E+02 -0.15781534359E+02 -0.73308738138E+02  0.10951807592E+03  0.00000000000E+00 0.  1.
          4    1    6    6  502    0  0.62880543753E+01  0.27885257295E+02 -0.20003090212E+02  0.34889121804E+02  0.00000000000E+00 0. -1.
          3    1    5    5  503    0  0.18336009698E+03 -0.14141304588E+03  0.12748956904E+03  0.26433343512E+03  0.00000000000E+00 0. -1.
         -4    1    5    5    0  503  0.23194414921E+03 -0.77146487856E+02  0.14600721659E+03  0.28472403523E+03  0.00000000000E+00 0.  1.
         -3    1    6    6    0  502 -0.28143416628E+02  0.12431273166E+03 -0.38818303217E+03  0.40857284983E+03  0.00000000000E+00 0.  1.
<mgrwt>
<rscale>  0 0.15294237E+04</rscale>
<asrwt>0</asrwt>
<pdfrwt beam="1">  1        1 0.18083185E+00 0.15294237E+04</pdfrwt>
<pdfrwt beam="2">  1       -1 0.76540973E-01 0.15294237E+04</pdfrwt>
<totfact> 0.18418222E+01</totfact>
</mgrwt>
</event>
<event>
12    1  0.1980523E-007  0.1436392E+04  0.7818608E-02  0.8927889E-01
          2   -1    0    0  501    0  0.00000000000E+00  0.00000000000E+00  0.85172697339E+03  0.85172697339E+03  0.00000000000E+00 0. -1.
         -2   -1    0    0    0  501 -0.00000000000E+00 -0.00000000000E+00 -0.60559988875E+03  0.60559988875E+03  0.00000000000E+00 0.  1.
         23    2    1    2    0    0 -0.39125108200E+03  0.16886448047E+03  0.12876107429E+03  0.45443802014E+03  0.91333881787E+02 0.  0.
        254    2    1    2    0    0  0.39125108200E+03 -0.16886448047E+03  0.11736601034E+03  0.10028888420E+04  0.90023254057E+03 0.  0.
        -24    2    4    4    0    0  0.17258789996E+03 -0.50479572442E+03  0.21586634089E+03  0.58075442066E+03  0.77923766527E+02 0.  0.
         24    2    4    4    0    0  0.21866318204E+03  0.33593124395E+03 -0.98500330542E+02  0.42213442134E+03  0.88497269576E+02 0.  0.
         13    1    3    3    0    0 -0.28015614975E+03  0.11157989302E+03  0.13250861578E+03  0.32938742238E+03  0.00000000000E+00 0. -1.
        -13    1    3    3    0    0 -0.11109493225E+03  0.57284587455E+02 -0.37475414884E+01  0.12505059776E+03  0.00000000000E+00 0.  1.
          2    1    6    6  502    0  0.18480906913E+03  0.21803605538E+03 -0.87827630698E+02  0.29901138137E+03  0.00000000000E+00 0. -1.
          1    1    5    5  503    0  0.15353281405E+03 -0.48399172616E+03  0.18899360126E+03  0.54179230089E+03  0.00000000000E+00 0. -1.
         -2    1    5    5    0  503  0.19055085910E+02 -0.20803998253E+02  0.26872739623E+02  0.38962119773E+02  0.00000000000E+00 0.  1.
         -1    1    6    6    0  502  0.33854112916E+02  0.11789518857E+03 -0.10672699844E+02  0.12312303996E+03  0.00000000000E+00 0.  1.
<mgrwt>
<rscale>  0 0.14363924E+04</rscale>
<asrwt>0</asrwt>
<pdfrwt beam="1">  1        2 0.13103492E+00 0.14363924E+04</pdfrwt>
<pdfrwt beam="2">  1       -2 0.93169213E-01 0.14363924E+04</pdfrwt>
<totfact> 0.29974578E+01</totfact>
</mgrwt>
</event>
<event>
12    1  0.1980523E-007  0.2415068E+04  0.7818608E-02  0.8433884E-01
          2   -1    0    0  501    0  0.00000000000E+00  0.00000000000E+00  0.27336392749E+04  0.27336392749E+04  0.00000000000E+00 0. -1.
         -2   -1    0    0    0  501 -0.00000000000E+00 -0.00000000000E+00 -0.53340565548E+03  0.53340565548E+03  0.00000000000E+00 0.  1.
         23    2    1    2    0    0  0.97360675715E+03 -0.31989996139E+03  0.11584571096E+04  0.15493431333E+04  0.90527162517E+02 0.  0.
        254    2    1    2    0    0 -0.97360675715E+03  0.31989996139E+03  0.10417765099E+04  0.17177017971E+04  0.90274861638E+03 0.  0.
        -24    2    4    4    0    0 -0.25361928056E+03  0.71286348358E+02 -0.14160440614E+03  0.30791996086E+03  0.73201171623E+02 0.  0.
         24    2    4    4    0    0 -0.71998747659E+03  0.24861361303E+03  0.11833809160E+04  0.14097818362E+04  0.83088737998E+02 0.  0.
         11    1    3    3    0    0  0.36833395380E+03 -0.13237961413E+03  0.50755827774E+03  0.64094435723E+03  0.00000000000E+00 0. -1.
        -11    1    3    3    0    0  0.60527280334E+03 -0.18752034726E+03  0.65089883186E+03  0.90839877610E+03  0.00000000000E+00 0.  1.
          4    1    6    6  502    0 -0.71441647802E+03  0.24744790190E+03  0.11523622293E+04  0.13782452887E+04  0.00000000000E+00 0. -1.
          3    1    5    5  503    0 -0.25793234247E+03  0.69593778108E+02 -0.14307894278E+03  0.30305770260E+03  0.00000000000E+00 0. -1.
         -4    1    5    5    0  503  0.43130619100E+01  0.16925702503E+01  0.14745366349E+01  0.48622582592E+01  0.00000000000E+00 0.  1.
         -3    1    6    6    0  502 -0.55709985707E+01  0.11657111346E+01  0.31018686705E+02  0.31536547567E+02  0.00000000000E+00 0.  1.
<mgrwt>
<rscale>  0 0.24150682E+04</rscale>
<asrwt>0</asrwt>
<pdfrwt beam="1">  1        2 0.42055988E+00 0.24150682E+04</pdfrwt>
<pdfrwt beam="2">  1       -2 0.82062410E-01 0.24150682E+04</pdfrwt>
<totfact> 0.29719322E+00</totfact>
</mgrwt>
</event>
<event>
12    1  0.2717942E-007  0.2630157E+04  0.7818608E-02  0.8358029E-01
          2   -1    0    0  501    0  0.00000000000E+00  0.00000000000E+00  0.25851316118E+04  0.25851316118E+04  0.00000000000E+00 0. -1.
         -2   -1    0    0    0  501 -0.00000000000E+00 -0.00000000000E+00 -0.66899142345E+03  0.66899142345E+03  0.00000000000E+00 0.  1.
         23    2    1    2    0    0 -0.85114436328E+03 -0.39390121851E+03  0.16903918098E+04  0.19353237992E+04  0.91917571884E+02 0.  0.
        254    2    1    2    0    0  0.85114436328E+03  0.39390121851E+03  0.22574837855E+03  0.13187992360E+04  0.89925758127E+03 0.  0.
        -24    2    4    4    0    0  0.49682332439E+03  0.18162372974E+03  0.56509753163E+03  0.77818106689E+03  0.80062211769E+02 0.  0.
         24    2    4    4    0    0  0.35432103890E+03  0.21227748877E+03 -0.33934915308E+03  0.54061816915E+03  0.80653743065E+02 0.  0.
         13    1    3    3    0    0 -0.42492887096E+03 -0.15851402529E+03  0.75332975063E+03  0.87931618590E+03  0.00000000000E+00 0. -1.
        -13    1    3    3    0    0 -0.42621549232E+03 -0.23538719322E+03  0.93706205915E+03  0.10560076133E+04  0.00000000000E+00 0.  1.
          4    1    6    6  502    0  0.30704043918E+03  0.20539017599E+03 -0.32116391091E+03  0.48949485529E+03  0.00000000000E+00 0. -1.
          1    1    5    5  503    0  0.40556683706E+03  0.11390256595E+03  0.45136959181E+03  0.61740810026E+03  0.00000000000E+00 0. -1.
         -2    1    5    5    0  503  0.91256487329E+02  0.67721163792E+02  0.11372793982E+03  0.16077296664E+03  0.00000000000E+00 0.  1.
         -3    1    6    6    0  502  0.47280599716E+02  0.68873127846E+01 -0.18185242172E+02  0.51123313857E+02  0.00000000000E+00 0.  1.
<mgrwt>
<rscale>  0 0.26301566E+04</rscale>
<asrwt>0</asrwt>
<pdfrwt beam="1">  1        2 0.39771255E+00 0.26301566E+04</pdfrwt>
<pdfrwt beam="2">  1       -2 0.10292176E+00 0.26301566E+04</pdfrwt>
<totfact> 0.21123171E+00</totfact>
</mgrwt>
</event>
<event>
12    1  0.1980523E-007  0.1321768E+04  0.7818608E-02  0.9012479E-01
          1   -1    0    0  501    0  0.00000000000E+00  0.00000000000E+00  0.12008116695E+04  0.12008116695E+04  0.00000000000E+00 0. -1.
         -1   -1    0    0    0  501 -0.00000000000E+00 -0.00000000000E+00 -0.36372681069E+03  0.36372681069E+03  0.00000000000E+00 0.  1.
         23    2    1    2    0    0  0.22249002178E+03  0.15458894296E+03 -0.27525008994E+02  0.28757428748E+03  0.92421824391E+02 0.  0.
        254    2    1    2    0    0 -0.22249002178E+03 -0.15458894296E+03  0.86460986776E+03  0.12769641927E+04  0.89982652486E+03 0.  0.
        -24    2    4    4    0    0 -0.49580813482E+03 -0.28070595958E+03  0.34448996826E+03  0.67083099110E+03  0.81971568783E+02 0.  0.
         24    2    4    4    0    0  0.27331811305E+03  0.12611701662E+03  0.52011989950E+03  0.60613320156E+03  0.79148312548E+02 0.  0.
         13    1    3    3    0    0  0.85063473612E+02  0.11416717230E+03 -0.23281241283E+02  0.14426348800E+03  0.00000000000E+00 0.  1.
        -13    1    3    3    0    0  0.13742654816E+03  0.40421770662E+02 -0.42437677117E+01  0.14331079948E+03  0.00000000000E+00 0. -1.
          4    1    6    6  502    0  0.13751863642E+03  0.50863027435E+02  0.32681442973E+03  0.35819840089E+03  0.00000000000E+00 0. -1.
          3    1    5    5  503    0 -0.35281886065E+03 -0.18956139027E+03  0.19817931145E+03  0.44686654450E+03  0.00000000000E+00 0. -1.
         -4    1    5    5    0  503 -0.14298927418E+03 -0.91144569312E+02  0.14631065680E+03  0.22396444660E+03  0.00000000000E+00 0.  1.
         -3    1    6    6    0  502  0.13579947662E+03  0.75253989184E+02  0.19330546978E+03  0.24793480067E+03  0.00000000000E+00 0.  1.
<mgrwt>
<rscale>  0 0.13217676E+04</rscale>
<asrwt>0</asrwt>
<pdfrwt beam="1">  1        1 0.18474026E+00 0.13217676E+04</pdfrwt>
<pdfrwt beam="2">  1       -1 0.55957971E-01 0.13217676E+04</pdfrwt>
<totfact> 0.33812760E+01</totfact>
</mgrwt>
</event>
<event>
12    1  0.1980523E-007  0.1992416E+04  0.7818608E-02  0.8610175E-01
          1   -1    0    0  501    0  0.00000000000E+00  0.00000000000E+00  0.15671980773E+04  0.15671980773E+04  0.00000000000E+00 0. -1.
         -1   -1    0    0    0  501 -0.00000000000E+00 -0.00000000000E+00 -0.63325153998E+03  0.63325153998E+03  0.00000000000E+00 0.  1.
         23    2    1    2    0    0 -0.53886872635E+03  0.29473180308E+03 -0.17561336121E+03  0.64478482255E+03  0.87527565814E+02 0.  0.
        254    2    1    2    0    0  0.53886872635E+03 -0.29473180308E+03  0.11095598986E+04  0.15556647948E+04  0.90095696079E+03 0.  0.
        -24    2    4    4    0    0 -0.94435973892E+02 -0.23770476668E+03 -0.70163195211E+01  0.26829061991E+03  0.80677870078E+02 0.  0.
         24    2    4    4    0    0  0.63330470024E+03 -0.57027036391E+02  0.11165762181E+04  0.12873741749E+04  0.79138417220E+02 0.  0.
         11    1    3    3    0    0 -0.32541969847E+03  0.17651724877E+03 -0.60979181733E+02  0.37519965335E+03  0.00000000000E+00 0. -1.
        -11    1    3    3    0    0 -0.21344902788E+03  0.11821455430E+03 -0.11463417947E+03  0.26958516920E+03  0.00000000000E+00 0.  1.
          4    1    6    6  502    0  0.51870255314E+03 -0.50775250750E+02  0.97063423760E+03  0.11017083498E+04  0.00000000000E+00 0. -1.
          1    1    5    5  503    0 -0.31997102300E+02 -0.77330832846E+02 -0.40483743586E+02  0.92966691664E+02  0.00000000000E+00 0. -1.
         -2    1    5    5    0  503 -0.62438871591E+02 -0.16037393384E+03  0.33467424065E+02  0.17532392824E+03  0.00000000000E+00 0.  1.
         -3    1    6    6    0  502  0.11460214710E+03 -0.62517856411E+01  0.14594198048E+03  0.18566582510E+03  0.00000000000E+00 0.  1.
<mgrwt>
<rscale>  0 0.19924162E+04</rscale>
<asrwt>0</asrwt>
<pdfrwt beam="1">  1        1 0.24110740E+00 0.19924162E+04</pdfrwt>
<pdfrwt beam="2">  1       -1 0.97423314E-01 0.19924162E+04</pdfrwt>
<totfact> 0.55187784E+00</totfact>
</mgrwt>
</event>
<event>
12    1  0.1980523E-007  0.1510357E+04  0.7818608E-02  0.8877595E-01
          1   -1    0    0  501    0  0.00000000000E+00  0.00000000000E+00  0.16302608495E+04  0.16302608495E+04  0.00000000000E+00 0. -1.
         -1   -1    0    0    0  501 -0.00000000000E+00 -0.00000000000E+00 -0.34981777756E+03  0.34981777756E+03  0.00000000000E+00 0.  1.
         23    2    1    2    0    0  0.42233279421E+03 -0.24008898400E+03  0.37733953980E+03  0.62143635283E+03  0.88262693223E+02 0.  0.
        254    2    1    2    0    0 -0.42233279421E+03  0.24008898400E+03  0.90310353216E+03  0.13586422743E+04  0.89123797624E+03 0.  0.
        -24    2    4    4    0    0 -0.42407292032E+03  0.27504989833E+03  0.10622009152E+04  0.11790687138E+04  0.80261817397E+02 0.  0.
         24    2    4    4    0    0  0.17401261090E+01 -0.34960914330E+02 -0.15909738303E+03  0.17957356045E+03  0.75560523812E+02 0.  0.
         13    1    3    3    0    0  0.31766226381E+03 -0.18050576710E+03  0.32897785625E+03  0.49164832524E+03  0.00000000000E+00 0. -1.
        -13    1    3    3    0    0  0.10467053040E+03 -0.59583216902E+02  0.48361683555E+02  0.12978802759E+03  0.00000000000E+00 0.  1.
          4    1    6    6  502    0  0.13472132155E+02 -0.91518651375E+01  0.16272078454E+01  0.16367736119E+02  0.00000000000E+00 0. -1.
          1    1    5    5  503    0 -0.19020966361E+03  0.92515368085E+02  0.51229767191E+03  0.55424517509E+03  0.00000000000E+00 0. -1.
         -2    1    5    5    0  503 -0.23386325671E+03  0.18253453025E+03  0.54990324327E+03  0.62482353872E+03  0.00000000000E+00 0.  1.
         -3    1    6    6    0  502 -0.11732006046E+02 -0.25809049192E+02 -0.16072459087E+03  0.16320582433E+03  0.00000000000E+00 0.  1.
<mgrwt>
<rscale>  0 0.15103566E+04</rscale>
<asrwt>0</asrwt>
<pdfrwt beam="1">  1        1 0.25080936E+00 0.15103566E+04</pdfrwt>
<pdfrwt beam="2">  1       -1 0.53818121E-01 0.15103566E+04</pdfrwt>
<totfact> 0.17917172E+01</totfact>
</mgrwt>
</event>
<event>
12    1  0.1980523E-007  0.2721216E+04  0.7818608E-02  0.8328154E-01
         -1   -1    0    0    0  501 -0.00000000000E+00  0.00000000000E+00  0.13101158280E+04  0.13101158280E+04  0.00000000000E+00 0.  1.
          1   -1    0    0  501    0  0.00000000000E+00 -0.00000000000E+00 -0.14130462329E+04  0.14130462329E+04  0.00000000000E+00 0. -1.
         23    2    1    2    0    0 -0.94720379615E+03  0.33294762293E+03 -0.72035735701E+03  0.12390457504E+04  0.90942282468E+02 0.  0.
        254    2    1    2    0    0  0.94720379615E+03 -0.33294762293E+03  0.61742695214E+03  0.14841163105E+04  0.90185144609E+03 0.  0.
        -24    2    4    4    0    0 -0.79669635407E+02  0.10164356370E+03  0.27614683826E+03  0.31531644401E+03  0.80552583664E+02 0.  0.
         24    2    4    4    0    0  0.10268734316E+04 -0.43459118662E+03  0.34128011388E+03  0.11687998665E+04  0.79262020220E+02 0.  0.
         13    1    3    3    0    0 -0.31717832402E+03  0.15257230173E+03 -0.27574436307E+03  0.44711894418E+03  0.00000000000E+00 0. -1.
        -13    1    3    3    0    0 -0.63002547213E+03  0.18037532120E+03 -0.44461299394E+03  0.79192680622E+03  0.00000000000E+00 0.  1.
          4    1    6    6  502    0  0.29528101023E+03 -0.89812474797E+02  0.79294913766E+02  0.31866100951E+03  0.00000000000E+00 0. -1.
          3    1    5    5  503    0  0.49251697325E+01 -0.10439296565E+02  0.26072009701E+02  0.28512907595E+02  0.00000000000E+00 0. -1.
         -4    1    5    5    0  503 -0.84594805139E+02  0.11208286026E+03  0.25007482856E+03  0.28680353641E+03  0.00000000000E+00 0.  1.
         -3    1    6    6    0  502  0.73159242132E+03 -0.34477871183E+03  0.26198520011E+03  0.85013885698E+03  0.00000000000E+00 0.  1.
<mgrwt>
<rscale>  0 0.27212161E+04</rscale>
<asrwt>0</asrwt>
<pdfrwt beam="1">  1        1 0.21739173E+00 0.27212161E+04</pdfrwt>
<pdfrwt beam="2">  1       -1 0.20155628E+00 0.27212161E+04</pdfrwt>
<totfact> 0.96271798E-01</totfact>
</mgrwt>
</event>
<event>
12    1  0.1980523E-007  0.2218153E+04  0.7818608E-02  0.8510910E-01
         -2   -1    0    0    0  501 -0.00000000000E+00  0.00000000000E+00  0.87196075385E+03  0.87196075385E+03  0.00000000000E+00 0.  1.
          2   -1    0    0  501    0  0.00000000000E+00 -0.00000000000E+00 -0.14106717771E+04  0.14106717771E+04  0.00000000000E+00 0. -1.
         23    2    1    2    0    0 -0.87957308545E+03  0.15173591766E+03  0.19697400153E+02  0.89758222225E+03  0.92699820727E+02 0.  0.
        254    2    1    2    0    0  0.87957308545E+03 -0.15173591766E+03 -0.55840842337E+03  0.13850503087E+04  0.89992876880E+03 0.  0.
        -24    2    4    4    0    0  0.70615941239E+03 -0.40083885184E+03 -0.66596569504E+03  0.10531653998E+04  0.79461635519E+02 0.  0.
         24    2    4    4    0    0  0.17341367307E+03  0.24910293418E+03  0.10755727167E+03  0.33188490887E+03  0.80339605558E+02 0.  0.
         11    1    3    3    0    0 -0.13832920110E+03  0.11041670787E+02  0.34366849405E+02  0.14296141685E+03  0.00000000000E+00 0.  1.
        -11    1    3    3    0    0 -0.74124388436E+03  0.14069424688E+03 -0.14669449252E+02  0.75462080540E+03  0.00000000000E+00 0. -1.
          2    1    6    6  502    0  0.64297169310E+02  0.11638859086E+03  0.86874627809E+02  0.15883208435E+03  0.00000000000E+00 0. -1.
          1    1    5    5  503    0  0.70128302264E+03 -0.40360708653E+03 -0.66527659229E+03  0.10475158721E+04  0.00000000000E+00 0. -1.
         -2    1    5    5    0  503  0.48763897476E+01  0.27682346803E+01 -0.68910275116E+00  0.56495276633E+01  0.00000000000E+00 0.  1.
         -1    1    6    6    0  502  0.10911650376E+03  0.13271434332E+03  0.20682643866E+02  0.17305282452E+03  0.00000000000E+00 0.  1.
<mgrwt>
<rscale>  0 0.22181528E+04</rscale>
<asrwt>0</asrwt>
<pdfrwt beam="1">  1        2 0.21702642E+00 0.22181528E+04</pdfrwt>
<pdfrwt beam="2">  1       -2 0.13414781E+00 0.22181528E+04</pdfrwt>
<totfact> 0.52223410E+00</totfact>
</mgrwt>
</event>
<event>
12    1  0.1980523E-007  0.2340902E+04  0.7818608E-02  0.8461967E-01
         -2   -1    0    0    0  501 -0.00000000000E+00  0.00000000000E+00  0.88989079522E+03  0.88989079522E+03  0.00000000000E+00 0.  1.
          2   -1    0    0  501    0  0.00000000000E+00 -0.00000000000E+00 -0.15394642603E+04  0.15394642603E+04  0.00000000000E+00 0. -1.
         23    2    1    2    0    0 -0.42678107223E+03 -0.86996012793E+03 -0.50584009402E+03  0.10966020929E+04  0.87688320389E+02 0.  0.
        254    2    1    2    0    0  0.42678107223E+03  0.86996012793E+03 -0.14373337110E+03  0.13327529627E+04  0.90365838114E+03 0.  0.
        -24    2    4    4    0    0  0.66912045488E+02  0.21670012233E+03 -0.45965583127E+03  0.51876117679E+03  0.79959430179E+02 0.  0.
         24    2    4    4    0    0  0.35986902674E+03  0.65326000560E+03  0.31592246017E+03  0.81399178591E+03  0.80754413934E+02 0.  0.
         11    1    3    3    0    0 -0.92800919740E+02 -0.12218062040E+03 -0.93636565166E+02  0.17974404314E+03  0.00000000000E+00 0. -1.
        -11    1    3    3    0    0 -0.33398015249E+03 -0.74777950753E+03 -0.41220352886E+03  0.91685804972E+03  0.00000000000E+00 0.  1.
          4    1    6    6  502    0  0.15724425180E+03  0.21423533495E+03  0.13130187512E+03  0.29641645682E+03  0.00000000000E+00 0. -1.
          1    1    5    5  503    0  0.15101268210E+02  0.14703196509E+03 -0.23168387460E+03  0.27481605632E+03  0.00000000000E+00 0. -1.
         -2    1    5    5    0  503  0.51810777278E+02  0.69668157244E+02 -0.22797195666E+03  0.24394512047E+03  0.00000000000E+00 0.  1.
         -3    1    6    6    0  502  0.20262477495E+03  0.43902467065E+03  0.18462058505E+03  0.51757532909E+03  0.00000000000E+00 0.  1.
<mgrwt>
<rscale>  0 0.23409016E+04</rscale>
<asrwt>0</asrwt>
<pdfrwt beam="1">  1        2 0.23684065E+00 0.23409016E+04</pdfrwt>
<pdfrwt beam="2">  1       -2 0.13690628E+00 0.23409016E+04</pdfrwt>
<totfact> 0.41479034E+00</totfact>
</mgrwt>
</event>
<event>
12    1  0.1980523E-007  0.4420577E+04  0.7818608E-02  0.7924691E-01
          2   -1    0    0  501    0  0.00000000000E+00  0.00000000000E+00  0.18816303715E+04  0.18816303715E+04  0.00000000000E+00 0. -1.
         -2   -1    0    0    0  501 -0.00000000000E+00 -0.00000000000E+00 -0.25963524516E+04  0.25963524516E+04  0.00000000000E+00 0.  1.
         23    2    1    2    0    0  0.21303177021E+03 -0.19429344197E+04  0.48067253072E+03  0.20152093135E+04  0.98213038894E+02 0.  0.
        254    2    1    2    0    0 -0.21303177021E+03  0.19429344197E+04 -0.11953946109E+04  0.24627735096E+04  0.90327647470E+03 0.  0.
        -24    2    4    4    0    0 -0.26428959197E+03  0.11837897478E+03 -0.48348258910E+02  0.30568636711E+03  0.85111872284E+02 0.  0.
         24    2    4    4    0    0  0.51257821764E+02  0.18245554449E+04 -0.11470463520E+04  0.21570871425E+04  0.75363592473E+02 0.  0.
         13    1    3    3    0    0  0.14088502677E+03 -0.83932255117E+03  0.21255279624E+03  0.87720557845E+03  0.00000000000E+00 0. -1.
        -13    1    3    3    0    0  0.72146743438E+02 -0.11036118685E+04  0.26811973448E+03  0.11380037350E+04  0.00000000000E+00 0.  1.
          4    1    6    6  502    0 -0.16920255403E+02  0.70201082039E+03 -0.43912538453E+03  0.82821288949E+03  0.00000000000E+00 0. -1.
          3    1    5    5  503    0 -0.11161394854E+03  0.48133332140E+02  0.21948832253E+02  0.12351616254E+03  0.00000000000E+00 0. -1.
         -4    1    5    5    0  503 -0.15267564343E+03  0.70245642642E+02 -0.70297091164E+02  0.18217020457E+03  0.00000000000E+00 0.  1.
         -3    1    6    6    0  502  0.68178077167E+02  0.11225446245E+04 -0.70792096746E+03  0.13288742530E+04  0.00000000000E+00 0.  1.
<mgrwt>
<rscale>  0 0.44205772E+04</rscale>
<asrwt>0</asrwt>
<pdfrwt beam="1">  1        2 0.28948160E+00 0.44205772E+04</pdfrwt>
<pdfrwt beam="2">  1       -2 0.39943884E+00 0.44205772E+04</pdfrwt>
<totfact> 0.44375655E-02</totfact>
</mgrwt>
</event>
<event>
12    1  0.1980523E-007  0.2189773E+04  0.7818608E-02  0.8522697E-01
         -2   -1    0    0    0  501 -0.00000000000E+00  0.00000000000E+00  0.57019405525E+03  0.57019405525E+03  0.00000000000E+00 0. -1.
          2   -1    0    0  501    0  0.00000000000E+00 -0.00000000000E+00 -0.21024011268E+04  0.21024011268E+04  0.00000000000E+00 0.  1.
         23    2    1    2    0    0 -0.30821729833E+03  0.81823617989E+03 -0.35304245859E+03  0.94673114083E+03  0.84572610118E+02 0.  0.
        254    2    1    2    0    0  0.30821729833E+03 -0.81823617989E+03 -0.11791646130E+04  0.17258640412E+04  0.90756220461E+03 0.  0.
        -24    2    4    4    0    0  0.83495419854E+02 -0.62967612424E+03 -0.15636022991E+03  0.65910209025E+03  0.80644511933E+02 0.  0.
         24    2    4    4    0    0  0.22472187847E+03 -0.18856005565E+03 -0.10228043831E+04  0.10667619510E+04  0.76140900802E+02 0.  0.
         13    1    3    3    0    0 -0.64234339699E+02  0.23445417050E+03 -0.13128207851E+03  0.27627846930E+03  0.00000000000E+00 0. -1.
        -13    1    3    3    0    0 -0.24398295863E+03  0.58378200938E+03 -0.22176038008E+03  0.67045267153E+03  0.00000000000E+00 0.  1.
          2    1    6    6  502    0  0.20903889622E+01 -0.23916393019E+02 -0.52643014511E+02  0.57858884866E+02  0.00000000000E+00 0. -1.
          3    1    5    5  503    0 -0.12478737977E+02 -0.13664298542E+03 -0.20234303024E+02  0.13869553484E+03  0.00000000000E+00 0. -1.
         -4    1    5    5    0  503  0.95974157831E+02 -0.49303313882E+03 -0.13612592688E+03  0.52040655541E+03  0.00000000000E+00 0.  1.
         -1    1    6    6    0  502  0.22263148951E+03 -0.16464366263E+03 -0.97016136855E+03  0.10089030661E+04  0.00000000000E+00 0.  1.
<mgrwt>
<rscale>  0 0.21897732E+04</rscale>
<asrwt>0</asrwt>
<pdfrwt beam="1">  1        2 0.32344633E+00 0.21897732E+04</pdfrwt>
<pdfrwt beam="2">  1       -2 0.87722162E-01 0.21897732E+04</pdfrwt>
<totfact> 0.60068125E+00</totfact>
</mgrwt>
</event>
<event>
12    1  0.1980523E-007  0.1613467E+04  0.7818608E-02  0.8812317E-01
         -1   -1    0    0    0  501 -0.00000000000E+00  0.00000000000E+00  0.28937887729E+03  0.28937887729E+03  0.00000000000E+00 0.  1.
          1   -1    0    0  501    0  0.00000000000E+00 -0.00000000000E+00 -0.22490210798E+04  0.22490210798E+04  0.00000000000E+00 0. -1.
         23    2    1    2    0    0  0.39035137417E+03  0.29139450374E+02 -0.67811589933E+02  0.40714695280E+03  0.89145535834E+02 0.  0.
        254    2    1    2    0    0 -0.39035137417E+03 -0.29139450374E+02 -0.18918306126E+04  0.21312530043E+04  0.89999611040E+03 0.  0.
        -24    2    4    4    0    0 -0.56580156839E+03 -0.86973622408E+02 -0.63613359939E+03  0.85952661869E+03  0.80151270632E+02 0.  0.
         24    2    4    4    0    0  0.17545019422E+03  0.57834172033E+02 -0.12556970132E+04  0.12717263856E+04  0.79909003225E+02 0.  0.
         11    1    3    3    0    0  0.30411316335E+03 -0.88514435471E+01 -0.72620086519E+02  0.31278881236E+03  0.00000000000E+00 0. -1.
        -11    1    3    3    0    0  0.86238210827E+02  0.37990893922E+02  0.48084965858E+01  0.94358140439E+02  0.00000000000E+00 0.  1.
          4    1    6    6  502    0  0.15912008960E+03  0.42412309887E+02 -0.87460241512E+03  0.88997044416E+03  0.00000000000E+00 0. -1.
          1    1    5    5  503    0 -0.28137993128E+03 -0.22829357317E+02 -0.36447883424E+03  0.46102132911E+03  0.00000000000E+00 0. -1.
         -2    1    5    5    0  503 -0.28442163711E+03 -0.64144265091E+02 -0.27165476515E+03  0.39850528959E+03  0.00000000000E+00 0.  1.
         -3    1    6    6    0  502  0.16330104620E+02  0.15421862147E+02 -0.38109459805E+03  0.38175594142E+03  0.00000000000E+00 0.  1.
<mgrwt>
<rscale>  0 0.16134673E+04</rscale>
<asrwt>0</asrwt>
<pdfrwt beam="1">  1        1 0.34600325E+00 0.16134673E+04</pdfrwt>
<pdfrwt beam="2">  1       -1 0.44519826E-01 0.16134673E+04</pdfrwt>
<totfact> 0.96690202E+00</totfact>
</mgrwt>
</event>
<event>
12    1  0.1980523E-007  0.2226204E+04  0.7818608E-02  0.8507600E-01
         -1   -1    0    0    0  501 -0.00000000000E+00  0.00000000000E+00  0.71364133094E+03  0.71364133094E+03  0.00000000000E+00 0.  1.
          1   -1    0    0  501    0  0.00000000000E+00 -0.00000000000E+00 -0.17361604804E+04  0.17361604804E+04  0.00000000000E+00 0. -1.
         23    2    1    2    0    0  0.71269780589E+03 -0.22993547039E+03 -0.10332287573E+04  0.12792957439E+04  0.90705305817E+02 0.  0.
        254    2    1    2    0    0 -0.71269780589E+03  0.22993547039E+03  0.10709607835E+02  0.11705060674E+04  0.89953392102E+03 0.  0.
        -24    2    4    4    0    0 -0.34674487871E+03  0.30070802033E+03  0.40877110031E+03  0.61936445250E+03  0.76558397120E+02 0.  0.
         24    2    4    4    0    0 -0.36595292718E+03 -0.70772549942E+02 -0.39806149248E+03  0.55114161490E+03  0.79836264567E+02 0.  0.
         13    1    3    3    0    0  0.29629083031E+03 -0.52908246629E+02 -0.38251487151E+03  0.48672904743E+03  0.00000000000E+00 0.  1.
        -13    1    3    3    0    0  0.41640697558E+03 -0.17702722376E+03 -0.65071388579E+03  0.79256669652E+03  0.00000000000E+00 0. -1.
          2    1    6    6  502    0 -0.24469066679E+03 -0.55482353031E+02 -0.21172667356E+03  0.32829864180E+03  0.00000000000E+00 0. -1.
          1    1    5    5  503    0 -0.84516602556E+02  0.11093003104E+03  0.15121209927E+03  0.20570276338E+03  0.00000000000E+00 0. -1.
         -2    1    5    5    0  503 -0.26222827615E+03  0.18977798929E+03  0.25755900104E+03  0.41366168913E+03  0.00000000000E+00 0.  1.
         -1    1    6    6    0  502 -0.12126226039E+03 -0.15290196911E+02 -0.18633481892E+03  0.22284297310E+03  0.00000000000E+00 0.  1.
<mgrwt>
<rscale>  0 0.22262038E+04</rscale>
<asrwt>0</asrwt>
<pdfrwt beam="1">  1        1 0.26710161E+00 0.22262038E+04</pdfrwt>
<pdfrwt beam="2">  1       -1 0.10979098E+00 0.22262038E+04</pdfrwt>
<totfact> 0.31397311E+00</totfact>
</mgrwt>
</event>
<event>
12    1  0.1980523E-007  0.1316325E+04  0.7818608E-02  0.9016719E-01
         -2   -1    0    0    0  501 -0.00000000000E+00  0.00000000000E+00  0.17977471486E+03  0.17977471486E+03  0.00000000000E+00 0.  1.
          2   -1    0    0  501    0  0.00000000000E+00 -0.00000000000E+00 -0.24095582944E+04  0.24095582944E+04  0.00000000000E+00 0. -1.
         23    2    1    2    0    0  0.23848954745E+03 -0.23961451951E+03 -0.48769807259E+03  0.60052845251E+03  0.92155466818E+02 0.  0.
        254    2    1    2    0    0 -0.23848954745E+03  0.23961451951E+03 -0.17420855069E+04  0.19888045567E+04  0.89788043146E+03 0.  0.
        -24    2    4    4    0    0 -0.17900309636E+03  0.39488503782E+02  0.30937707375E+02  0.20182236944E+03  0.78572747382E+02 0.  0.
         24    2    4    4    0    0 -0.59486451092E+02  0.20012601573E+03 -0.17730232143E+04  0.17869821873E+04  0.78134238275E+02 0.  0.
         11    1    3    3    0    0  0.11471548045E+03 -0.57166723576E+02 -0.15089655908E+03  0.19798345203E+03  0.00000000000E+00 0. -1.
        -11    1    3    3    0    0  0.12377406701E+03 -0.18244779593E+03 -0.33680151351E+03  0.40254500048E+03  0.00000000000E+00 0.  1.
          4    1    6    6  502    0 -0.40077580551E+02  0.40952650950E+02 -0.31514412058E+03  0.32031101888E+03  0.00000000000E+00 0. -1.
          1    1    5    5  503    0  0.17047149171E+00 -0.16902313702E+01  0.17396988477E+02  0.17479735430E+02  0.00000000000E+00 0. -1.
         -2    1    5    5    0  503 -0.17917356785E+03  0.41178735152E+02  0.13540718898E+02  0.18434263401E+03  0.00000000000E+00 0.  1.
         -3    1    6    6    0  502 -0.19408870541E+02  0.15917336478E+03 -0.14578790937E+04  0.14666711684E+04  0.00000000000E+00 0.  1.
<mgrwt>
<rscale>  0 0.13163247E+04</rscale>
<asrwt>0</asrwt>
<pdfrwt beam="1">  1        2 0.37070128E+00 0.13163247E+04</pdfrwt>
<pdfrwt beam="2">  1       -2 0.27657648E-01 0.13163247E+04</pdfrwt>
<totfact> 0.46002736E+01</totfact>
</mgrwt>
</event>
<event>
12    1  0.1980523E-007  0.1550282E+04  0.7818608E-02  0.8851687E-01
         -1   -1    0    0    0  501 -0.00000000000E+00  0.00000000000E+00  0.19744313548E+03  0.19744313548E+03  0.00000000000E+00 0.  1.
          1   -1    0    0  501    0  0.00000000000E+00 -0.00000000000E+00 -0.30431237757E+04  0.30431237757E+04  0.00000000000E+00 0. -1.
         23    2    1    2    0    0  0.95771701496E+02 -0.25943245472E+03 -0.18425992058E+04  0.18655751318E+04  0.93388015978E+02 0.  0.
        254    2    1    2    0    0 -0.95771701496E+02  0.25943245472E+03 -0.10030814344E+04  0.13749917794E+04  0.89886184260E+03 0.  0.
        -24    2    4    4    0    0 -0.42003302892E+03 -0.67423591635E+02 -0.29085080930E+03  0.52313712731E+03  0.90025410916E+02 0.  0.
         24    2    4    4    0    0  0.32426132742E+03  0.32685604636E+03 -0.71223062510E+03  0.85185465212E+03  0.80022506182E+02 0.  0.
         11    1    3    3    0    0 -0.14236421443E+02 -0.81207825919E+02 -0.52168910080E+03  0.52816371002E+03  0.00000000000E+00 0.  1.
        -11    1    3    3    0    0  0.11000812294E+03 -0.17822462881E+03 -0.13209101050E+04  0.13374114218E+04  0.00000000000E+00 0. -1.
          4    1    6    6  502    0  0.46130263874E+02  0.17429471992E+02 -0.53731495141E+02  0.72930523851E+02  0.00000000000E+00 0. -1.
          1    1    5    5  503    0 -0.13136013982E+03  0.18977364882E+02 -0.10359054721E+03  0.16836456927E+03  0.00000000000E+00 0. -1.
         -4    1    5    5    0  503 -0.28867288910E+03 -0.86400956517E+02 -0.18726026208E+03  0.35477255805E+03  0.00000000000E+00 0.  1.
         -3    1    6    6    0  502  0.27813106355E+03  0.30942657437E+03 -0.65849912996E+03  0.77892412827E+03  0.00000000000E+00 0.  1.
<mgrwt>
<rscale>  0 0.15502824E+04</rscale>
<asrwt>0</asrwt>
<pdfrwt beam="1">  1        1 0.46817285E+00 0.15502824E+04</pdfrwt>
<pdfrwt beam="2">  1       -1 0.30375870E-01 0.15502824E+04</pdfrwt>
<totfact> 0.53773792E+00</totfact>
</mgrwt>
</event>
<event>
12    1  0.1980523E-007  0.1515952E+04  0.7818608E-02  0.8873914E-01
          2   -1    0    0  501    0  0.00000000000E+00  0.00000000000E+00  0.20584739559E+04  0.20584739559E+04  0.00000000000E+00 0. -1.
         -2   -1    0    0    0  501 -0.00000000000E+00 -0.00000000000E+00 -0.27910361552E+03  0.27910361552E+03  0.00000000000E+00 0.  1.
         23    2    1    2    0    0  0.15323581079E+03  0.46095155943E+03  0.54767317370E+03  0.73781708152E+03  0.92035790531E+02 0.  0.
        254    2    1    2    0    0 -0.15323581079E+03 -0.46095155943E+03  0.12316971666E+04  0.15997604899E+04  0.89788538285E+03 0.  0.
        -24    2    4    4    0    0 -0.30670887785E+03 -0.17562767563E+03  0.12125336501E+04  0.12656029917E+04  0.81226003909E+02 0.  0.
         24    2    4    4    0    0  0.15347306706E+03 -0.28532388380E+03  0.19163516537E+02  0.33415749818E+03  0.79563133684E+02 0.  0.
         13    1    3    3    0    0  0.43383737925E+02  0.69670012511E+02  0.13927788862E+03  0.16166134237E+03  0.00000000000E+00 0. -1.
        -13    1    3    3    0    0  0.10985207287E+03  0.39128154692E+03  0.40839528508E+03  0.57615573915E+03  0.00000000000E+00 0.  1.
          2    1    6    6  502    0  0.40430093406E+02 -0.13060558976E+03  0.37212335002E+02  0.14169393214E+03  0.00000000000E+00 0. -1.
          3    1    5    5  503    0 -0.10663244959E+03 -0.31815882878E+02  0.48036519830E+03  0.49308564515E+03  0.00000000000E+00 0. -1.
         -4    1    5    5    0  503 -0.20007642826E+03 -0.14381179275E+03  0.73216845180E+03  0.77251734653E+03  0.00000000000E+00 0.  1.
         -1    1    6    6    0  502  0.11304297365E+03 -0.15471829405E+03 -0.18048818465E+02  0.19246356604E+03  0.00000000000E+00 0.  1.
<mgrwt>
<rscale>  0 0.15159519E+04</rscale>
<asrwt>0</asrwt>
<pdfrwt beam="1">  1        2 0.31668829E+00 0.15159519E+04</pdfrwt>
<pdfrwt beam="2">  1       -2 0.42939019E-01 0.15159519E+04</pdfrwt>
<totfact> 0.30773767E+01</totfact>
</mgrwt>
</event>
<event>
12    1  0.1980523E-007  0.1559016E+04  0.7818608E-02  0.8846129E-01
         -2   -1    0    0    0  501 -0.00000000000E+00  0.00000000000E+00  0.43478478789E+03  0.43478478789E+03  0.00000000000E+00 0.  1.
          2   -1    0    0  501    0  0.00000000000E+00 -0.00000000000E+00 -0.13975490683E+04  0.13975490683E+04  0.00000000000E+00 0. -1.
         23    2    1    2    0    0 -0.54962343012E+02  0.47201227097E+03 -0.91557277968E+02  0.49273266612E+03  0.92662300933E+02 0.  0.
        254    2    1    2    0    0  0.54962343012E+02 -0.47201227097E+03 -0.87120700239E+03  0.13396011900E+04  0.89984068824E+03 0.  0.
        -24    2    4    4    0    0  0.38566759088E+03 -0.54119770817E+03 -0.59924613032E+03  0.89845020283E+03  0.80513304914E+02 0.  0.
         24    2    4    4    0    0 -0.33070524787E+03  0.69185437202E+02 -0.27196087207E+03  0.44115098720E+03  0.80615704906E+02 0.  0.
         11    1    3    3    0    0 -0.67981690926E+02  0.25962304976E+03 -0.78149540982E+02  0.27952278802E+03  0.00000000000E+00 0. -1.
        -11    1    3    3    0    0  0.13019347914E+02  0.21238922121E+03 -0.13407736986E+02  0.21320987809E+03  0.00000000000E+00 0.  1.
          2    1    6    6  502    0 -0.15677460661E+03  0.83539848728E+01 -0.84495837031E+02  0.17829080968E+03  0.00000000000E+00 0. -1.
          3    1    5    5  503    0  0.14564936738E+03 -0.20334048564E+03 -0.27898309827E+03  0.37469008586E+03  0.00000000000E+00 0. -1.
         -4    1    5    5    0  503  0.24001822350E+03 -0.33785722253E+03 -0.32026303204E+03  0.52376011697E+03  0.00000000000E+00 0.  1.
         -1    1    6    6    0  502 -0.17393064126E+03  0.60831452330E+02 -0.18746503504E+03  0.26286017752E+03  0.00000000000E+00 0.  1.
<mgrwt>
<rscale>  0 0.15590165E+04</rscale>
<asrwt>0</asrwt>
<pdfrwt beam="1">  1        2 0.21500755E+00 0.15590165E+04</pdfrwt>
<pdfrwt beam="2">  1       -2 0.66889967E-01 0.15590165E+04</pdfrwt>
<totfact> 0.28656241E+01</totfact>
</mgrwt>
</event>
<event>
12    1  0.1980523E-007  0.1167455E+04  0.7818608E-02  0.9141830E-01
          1   -1    0    0  501    0  0.00000000000E+00  0.00000000000E+00  0.32577056348E+04  0.32577056348E+04  0.00000000000E+00 0. -1.
         -1   -1    0    0    0  501 -0.00000000000E+00 -0.00000000000E+00 -0.10459436116E+03  0.10459436116E+03  0.00000000000E+00 0.  1.
         23    2    1    2    0    0  0.34151031617E+02  0.19311072859E+03  0.34381437441E+03  0.40602259205E+03  0.90487428671E+02 0.  0.
        254    2    1    2    0    0 -0.34151031617E+02 -0.19311072859E+03  0.28092968993E+04  0.29562774039E+04  0.89942702563E+03 0.  0.
        -24    2    4    4    0    0 -0.13452264115E+03 -0.52403932538E+03  0.19642489207E+04  0.20391543424E+04  0.84634828828E+02 0.  0.
         24    2    4    4    0    0  0.10037160954E+03  0.33092859678E+03  0.84504797855E+03  0.91712306151E+03  0.86141904607E+02 0.  0.
         11    1    3    3    0    0  0.47784740175E+02  0.53945531271E+02  0.81699816070E+02  0.10894201065E+03  0.00000000000E+00 0.  1.
        -11    1    3    3    0    0 -0.13633708559E+02  0.13916519732E+03  0.26211455834E+03  0.29708058141E+03  0.00000000000E+00 0. -1.
          4    1    6    6  502    0  0.97385282676E+02  0.19636796376E+03  0.57578754996E+03  0.61609704849E+03  0.00000000000E+00 0. -1.
          1    1    5    5  503    0 -0.10301549635E+03 -0.24948534222E+03  0.89940335084E+03  0.93903222307E+03  0.00000000000E+00 0. -1.
         -4    1    5    5    0  503 -0.31507144803E+02 -0.27455398316E+03  0.10648455699E+04  0.11001221194E+04  0.00000000000E+00 0.  1.
         -3    1    6    6    0  502  0.29863268616E+01  0.13456063302E+03  0.26926042860E+03  0.30102601302E+03  0.00000000000E+00 0.  1.
<mgrwt>
<rscale>  0 0.11674547E+04</rscale>
<asrwt>0</asrwt>
<pdfrwt beam="1">  1        1 0.50118541E+00 0.11674547E+04</pdfrwt>
<pdfrwt beam="2">  1       -1 0.16091443E-01 0.11674547E+04</pdfrwt>
<totfact> 0.11406067E+01</totfact>
</mgrwt>
</event>
<event>
12    1  0.1980523E-007  0.2224851E+04  0.7818608E-02  0.8508155E-01
          2   -1    0    0  501    0  0.00000000000E+00  0.00000000000E+00  0.26827444425E+04  0.26827444425E+04  0.00000000000E+00 0. -1.
         -2   -1    0    0    0  501 -0.00000000000E+00 -0.00000000000E+00 -0.46127782465E+03  0.46127782465E+03  0.00000000000E+00 0.  1.
         23    2    1    2    0    0 -0.85478870576E+03 -0.16703796823E+03  0.13710443318E+04  0.16268237138E+04  0.90705135922E+02 0.  0.
        254    2    1    2    0    0  0.85478870576E+03  0.16703796823E+03  0.85042228606E+03  0.15171985534E+04  0.90559812909E+03 0.  0.
        -24    2    4    4    0    0  0.58873309797E+03 -0.28800771175E+03  0.70158756323E+03  0.96329046645E+03  0.78411167677E+02 0.  0.
         24    2    4    4    0    0  0.26605560779E+03  0.45504567998E+03  0.14883472283E+03  0.55390808692E+03  0.82524158450E+02 0.  0.
         11    1    3    3    0    0 -0.27649097385E+03 -0.66424463587E+02  0.37401687587E+03  0.46983836734E+03  0.00000000000E+00 0.  1.
        -11    1    3    3    0    0 -0.57829773191E+03 -0.10061350464E+03  0.99702745595E+03  0.11569853465E+04  0.00000000000E+00 0. -1.
          2    1    6    6  502    0 -0.13586633045E+01  0.14774669679E+02  0.16237950141E+02  0.21995632633E+02  0.00000000000E+00 0. -1.
          3    1    5    5  503    0  0.77869277984E+02 -0.53635687461E+02  0.13843335017E+03  0.16764308475E+03  0.00000000000E+00 0. -1.
         -4    1    5    5    0  503  0.51086381998E+03 -0.23437202429E+03  0.56315421305E+03  0.79564738171E+03  0.00000000000E+00 0.  1.
         -1    1    6    6    0  502  0.26741427110E+03  0.44027101030E+03  0.13259677269E+03  0.53191245429E+03  0.00000000000E+00 0.  1.
<mgrwt>
<rscale>  0 0.22248510E+04</rscale>
<asrwt>0</asrwt>
<pdfrwt beam="1">  1        2 0.41272990E+00 0.22248510E+04</pdfrwt>
<pdfrwt beam="2">  1       -2 0.70965821E-01 0.22248510E+04</pdfrwt>
<totfact> 0.44758065E+00</totfact>
</mgrwt>
</event>
<event>
12    1  0.1980523E-007  0.2694195E+04  0.7818608E-02  0.8336891E-01
          1   -1    0    0  501    0  0.00000000000E+00  0.00000000000E+00  0.13966719661E+04  0.13966719661E+04  0.00000000000E+00 0. -1.
         -1   -1    0    0    0  501 -0.00000000000E+00 -0.00000000000E+00 -0.12992824035E+04  0.12992824035E+04  0.00000000000E+00 0.  1.
         23    2    1    2    0    0  0.77451655016E+03  0.42686329707E+03 -0.75947340275E+03  0.11692075979E+04  0.90323843188E+02 0.  0.
        254    2    1    2    0    0 -0.77451655016E+03 -0.42686329707E+03  0.85686296538E+03  0.15267467717E+04  0.90258152138E+03 0.  0.
        -24    2    4    4    0    0 -0.46752979090E+03 -0.64218057177E+03  0.81453715770E+03  0.11405920059E+04  0.80618550116E+02 0.  0.
         24    2    4    4    0    0 -0.30698675926E+03  0.21531727470E+03  0.42325807681E+02  0.38615476580E+03  0.81985547545E+02 0.  0.
         13    1    3    3    0    0  0.38027319243E+03  0.24881013420E+03 -0.42757771681E+03  0.62396865921E+03  0.00000000000E+00 0.  1.
        -13    1    3    3    0    0  0.39424335773E+03  0.17805316287E+03 -0.33189568595E+03  0.54523893870E+03  0.00000000000E+00 0. -1.
          2    1    6    6  502    0 -0.63323012245E+02  0.82721368503E+01  0.22165932807E+01  0.63899494627E+02  0.00000000000E+00 0. -1.
          1    1    5    5  503    0 -0.41484696102E+02 -0.53395353128E+02  0.40395555418E+02  0.78764488470E+02  0.00000000000E+00 0. -1.
         -4    1    5    5    0  503 -0.42604509480E+03 -0.58878521864E+03  0.77414160228E+03  0.10618275175E+04  0.00000000000E+00 0.  1.
         -1    1    6    6    0  502 -0.24366374702E+03  0.20704513785E+03  0.40109214401E+02  0.32225527117E+03  0.00000000000E+00 0.  1.
<mgrwt>
<rscale>  0 0.26941947E+04</rscale>
<asrwt>0</asrwt>
<pdfrwt beam="1">  1        1 0.21487261E+00 0.26941947E+04</pdfrwt>
<pdfrwt beam="2">  1       -1 0.19988960E+00 0.26941947E+04</pdfrwt>
<totfact> 0.10174217E+00</totfact>
</mgrwt>
</event>
<event>
12    1  0.1980523E-007  0.2643058E+04  0.7818608E-02  0.8353721E-01
          2   -1    0    0  501    0  0.00000000000E+00  0.00000000000E+00  0.22267500893E+04  0.22267500893E+04  0.00000000000E+00 0. -1.
         -2   -1    0    0    0  501 -0.00000000000E+00 -0.00000000000E+00 -0.78429949550E+03  0.78429949550E+03  0.00000000000E+00 0.  1.
         23    2    1    2    0    0 -0.45219667037E+03 -0.10448818469E+04  0.35542778733E+03  0.11963184113E+04  0.92676461461E+02 0.  0.
        254    2    1    2    0    0  0.45219667037E+03  0.10448818469E+04  0.10870228065E+04  0.18147311735E+04  0.90297881911E+03 0.  0.
        -24    2    4    4    0    0 -0.14891168581E+03  0.27170010394E+03  0.67905729343E+03  0.75066648117E+03  0.79910709755E+02 0.  0.
         24    2    4    4    0    0  0.60110835618E+03  0.77318174294E+03  0.40796551306E+03  0.10640646924E+04  0.81587659783E+02 0.  0.
         13    1    3    3    0    0 -0.35871171110E+03 -0.75539117555E+03  0.29048953356E+03  0.88525368618E+03  0.00000000000E+00 0. -1.
        -13    1    3    3    0    0 -0.93484959275E+02 -0.28949067133E+03  0.64938253765E+02  0.31106472509E+03  0.00000000000E+00 0.  1.
          2    1    6    6  502    0  0.26085368089E+03  0.29549007480E+03  0.19832610988E+03  0.44123947352E+03  0.00000000000E+00 0. -1.
          3    1    5    5  503    0 -0.13821994022E+03  0.20059400449E+03  0.57188844696E+03  0.62161008862E+03  0.00000000000E+00 0. -1.
         -4    1    5    5    0  503 -0.10691745585E+02  0.71106099443E+02  0.10716884648E+03  0.12905639255E+03  0.00000000000E+00 0.  1.
         -1    1    6    6    0  502  0.34025467529E+03  0.47769166814E+03  0.20963940318E+03  0.62282521885E+03  0.00000000000E+00 0.  1.
<mgrwt>
<rscale>  0 0.26430581E+04</rscale>
<asrwt>0</asrwt>
<pdfrwt beam="1">  1        2 0.34257693E+00 0.26430581E+04</pdfrwt>
<pdfrwt beam="2">  1       -2 0.12066146E+00 0.26430581E+04</pdfrwt>
<totfact> 0.23024376E+00</totfact>
</mgrwt>
</event>
<event>
12    1  0.1980523E-007  0.2232480E+04  0.7818608E-02  0.8505030E-01
          2   -1    0    0  501    0  0.00000000000E+00  0.00000000000E+00  0.87638783574E+03  0.87638783574E+03  0.00000000000E+00 0. -1.
         -2   -1    0    0    0  501 -0.00000000000E+00 -0.00000000000E+00 -0.14217352767E+04  0.14217352767E+04  0.00000000000E+00 0.  1.
         23    2    1    2    0    0  0.55965413736E+03  0.31660443499E+03  0.47988021401E+03  0.80758916205E+03  0.92000614911E+02 0.  0.
        254    2    1    2    0    0 -0.55965413736E+03 -0.31660443499E+03 -0.10252276550E+04  0.14905339504E+04  0.87014285670E+03 0.  0.
        -24    2    4    4    0    0 -0.83282829161E+02  0.12271489225E+03 -0.77145992362E+03  0.78958493561E+03  0.79366128588E+02 0.  0.
         24    2    4    4    0    0 -0.47637130820E+03 -0.43931932724E+03 -0.25376773138E+03  0.70094901482E+03  0.83668185841E+02 0.  0.
         11    1    3    3    0    0  0.11851474586E+03  0.96269562189E+02  0.15186092640E+03  0.21534928502E+03  0.00000000000E+00 0. -1.
        -11    1    3    3    0    0  0.44113939150E+03  0.22033487280E+03  0.32801928761E+03  0.59223987703E+03  0.00000000000E+00 0.  1.
          2    1    6    6  502    0 -0.62443748694E+01 -0.82170008151E+01  0.63170143063E+01  0.12100247504E+02  0.00000000000E+00 0. -1.
          3    1    5    5  503    0 -0.62072062226E+02  0.23919763314E+02 -0.34054074461E+03  0.34697708098E+03  0.00000000000E+00 0. -1.
         -4    1    5    5    0  503 -0.21210766936E+02  0.98795128938E+02 -0.43091917901E+03  0.44260785463E+03  0.00000000000E+00 0.  1.
         -1    1    6    6    0  502 -0.47012693333E+03 -0.43110232642E+03 -0.26008474569E+03  0.68884876731E+03  0.00000000000E+00 0.  1.
<mgrwt>
<rscale>  0 0.22324798E+04</rscale>
<asrwt>0</asrwt>
<pdfrwt beam="1">  1        2 0.13482890E+00 0.22324798E+04</pdfrwt>
<pdfrwt beam="2">  1       -2 0.21872850E+00 0.22324798E+04</pdfrwt>
<totfact> 0.27922158E+00</totfact>
</mgrwt>
</event>
<event>
12    1  0.1980523E-007  0.3356868E+04  0.7818608E-02  0.8148574E-01
         -2   -1    0    0    0  501 -0.00000000000E+00  0.00000000000E+00  0.10815910360E+04  0.10815910360E+04  0.00000000000E+00 0.  1.
          2   -1    0    0  501    0  0.00000000000E+00 -0.00000000000E+00 -0.26046263422E+04  0.26046263422E+04  0.00000000000E+00 0. -1.
         23    2    1    2    0    0  0.68591942983E+03  0.93725082672E+03 -0.18441765499E+04  0.21813529940E+04  0.91592361462E+02 0.  0.
        254    2    1    2    0    0 -0.68591942983E+03 -0.93725082672E+03  0.32114124379E+03  0.15048643842E+04  0.90142139978E+03 0.  0.
        -24    2    4    4    0    0 -0.70708332933E+03 -0.45819344237E+03 -0.11198066875E+03  0.85376666703E+03  0.80434981883E+02 0.  0.
         24    2    4    4    0    0  0.21163899498E+02 -0.47905738434E+03  0.43312191254E+03  0.65109771717E+03  0.79935962175E+02 0.  0.
         13    1    3    3    0    0  0.42162596279E+03  0.57064807114E+03 -0.12087268002E+04  0.14015805903E+04  0.00000000000E+00 0. -1.
        -13    1    3    3    0    0  0.26429346705E+03  0.36660275558E+03 -0.63544974970E+03  0.77977240366E+03  0.00000000000E+00 0.  1.
          4    1    6    6  502    0  0.16542904569E+02 -0.25896350543E+02  0.13828844365E+02  0.33697560735E+02  0.00000000000E+00 0. -1.
          1    1    5    5  503    0 -0.25070075206E+02 -0.28663689295E+02  0.79223318054E+01  0.38895746504E+02  0.00000000000E+00 0. -1.
         -4    1    5    5    0  503 -0.68201325412E+03 -0.42952975308E+03 -0.11990300056E+03  0.81487092053E+03  0.00000000000E+00 0.  1.
         -1    1    6    6    0  502  0.46209949287E+01 -0.45316103380E+03  0.41929306818E+03  0.61740015644E+03  0.00000000000E+00 0.  1.
<mgrwt>
<rscale>  0 0.33568679E+04</rscale>
<asrwt>0</asrwt>
<pdfrwt beam="1">  1        2 0.40071174E+00 0.33568679E+04</pdfrwt>
<pdfrwt beam="2">  1       -2 0.16639862E+00 0.33568679E+04</pdfrwt>
<totfact> 0.56853588E-01</totfact>
</mgrwt>
</event>
<event>
12    1  0.2182550E-007  0.2949258E+04  0.7818608E-02  0.8258371E-01
         -1   -1    0    0    0  501 -0.00000000000E+00  0.00000000000E+00  0.97726132986E+03  0.97726132986E+03  0.00000000000E+00 0.  1.
          1   -1    0    0  501    0  0.00000000000E+00 -0.00000000000E+00 -0.22251278275E+04  0.22251278275E+04  0.00000000000E+00 0. -1.
         23    2    1    2    0    0  0.61524017338E+03 -0.10868165842E+04 -0.55856035723E+02  0.12529206321E+04  0.83662745880E+02 0.  0.
        254    2    1    2    0    0 -0.61524017338E+03  0.10868165842E+04 -0.11920104619E+04  0.19494685253E+04  0.90545448872E+03 0.  0.
        -24    2    4    4    0    0 -0.24091860281E+02  0.77210389618E+03 -0.30320232928E+03  0.83372128345E+03  0.80216468179E+02 0.  0.
         24    2    4    4    0    0 -0.59114831309E+03  0.31471268799E+03 -0.88880813267E+03  0.11157472418E+04  0.80072510413E+02 0.  0.
         13    1    3    3    0    0  0.18089782798E+03 -0.26589826669E+03 -0.39688848214E+02  0.32403875859E+03  0.00000000000E+00 0.  1.
        -13    1    3    3    0    0  0.43434234540E+03 -0.82091831748E+03 -0.16167187509E+02  0.92888187351E+03  0.00000000000E+00 0. -1.
          4    1    6    6  502    0 -0.19665469080E+02  0.16998046910E+02 -0.63941327031E+02  0.69022877188E+02  0.00000000000E+00 0. -1.
          1    1    5    5  503    0 -0.11608923494E+02  0.32134429361E+02 -0.27859943985E+02  0.44085883613E+02  0.00000000000E+00 0. -1.
         -2    1    5    5    0  503 -0.12482936787E+02  0.73996946682E+03 -0.27534238530E+03  0.78963539984E+03  0.00000000000E+00 0.  1.
         -3    1    6    6    0  502 -0.57148284402E+03  0.29771464108E+03 -0.82486680563E+03  0.10467243647E+04  0.00000000000E+00 0.  1.
<mgrwt>
<rscale>  0 0.29492585E+04</rscale>
<asrwt>0</asrwt>
<pdfrwt beam="1">  1        1 0.34232736E+00 0.29492585E+04</pdfrwt>
<pdfrwt beam="2">  1       -1 0.15034790E+00 0.29492585E+04</pdfrwt>
<totfact> 0.62051719E-01</totfact>
</mgrwt>
</event>
<event>
12    1  0.1980523E-007  0.2551771E+04  0.7818608E-02  0.8384770E-01
          2   -1    0    0  501    0  0.00000000000E+00  0.00000000000E+00  0.13705310272E+04  0.13705310272E+04  0.00000000000E+00 0. -1.
         -2   -1    0    0    0  501 -0.00000000000E+00 -0.00000000000E+00 -0.11877760814E+04  0.11877760814E+04  0.00000000000E+00 0.  1.
         23    2    1    2    0    0 -0.69102227843E+03  0.70332661504E+02  0.95259513329E+03  0.11822784065E+04  0.88804672946E+02 0.  0.
        254    2    1    2    0    0  0.69102227843E+03 -0.70332661504E+02 -0.76984018741E+03  0.13760287021E+04  0.90462290615E+03 0.  0.
        -24    2    4    4    0    0  0.74693573703E+03 -0.34507439994E+03 -0.44299787463E+03  0.93785167588E+03  0.79556975077E+02 0.  0.
         24    2    4    4    0    0 -0.55913458604E+02  0.27474173844E+03 -0.32684231279E+03  0.43817702623E+03  0.81017721483E+02 0.  0.
         13    1    3    3    0    0 -0.56648449284E+03  0.23177935456E+02  0.77995244425E+03  0.96424463318E+03  0.00000000000E+00 0. -1.
        -13    1    3    3    0    0 -0.12453778559E+03  0.47154726048E+02  0.17264268904E+03  0.21803377332E+03  0.00000000000E+00 0.  1.
          2    1    6    6  502    0  0.67018946450E+01  0.20983816968E+02 -0.33343485109E+01  0.22279000120E+02  0.00000000000E+00 0. -1.
          3    1    5    5  503    0  0.11248377542E+03 -0.67407295174E+02 -0.10062346119E+03  0.16529193604E+03  0.00000000000E+00 0. -1.
         -4    1    5    5    0  503  0.63445196161E+03 -0.27766710477E+03 -0.34237441343E+03  0.77255973985E+03  0.00000000000E+00 0.  1.
         -1    1    6    6    0  502 -0.62615353249E+02  0.25375792147E+03 -0.32350796428E+03  0.41589802611E+03  0.00000000000E+00 0.  1.
<mgrwt>
<rscale>  0 0.25517711E+04</rscale>
<asrwt>0</asrwt>
<pdfrwt beam="1">  1        2 0.21085093E+00 0.25517711E+04</pdfrwt>
<pdfrwt beam="2">  1       -2 0.18273478E+00 0.25517711E+04</pdfrwt>
<totfact> 0.23203019E+00</totfact>
</mgrwt>
</event>
<event>
12    1  0.1980523E-007  0.2075186E+04  0.7818608E-02  0.8572254E-01
          2   -1    0    0  501    0  0.00000000000E+00  0.00000000000E+00  0.14091335491E+04  0.14091335491E+04  0.00000000000E+00 0. -1.
         -2   -1    0    0    0  501 -0.00000000000E+00 -0.00000000000E+00 -0.76401479882E+03  0.76401479882E+03  0.00000000000E+00 0.  1.
         23    2    1    2    0    0  0.47035646474E+03  0.47806347663E+03 -0.26618029393E+03  0.72725363619E+03  0.90917604829E+02 0.  0.
        254    2    1    2    0    0 -0.47035646474E+03 -0.47806347663E+03  0.91129904417E+03  0.14458947117E+04  0.90020313138E+03 0.  0.
        -24    2    4    4    0    0  0.20194156763E+03 -0.36136420581E+03  0.23853916027E+03  0.48433251168E+03  0.79451651428E+02 0.  0.
         24    2    4    4    0    0 -0.67229803236E+03 -0.11669927083E+03  0.67275988390E+03  0.96156220000E+03  0.79953980212E+02 0.  0.
         13    1    3    3    0    0  0.11346255989E+03  0.10916827706E+03 -0.10503396867E+03  0.18927123339E+03  0.00000000000E+00 0.  1.
        -13    1    3    3    0    0  0.35689390485E+03  0.36889519957E+03 -0.16114632526E+03  0.53798240281E+03  0.00000000000E+00 0. -1.
          2    1    6    6  502    0 -0.14774196239E+02 -0.12694036603E+02  0.88796924687E+01  0.21407110457E+02  0.00000000000E+00 0. -1.
          1    1    5    5  503    0  0.38862219984E+02 -0.28716477017E+02  0.10976414341E+02  0.49551890642E+02  0.00000000000E+00 0. -1.
         -2    1    5    5    0  503  0.16307934764E+03 -0.33264772879E+03  0.22756274593E+03  0.43478062104E+03  0.00000000000E+00 0.  1.
         -1    1    6    6    0  502 -0.65752383613E+03 -0.10400523423E+03  0.66388019143E+03  0.94015508954E+03  0.00000000000E+00 0.  1.
<mgrwt>
<rscale>  0 0.20751857E+04</rscale>
<asrwt>0</asrwt>
<pdfrwt beam="1">  1        2 0.21678978E+00 0.20751857E+04</pdfrwt>
<pdfrwt beam="2">  1       -2 0.11754074E+00 0.20751857E+04</pdfrwt>
<totfact> 0.73803801E+00</totfact>
</mgrwt>
</event>
<event>
12    1  0.1980523E-007  0.1315184E+04  0.7818608E-02  0.9017610E-01
          2   -1    0    0  501    0  0.00000000000E+00  0.00000000000E+00  0.90360789586E+03  0.90360789586E+03  0.00000000000E+00 0.  1.
         -2   -1    0    0    0  501 -0.00000000000E+00 -0.00000000000E+00 -0.47855602549E+03  0.47855602549E+03  0.00000000000E+00 0. -1.
         23    2    1    2    0    0  0.23919270242E+03 -0.18991497740E+03 -0.42854582889E+02  0.32250714835E+03  0.94305344115E+02 0.  0.
        254    2    1    2    0    0 -0.23919270242E+03  0.18991497740E+03  0.46790645326E+03  0.10596567730E+04  0.90036391534E+03 0.  0.
        -24    2    4    4    0    0  0.21394081109E+03 -0.48108210309E+02 -0.13085255361E+03  0.26719600659E+03  0.78652683381E+02 0.  0.
         24    2    4    4    0    0 -0.45313351350E+03  0.23802318771E+03  0.59875900686E+03  0.79246076641E+03  0.86583480265E+02 0.  0.
         13    1    3    3    0    0  0.21586294818E+03 -0.19349260678E+03 -0.21513705094E+02  0.29068718716E+03  0.00000000000E+00 0.  1.
        -13    1    3    3    0    0  0.23329754239E+02  0.35776293725E+01 -0.21340877795E+02  0.31819961185E+02  0.00000000000E+00 0. -1.
          4    1    6    6  502    0 -0.31370739205E+03  0.15671308757E+03  0.46761192997E+03  0.58449314512E+03  0.00000000000E+00 0. -1.
          3    1    5    5  503    0  0.21007665145E+03 -0.45099283830E+02 -0.10184578188E+03  0.23777869579E+03  0.00000000000E+00 0. -1.
         -2    1    5    5    0  503  0.38641596378E+01 -0.30089264787E+01 -0.29006771730E+02  0.29417310796E+02  0.00000000000E+00 0.  1.
         -3    1    6    6    0  502 -0.13942612145E+03  0.81310100142E+02  0.13114707690E+03  0.20796762129E+03  0.00000000000E+00 0.  1.
<mgrwt>
<rscale>  0 0.13151836E+04</rscale>
<asrwt>0</asrwt>
<pdfrwt beam="1">  1        2 0.13901660E+00 0.13151836E+04</pdfrwt>
<pdfrwt beam="2">  1       -2 0.73624004E-01 0.13151836E+04</pdfrwt>
<totfact> 0.47512406E+01</totfact>
</mgrwt>
</event>
<event>
12    1  0.1980523E-007  0.1967264E+04  0.7818608E-02  0.8622080E-01
          1   -1    0    0  501    0  0.00000000000E+00  0.00000000000E+00  0.28581760623E+04  0.28581760623E+04  0.00000000000E+00 0. -1.
         -1   -1    0    0    0  501 -0.00000000000E+00 -0.00000000000E+00 -0.33851382556E+03  0.33851382556E+03  0.00000000000E+00 0.  1.
         23    2    1    2    0    0 -0.32767308267E+03 -0.56486883111E+03  0.32023269568E+03  0.73285432888E+03  0.89889056685E+02 0.  0.
        254    2    1    2    0    0  0.32767308267E+03  0.56486883111E+03  0.21994295410E+04  0.24638355590E+04  0.89808068130E+03 0.  0.
        -24    2    4    4    0    0  0.48760079247E+03  0.56490697522E+03  0.99459369500E+03  0.12458624718E+04  0.77988826882E+02 0.  0.
         24    2    4    4    0    0 -0.15992770980E+03 -0.38144104185E-01  0.12048358460E+04  0.12179730871E+04  0.79070546080E+02 0.  0.
         11    1    3    3    0    0 -0.17300843461E+03 -0.26645633815E+03  0.20237336838E+03  0.37667742010E+03  0.00000000000E+00 0. -1.
        -11    1    3    3    0    0 -0.15466464806E+03 -0.29841249296E+03  0.11785932730E+03  0.35617690878E+03  0.00000000000E+00 0.  1.
          2    1    6    6  502    0 -0.14157292716E+03  0.25261699587E+02  0.10663670565E+04  0.10760203280E+04  0.00000000000E+00 0. -1.
          1    1    5    5  503    0  0.37102470201E+03  0.39049887560E+03  0.67523801069E+03  0.86376795057E+03  0.00000000000E+00 0. -1.
         -2    1    5    5    0  503  0.11657609046E+03  0.17440809961E+03  0.31935568431E+03  0.38209452126E+03  0.00000000000E+00 0.  1.
         -1    1    6    6    0  502 -0.18354782636E+02 -0.25299843692E+02  0.13846878954E+03  0.14195275909E+03  0.00000000000E+00 0.  1.
<mgrwt>
<rscale>  0 0.19672642E+04</rscale>
<asrwt>0</asrwt>
<pdfrwt beam="1">  1        1 0.43971938E+00 0.19672642E+04</pdfrwt>
<pdfrwt beam="2">  1       -1 0.52079052E-01 0.19672642E+04</pdfrwt>
<totfact> 0.26192342E+00</totfact>
</mgrwt>
</event>
<event>
12    1  0.1980523E-007  0.2594237E+04  0.7818608E-02  0.8370161E-01
          1   -1    0    0  501    0  0.00000000000E+00  0.00000000000E+00  0.20805852519E+04  0.20805852519E+04  0.00000000000E+00 0. -1.
         -1   -1    0    0    0  501 -0.00000000000E+00 -0.00000000000E+00 -0.80867443859E+03  0.80867443859E+03  0.00000000000E+00 0.  1.
         23    2    1    2    0    0 -0.80938541085E+03  0.67854172374E+03  0.83109124537E+02  0.10634872259E+04  0.92597726475E+02 0.  0.
        254    2    1    2    0    0  0.80938541085E+03 -0.67854172374E+03  0.11888016888E+04  0.18257724646E+04  0.89703512918E+03 0.  0.
        -24    2    4    4    0    0  0.67539701415E+03 -0.17340158096E+03  0.10784573991E+04  0.12866955288E+04  0.79282956142E+02 0.  0.
         24    2    4    4    0    0  0.13398839671E+03 -0.50514014278E+03  0.11034428969E+03  0.53907693579E+03  0.72860319340E+02 0.  0.
         11    1    3    3    0    0 -0.40074076330E+03  0.36447398387E+03  0.16563431294E+01  0.54169842879E+03  0.00000000000E+00 0.  1.
        -11    1    3    3    0    0 -0.40864464755E+03  0.31406773988E+03  0.81452781407E+02  0.52178879712E+03  0.00000000000E+00 0. -1.
          4    1    6    6  502    0  0.10872623347E+03 -0.31844540830E+03  0.97057612499E+02  0.35021286678E+03  0.00000000000E+00 0. -1.
          1    1    5    5  503    0  0.42257364383E+03 -0.84417375785E+02  0.72017594247E+03  0.83925452987E+03  0.00000000000E+00 0. -1.
         -2    1    5    5    0  503  0.25282337031E+03 -0.88984205175E+02  0.35828145662E+03  0.44744099891E+03  0.00000000000E+00 0.  1.
         -3    1    6    6    0  502  0.25262163240E+02 -0.18669473448E+03  0.13286677190E+02  0.18886406901E+03  0.00000000000E+00 0.  1.
<mgrwt>
<rscale>  0 0.25942368E+04</rscale>
<asrwt>0</asrwt>
<pdfrwt beam="1">  1        1 0.32009004E+00 0.25942368E+04</pdfrwt>
<pdfrwt beam="2">  1       -1 0.12441145E+00 0.25942368E+04</pdfrwt>
<totfact> 0.13105604E+00</totfact>
</mgrwt>
</event>
<event>
12    1  0.1980523E-007  0.2750822E+04  0.7818608E-02  0.8318701E-01
          2   -1    0    0  501    0  0.00000000000E+00  0.00000000000E+00  0.33749622447E+04  0.33749622447E+04  0.00000000000E+00 0. -1.
         -2   -1    0    0    0  501 -0.00000000000E+00 -0.00000000000E+00 -0.56052627378E+03  0.56052627378E+03  0.00000000000E+00 0.  1.
         23    2    1    2    0    0  0.80955318987E+03 -0.60537776912E+03  0.26693045749E+03  0.10506877568E+04  0.10408785954E+03 0.  0.
        254    2    1    2    0    0 -0.80955318987E+03  0.60537776912E+03  0.25475055135E+04  0.28848007617E+04  0.90024023644E+03 0.  0.
        -24    2    4    4    0    0 -0.71383745572E+03  0.29438741547E+03  0.83637868146E+03  0.11411383073E+04  0.80246333366E+02 0.  0.
         24    2    4    4    0    0 -0.95715734151E+02  0.31099035366E+03  0.17111268320E+04  0.17436624544E+04  0.80791200182E+02 0.  0.
         13    1    3    3    0    0  0.33918385396E+03 -0.31386992313E+03  0.10187614420E+03  0.47322168609E+03  0.00000000000E+00 0.  1.
        -13    1    3    3    0    0  0.47036933592E+03 -0.29150784599E+03  0.16505431328E+03  0.57746607067E+03  0.00000000000E+00 0. -1.
          4    1    6    6  502    0 -0.70226453207E+02  0.21920653386E+03  0.99794887591E+03  0.10241509743E+04  0.00000000000E+00 0. -1.
          1    1    5    5  503    0 -0.12113853250E+02  0.13877378185E+01  0.31835560073E+02  0.34090675294E+02  0.00000000000E+00 0. -1.
         -2    1    5    5    0  503 -0.70172360247E+03  0.29299967765E+03  0.80454312138E+03  0.11070476320E+04  0.00000000000E+00 0.  1.
         -3    1    6    6    0  502 -0.25489280944E+02  0.91783819796E+02  0.71317795610E+03  0.71951148016E+03  0.00000000000E+00 0.  1.
<mgrwt>
<rscale>  0 0.27508217E+04</rscale>
<asrwt>0</asrwt>
<pdfrwt beam="1">  1        2 0.51922495E+00 0.27508217E+04</pdfrwt>
<pdfrwt beam="2">  1       -2 0.86234813E-01 0.27508217E+04</pdfrwt>
<totfact> 0.10098938E+00</totfact>
</mgrwt>
</event>
<event>
12    1  0.1980523E-007  0.2145396E+04  0.7818608E-02  0.8541505E-01
          2   -1    0    0  501    0  0.00000000000E+00  0.00000000000E+00  0.18946028422E+04  0.18946028422E+04  0.00000000000E+00 0.  1.
         -2   -1    0    0    0  501 -0.00000000000E+00 -0.00000000000E+00 -0.60734692888E+03  0.60734692888E+03  0.00000000000E+00 0. -1.
         23    2    1    2    0    0  0.51360393502E+03 -0.51673525282E+03  0.11100098448E+04  0.13307035162E+04  0.88575780202E+02 0.  0.
        254    2    1    2    0    0 -0.51360393502E+03  0.51673525282E+03  0.17724606848E+03  0.11712462549E+04  0.89977624839E+03 0.  0.
        -24    2    4    4    0    0 -0.21447082977E+03  0.31790516124E+03 -0.35106998477E+03  0.52744916777E+03  0.88831649845E+02 0.  0.
         24    2    4    4    0    0 -0.29913310526E+03  0.19883009158E+03  0.52831605325E+03  0.64379708710E+03  0.79641805942E+02 0.  0.
         11    1    3    3    0    0  0.27939185999E+03 -0.30516698129E+03  0.55536000069E+03  0.69253983876E+03  0.00000000000E+00 0. -1.
        -11    1    3    3    0    0  0.23421207503E+03 -0.21156827153E+03  0.55464984411E+03  0.63816367742E+03  0.00000000000E+00 0.  1.
          4    1    6    6  502    0 -0.21408961098E+03  0.17164262614E+03  0.43758208952E+03  0.51650134338E+03  0.00000000000E+00 0. -1.
          1    1    5    5  503    0 -0.47967953019E+02  0.23300823355E+02 -0.66932234248E+02  0.85579067927E+02  0.00000000000E+00 0. -1.
         -2    1    5    5    0  503 -0.16650287675E+03  0.29460433789E+03 -0.28413775052E+03  0.44187009985E+03  0.00000000000E+00 0.  1.
         -3    1    6    6    0  502 -0.85043494275E+02  0.27187465442E+02  0.90733963727E+02  0.12729574372E+03  0.00000000000E+00 0.  1.
<mgrwt>
<rscale>  0 0.21453962E+04</rscale>
<asrwt>0</asrwt>
<pdfrwt beam="1">  1        2 0.29147736E+00 0.21453962E+04</pdfrwt>
<pdfrwt beam="2">  1       -2 0.93437990E-01 0.21453962E+04</pdfrwt>
<totfact> 0.68006661E+00</totfact>
</mgrwt>
</event>
<event>
12    1  0.1980523E-007  0.1892807E+04  0.7818608E-02  0.8658445E-01
          2   -1    0    0  501    0  0.00000000000E+00  0.00000000000E+00  0.10205845158E+04  0.10205845158E+04  0.00000000000E+00 0. -1.
         -2   -1    0    0    0  501 -0.00000000000E+00 -0.00000000000E+00 -0.87761456095E+03  0.87761456095E+03  0.00000000000E+00 0.  1.
         23    2    1    2    0    0 -0.24453845416E+02 -0.62209641369E+03  0.43467202380E+03  0.76457207979E+03  0.89603339454E+02 0.  0.
        254    2    1    2    0    0  0.24453845416E+02  0.62209641369E+03 -0.29170206890E+03  0.11336269970E+04  0.90134240601E+03 0.  0.
        -24    2    4    4    0    0 -0.94968373102E+02  0.46643158133E+03  0.25554739406E+03  0.54667340691E+03  0.83486114204E+02 0.  0.
         24    2    4    4    0    0  0.11942221852E+03  0.15566483236E+03 -0.54724946296E+03  0.58695359010E+03  0.80866160466E+02 0.  0.
         11    1    3    3    0    0 -0.12013302495E+02 -0.57908749928E+03  0.42591726560E+03  0.71895213220E+03  0.00000000000E+00 0. -1.
        -11    1    3    3    0    0 -0.12440542921E+02 -0.43008914415E+02  0.87547581954E+01  0.45619947593E+02  0.00000000000E+00 0.  1.
          4    1    6    6  502    0  0.16055988451E+01  0.41133773342E+02 -0.17960230929E+03  0.18425947671E+03  0.00000000000E+00 0. -1.
          1    1    5    5  503    0  0.23946407058E+01  0.19284505634E+03  0.10392230011E+03  0.21907714286E+03  0.00000000000E+00 0. -1.
         -2    1    5    5    0  503 -0.97363013808E+02  0.27358652499E+03  0.15162509394E+03  0.32759626406E+03  0.00000000000E+00 0.  1.
         -3    1    6    6    0  502  0.11781661967E+03  0.11453105902E+03 -0.36764715367E+03  0.40269411338E+03  0.00000000000E+00 0.  1.
<mgrwt>
<rscale>  0 0.18928073E+04</rscale>
<asrwt>0</asrwt>
<pdfrwt beam="1">  1        2 0.15701300E+00 0.18928073E+04</pdfrwt>
<pdfrwt beam="2">  1       -2 0.13501762E+00 0.18928073E+04</pdfrwt>
<totfact> 0.90305862E+00</totfact>
</mgrwt>
</event>
<event>
12    1  0.1980523E-007  0.3150706E+04  0.7818608E-02  0.8201958E-01
          3   -1    0    0  501    0  0.00000000000E+00  0.00000000000E+00  0.15048963994E+04  0.15048963994E+04  0.00000000000E+00 0. -1.
         -3   -1    0    0    0  501 -0.00000000000E+00 -0.00000000000E+00 -0.16491079153E+04  0.16491079153E+04  0.00000000000E+00 0.  1.
         23    2    1    2    0    0  0.23472947750E+03  0.43472615547E+03  0.12934788235E+04  0.13876962033E+04  0.92350028470E+02 0.  0.
        254    2    1    2    0    0 -0.23472947750E+03 -0.43472615547E+03 -0.14376903395E+04  0.17663081114E+04  0.89933646333E+03 0.  0.
        -24    2    4    4    0    0  0.20081192152E+03  0.11663873876E+03 -0.71103327765E+03  0.75228051113E+03  0.80172453508E+02 0.  0.
         24    2    4    4    0    0 -0.43554139901E+03 -0.55136489423E+03 -0.72665706186E+03  0.10140276003E+04  0.80758477787E+02 0.  0.
         11    1    3    3    0    0  0.44864427395E+02  0.17553635147E+03  0.45098360734E+03  0.48601650345E+03  0.00000000000E+00 0.  1.
        -11    1    3    3    0    0  0.18986505010E+03  0.25918980400E+03  0.84249521620E+03  0.90167969982E+03  0.00000000000E+00 0. -1.
          2    1    6    6  502    0 -0.12197729455E+03 -0.14899521721E+03 -0.14974617662E+03  0.24393022066E+03  0.00000000000E+00 0. -1.
          3    1    5    5  503    0  0.31908263946E+02 -0.10416716915E+01 -0.45106041453E+02  0.55260993146E+02  0.00000000000E+00 0. -1.
         -4    1    5    5    0  503  0.16890365757E+03  0.11768041045E+03 -0.66592723620E+03  0.69701951799E+03  0.00000000000E+00 0.  1.
         -1    1    6    6    0  502 -0.31356410446E+03 -0.40236967702E+03 -0.57691088524E+03  0.77009737962E+03  0.00000000000E+00 0.  1.
<mgrwt>
<rscale>  0 0.31507057E+04</rscale>
<asrwt>0</asrwt>
<pdfrwt beam="1">  1        3 0.23152252E+00 0.31507057E+04</pdfrwt>
<pdfrwt beam="2">  1       -3 0.25370891E+00 0.31507057E+04</pdfrwt>
<totfact> 0.14427332E-02</totfact>
</mgrwt>
</event>
<event>
12    1  0.1980523E-007  0.2721176E+04  0.7818608E-02  0.8328167E-01
         -2   -1    0    0    0  501 -0.00000000000E+00  0.00000000000E+00  0.85620172069E+03  0.85620172069E+03  0.00000000000E+00 0.  1.
          2   -1    0    0  501    0  0.00000000000E+00 -0.00000000000E+00 -0.21621071019E+04  0.21621071019E+04  0.00000000000E+00 0. -1.
         23    2    1    2    0    0 -0.10666380351E+04  0.43416269872E+03 -0.18625592123E+03  0.11701493709E+04  0.91347332984E+02 0.  0.
        254    2    1    2    0    0  0.10666380351E+04 -0.43416269872E+03 -0.11196494599E+04  0.18481594516E+04  0.91425625445E+03 0.  0.
        -24    2    4    4    0    0  0.18653164554E+03  0.27303094810E+03 -0.26919840271E+03  0.43257076713E+03  0.72867929448E+02 0.  0.
         24    2    4    4    0    0  0.88010638951E+03 -0.70719364683E+03 -0.85045105723E+03  0.14155886845E+04  0.76903914308E+02 0.  0.
         11    1    3    3    0    0 -0.76012314189E+03  0.27769639086E+03 -0.10043665690E+03  0.81546918911E+03  0.00000000000E+00 0. -1.
        -11    1    3    3    0    0 -0.30651489316E+03  0.15646630786E+03 -0.85819264334E+02  0.35468018179E+03  0.00000000000E+00 0.  1.
          4    1    6    6  502    0  0.51053562220E+03 -0.44111835485E+03 -0.54384830082E+03  0.86660429195E+03  0.00000000000E+00 0. -1.
          1    1    5    5  503    0  0.71806509595E+02  0.12794781874E+03 -0.76491369361E+02  0.16546222749E+03  0.00000000000E+00 0. -1.
         -2    1    5    5    0  503  0.11472513595E+03  0.14508312936E+03 -0.19270703335E+03  0.26710853963E+03  0.00000000000E+00 0.  1.
         -3    1    6    6    0  502  0.36957076731E+03 -0.26607529198E+03 -0.30660275641E+03  0.54898439257E+03  0.00000000000E+00 0.  1.
<mgrwt>
<rscale>  0 0.27211761E+04</rscale>
<asrwt>0</asrwt>
<pdfrwt beam="1">  1        2 0.33263186E+00 0.27211761E+04</pdfrwt>
<pdfrwt beam="2">  1       -2 0.13172334E+00 0.27211761E+04</pdfrwt>
<totfact> 0.19949101E+00</totfact>
</mgrwt>
</event>
<event>
12    1  0.1980523E-007  0.1807906E+04  0.7818608E-02  0.8702107E-01
          2   -1    0    0  501    0  0.00000000000E+00  0.00000000000E+00  0.19465660915E+04  0.19465660915E+04  0.00000000000E+00 0. -1.
         -2   -1    0    0    0  501 -0.00000000000E+00 -0.00000000000E+00 -0.41978056200E+03  0.41978056200E+03  0.00000000000E+00 0.  1.
         23    2    1    2    0    0 -0.13080098040E+03  0.67730545160E+02 -0.28745536545E+03  0.33487796568E+03  0.88410076072E+02 0.  0.
        254    2    1    2    0    0  0.13080098040E+03 -0.67730545160E+02  0.18142408949E+04  0.20314686878E+04  0.90205248265E+03 0.  0.
        -24    2    4    4    0    0 -0.16746321591E+03  0.15481808738E+03  0.77181971731E+02  0.25351703522E+03  0.79380485786E+02 0.  0.
         24    2    4    4    0    0  0.29826419631E+03 -0.22254863254E+03  0.17370589232E+04  0.17779516526E+04  0.72449648705E+02 0.  0.
         13    1    3    3    0    0 -0.12854148584E+03  0.29726692434E+02 -0.20126227919E+03  0.24065139694E+03  0.00000000000E+00 0.  1.
        -13    1    3    3    0    0 -0.22594945635E+01  0.38003852726E+02 -0.86193086261E+02  0.94226568742E+02  0.00000000000E+00 0. -1.
          2    1    6    6  502    0  0.27790877686E+03 -0.19177616572E+03  0.14653617503E+04  0.15037607673E+04  0.00000000000E+00 0. -1.
          3    1    5    5  503    0 -0.80458114380E+02  0.10380407420E+03  0.77816491232E+02  0.15265713314E+03  0.00000000000E+00 0. -1.
         -4    1    5    5    0  503 -0.87005101533E+02  0.51014013178E+02 -0.63451950128E+00  0.10085990208E+03  0.00000000000E+00 0.  1.
         -1    1    6    6    0  502  0.20355419450E+02 -0.30772466813E+02  0.27169717288E+03  0.27419088527E+03  0.00000000000E+00 0.  1.
<mgrwt>
<rscale>  0 0.18079055E+04</rscale>
<asrwt>0</asrwt>
<pdfrwt beam="1">  1        2 0.29947170E+00 0.18079055E+04</pdfrwt>
<pdfrwt beam="2">  1       -2 0.64581626E-01 0.18079055E+04</pdfrwt>
<totfact> 0.14941540E+01</totfact>
</mgrwt>
</event>
<event>
12    1  0.1980523E-007  0.1451671E+04  0.7818608E-02  0.8917243E-01
          2   -1    0    0  501    0  0.00000000000E+00  0.00000000000E+00  0.77259419265E+03  0.77259419265E+03  0.00000000000E+00 0. -1.
         -2   -1    0    0    0  501 -0.00000000000E+00 -0.00000000000E+00 -0.68190695782E+03  0.68190695782E+03  0.00000000000E+00 0.  1.
         23    2    1    2    0    0 -0.30707601504E+03  0.30738050153E+03  0.10701821777E+03  0.45619893340E+03  0.88803807148E+02 0.  0.
        254    2    1    2    0    0  0.30707601504E+03 -0.30738050153E+03 -0.16330982947E+02  0.99830221707E+03  0.89864462602E+03 0.  0.
        -24    2    4    4    0    0  0.57265108459E+03 -0.27436240369E+03  0.17004078557E+03  0.66242165796E+03  0.81759347736E+02 0.  0.
         24    2    4    4    0    0 -0.26557506955E+03 -0.33018097843E+02 -0.18637176851E+03  0.33588055911E+03  0.80380355435E+02 0.  0.
         11    1    3    3    0    0 -0.17542803183E+03  0.22558610897E+03  0.45130752425E+02  0.28931102939E+03  0.00000000000E+00 0.  1.
        -11    1    3    3    0    0 -0.13164798321E+03  0.81794392561E+02  0.61887465343E+02  0.16688790401E+03  0.00000000000E+00 0. -1.
          4    1    6    6  502    0 -0.22985246814E+03 -0.55357804511E+02 -0.16730992260E+03  0.28963641662E+03  0.00000000000E+00 0. -1.
          3    1    5    5  503    0  0.54996984502E+03 -0.24845724698E+03  0.17318732321E+03  0.62784686264E+03  0.00000000000E+00 0. -1.
         -4    1    5    5    0  503  0.22681239573E+02 -0.25905156705E+02 -0.31465376423E+01  0.34574795323E+02  0.00000000000E+00 0.  1.
         -3    1    6    6    0  502 -0.35722601407E+02  0.22339706669E+02 -0.19061845910E+02  0.46244142492E+02  0.00000000000E+00 0.  1.
<mgrwt>
<rscale>  0 0.14516713E+04</rscale>
<asrwt>0</asrwt>
<pdfrwt beam="1">  1        2 0.11886065E+00 0.14516713E+04</pdfrwt>
<pdfrwt beam="2">  1       -2 0.10490876E+00 0.14516713E+04</pdfrwt>
<totfact> 0.25770031E+01</totfact>
</mgrwt>
</event>
<event>
12    1  0.1980523E-007  0.2225298E+04  0.7818608E-02  0.8507972E-01
         -1   -1    0    0    0  501 -0.00000000000E+00  0.00000000000E+00  0.14514687686E+04  0.14514687686E+04  0.00000000000E+00 0.  1.
          1   -1    0    0  501    0  0.00000000000E+00 -0.00000000000E+00 -0.85292069371E+03  0.85292069371E+03  0.00000000000E+00 0. -1.
         23    2    1    2    0    0 -0.80141669437E+03  0.45401203770E+03  0.13394999179E+03  0.93528978026E+03  0.91808084387E+02 0.  0.
        254    2    1    2    0    0  0.80141669437E+03 -0.45401203770E+03  0.46459808315E+03  0.13690996821E+04  0.90010383416E+03 0.  0.
        -24    2    4    4    0    0 -0.12237854403E+03  0.12034721633E+03  0.12024448294E+03  0.22526873480E+03  0.82627517718E+02 0.  0.
         24    2    4    4    0    0  0.92379523840E+03 -0.57435925402E+03  0.34435360020E+03  0.11438309473E+04  0.80521046058E+02 0.  0.
         11    1    3    3    0    0 -0.47519637636E+03  0.26063033594E+03  0.12372697834E+03  0.55592097755E+03  0.00000000000E+00 0.  1.
        -11    1    3    3    0    0 -0.32622031801E+03  0.19338170176E+03  0.10223013452E+02  0.37936880270E+03  0.00000000000E+00 0. -1.
          4    1    6    6  502    0  0.52659196137E+03 -0.28027818271E+03  0.19066516872E+03  0.62626524735E+03  0.00000000000E+00 0. -1.
          1    1    5    5  503    0 -0.12719162136E+03  0.10188301913E+03  0.12525579768E+03  0.20554044124E+03  0.00000000000E+00 0. -1.
         -2    1    5    5    0  503  0.48130773306E+01  0.18464197194E+02 -0.50113147407E+01  0.19728293561E+02  0.00000000000E+00 0.  1.
         -3    1    6    6    0  502  0.39720327703E+03 -0.29408107131E+03  0.15368843149E+03  0.51756569995E+03  0.00000000000E+00 0.  1.
<mgrwt>
<rscale>  0 0.22252980E+04</rscale>
<asrwt>0</asrwt>
<pdfrwt beam="1">  1        1 0.13121857E+00 0.22252980E+04</pdfrwt>
<pdfrwt beam="2">  1       -1 0.22330289E+00 0.22252980E+04</pdfrwt>
<totfact> 0.18946497E+00</totfact>
</mgrwt>
</event>
<event>
12    1  0.1980523E-007  0.1605573E+04  0.7818608E-02  0.8817131E-01
         -2   -1    0    0    0  501 -0.00000000000E+00  0.00000000000E+00  0.20795287313E+03  0.20795287313E+03  0.00000000000E+00 0. -1.
          2   -1    0    0  501    0  0.00000000000E+00 -0.00000000000E+00 -0.30990985809E+04  0.30990985809E+04  0.00000000000E+00 0.  1.
         23    2    1    2    0    0  0.50392771734E+02  0.53341695599E+03 -0.11400790833E+04  0.12631749256E+04  0.93581494448E+02 0.  0.
        254    2    1    2    0    0 -0.50392771734E+02 -0.53341695599E+03 -0.17510666245E+04  0.20438765285E+04  0.90781267879E+03 0.  0.
        -24    2    4    4    0    0  0.34856542754E+03 -0.50064254887E+03 -0.80131465631E+03  0.10102582080E+04  0.79847664246E+02 0.  0.
         24    2    4    4    0    0 -0.39895819927E+03 -0.32774407126E+02 -0.94975196819E+03  0.10336183204E+04  0.78078324163E+02 0.  0.
         11    1    3    3    0    0  0.12587328206E+02  0.16812206353E+02 -0.19460422769E+02  0.28632135236E+02  0.00000000000E+00 0. -1.
        -11    1    3    3    0    0  0.37805443529E+02  0.51660474964E+03 -0.11206186605E+04  0.12345427903E+04  0.00000000000E+00 0.  1.
          2    1    6    6  502    0 -0.15761717933E+03 -0.40204555257E+02 -0.31558563589E+03  0.35504066677E+03  0.00000000000E+00 0. -1.
          3    1    5    5  503    0  0.62616691471E+02 -0.73360297440E+02 -0.17621804020E+03  0.20088648781E+03  0.00000000000E+00 0. -1.
         -4    1    5    5    0  503  0.28594873607E+03 -0.42728225143E+03 -0.62509661611E+03  0.80937172024E+03  0.00000000000E+00 0.  1.
         -1    1    6    6    0  502 -0.24134101994E+03  0.74301481301E+01 -0.63416633230E+03  0.67857765365E+03  0.00000000000E+00 0.  1.
<mgrwt>
<rscale>  0 0.16055734E+04</rscale>
<asrwt>0</asrwt>
<pdfrwt beam="1">  1        2 0.47678439E+00 0.16055734E+04</pdfrwt>
<pdfrwt beam="2">  1       -2 0.31992750E-01 0.16055734E+04</pdfrwt>
<totfact> 0.13216999E+01</totfact>
</mgrwt>
</event>
<event>
12    1  0.1980523E-007  0.2371732E+04  0.7818608E-02  0.8450163E-01
         -2   -1    0    0    0  501 -0.00000000000E+00  0.00000000000E+00  0.37944938245E+03  0.37944938245E+03  0.00000000000E+00 0.  1.
          2   -1    0    0  501    0  0.00000000000E+00 -0.00000000000E+00 -0.37061027780E+04  0.37061027780E+04  0.00000000000E+00 0. -1.
         23    2    1    2    0    0  0.76902586975E+03 -0.49923677640E+03 -0.21661890094E+04  0.23539798977E+04  0.90600150013E+02 0.  0.
        254    2    1    2    0    0 -0.76902586975E+03  0.49923677640E+03 -0.11604643861E+04  0.17315722627E+04  0.90057024279E+03 0.  0.
        -24    2    4    4    0    0 -0.72096546240E+03  0.73380113804E+03 -0.93350020026E+03  0.13914573224E+04  0.80470789401E+02 0.  0.
         24    2    4    4    0    0 -0.48060407355E+02 -0.23456436163E+03 -0.22696418585E+03  0.34011494031E+03  0.82675198570E+02 0.  0.
         13    1    3    3    0    0  0.51075510702E+03 -0.32828989088E+03 -0.15403894901E+04  0.16557308999E+04  0.00000000000E+00 0. -1.
        -13    1    3    3    0    0  0.25827076273E+03 -0.17094688553E+03 -0.62579951929E+03  0.69824899778E+03  0.00000000000E+00 0.  1.
          2    1    6    6  502    0  0.34946148054E-01 -0.17978603699E+03 -0.15040989777E+03  0.23440596764E+03  0.00000000000E+00 0. -1.
          3    1    5    5  503    0 -0.55093213147E+03  0.51058262924E+03 -0.68857211374E+03  0.10189957756E+04  0.00000000000E+00 0. -1.
         -4    1    5    5    0  503 -0.17003333093E+03  0.22321850880E+03 -0.24492808652E+03  0.37246154683E+03  0.00000000000E+00 0.  1.
         -1    1    6    6    0  502 -0.48095353503E+02 -0.54778324646E+02 -0.76554288082E+02  0.10570897267E+03  0.00000000000E+00 0.  1.
<mgrwt>
<rscale>  0 0.23717322E+04</rscale>
<asrwt>0</asrwt>
<pdfrwt beam="1">  1        2 0.57016964E+00 0.23717322E+04</pdfrwt>
<pdfrwt beam="2">  1       -2 0.58376830E-01 0.23717322E+04</pdfrwt>
<totfact> 0.14333727E+00</totfact>
</mgrwt>
</event>
<event>
12    1  0.1980523E-007  0.1726538E+04  0.7818608E-02  0.8746372E-01
         -2   -1    0    0    0  501 -0.00000000000E+00  0.00000000000E+00  0.32770079758E+03  0.32770079758E+03  0.00000000000E+00 0.  1.
          2   -1    0    0  501    0  0.00000000000E+00 -0.00000000000E+00 -0.22741265231E+04  0.22741265231E+04  0.00000000000E+00 0. -1.
         23    2    1    2    0    0 -0.20046070704E+03  0.55764177519E+03 -0.41981483991E+03  0.73204422847E+03  0.92170538275E+02 0.  0.
        254    2    1    2    0    0  0.20046070704E+03 -0.55764177519E+03 -0.15266108856E+04  0.18697830922E+04  0.90244067471E+03 0.  0.
        -24    2    4    4    0    0  0.27638186144E+03 -0.48877868921E+03 -0.31039367321E+03  0.64659457421E+03  0.80304238164E+02 0.  0.
         24    2    4    4    0    0 -0.75921154398E+02 -0.68863085976E+02 -0.12162172124E+04  0.12231885180E+04  0.80620695427E+02 0.  0.
         11    1    3    3    0    0 -0.70995245963E+01  0.11878919445E+03 -0.65919648516E+02  0.13603924444E+03  0.00000000000E+00 0.  1.
        -11    1    3    3    0    0 -0.19336118244E+03  0.43885258074E+03 -0.35389519139E+03  0.59600498403E+03  0.00000000000E+00 0. -1.
          2    1    6    6  502    0 -0.70392775435E+02 -0.82418212735E+02 -0.87955227360E+03  0.88620545395E+03  0.00000000000E+00 0. -1.
          3    1    5    5  503    0  0.10201463767E+03 -0.12069896488E+03 -0.63511835635E+02  0.17032022689E+03  0.00000000000E+00 0. -1.
         -2    1    5    5    0  503  0.17436722376E+03 -0.36807972433E+03 -0.24688183757E+03  0.47627434731E+03  0.00000000000E+00 0.  1.
         -1    1    6    6    0  502 -0.55283789627E+01  0.13555126759E+02 -0.33666493884E+03  0.33698306408E+03  0.00000000000E+00 0.  1.
<mgrwt>
<rscale>  0 0.17265377E+04</rscale>
<asrwt>0</asrwt>
<pdfrwt beam="1">  1        2 0.34986562E+00 0.17265377E+04</pdfrwt>
<pdfrwt beam="2">  1       -2 0.50415507E-01 0.17265377E+04</pdfrwt>
<totfact> 0.16579131E+01</totfact>
</mgrwt>
</event>
<event>
12    1  0.1980523E-007  0.1034891E+04  0.7818608E-02  0.9271084E-01
          1   -1    0    0  501    0  0.00000000000E+00  0.00000000000E+00  0.11353771934E+04  0.11353771934E+04  0.00000000000E+00 0. -1.
         -1   -1    0    0    0  501 -0.00000000000E+00 -0.00000000000E+00 -0.23582440437E+03  0.23582440437E+03  0.00000000000E+00 0.  1.
         23    2    1    2    0    0  0.36907107375E+02 -0.91442773398E+01  0.23825337011E+03  0.25471752198E+03  0.81673712107E+02 0.  0.
        254    2    1    2    0    0 -0.36907107375E+02  0.91442773398E+01  0.66129941894E+03  0.11164840758E+04  0.89876249236E+03 0.  0.
        -24    2    4    4    0    0 -0.10974867489E+03  0.17497858088E+02 -0.20336243892E+03  0.24507985978E+03  0.79730229057E+02 0.  0.
         24    2    4    4    0    0  0.72841567511E+02 -0.83535807480E+01  0.86466185786E+03  0.87140421604E+03  0.79558173762E+02 0.  0.
         13    1    3    3    0    0  0.39028666454E+01  0.13501981380E+02  0.97691051755E+00  0.14088655841E+02  0.00000000000E+00 0.  1.
        -13    1    3    3    0    0  0.33004240730E+02 -0.22646258720E+02  0.23727645959E+03  0.24062886614E+03  0.00000000000E+00 0. -1.
          4    1    6    6  502    0 -0.10449944431E+02  0.11519742095E+02  0.28796877919E+03  0.28838849420E+03  0.00000000000E+00 0. -1.
          1    1    5    5  503    0 -0.11000426739E+03  0.30907342019E+02 -0.20135738065E+03  0.23151889206E+03  0.00000000000E+00 0. -1.
         -2    1    5    5    0  503  0.25559250208E+00 -0.13409483932E+02 -0.20050582691E+01  0.13560967720E+02  0.00000000000E+00 0.  1.
         -3    1    6    6    0  502  0.83291511942E+02 -0.19873322843E+02  0.57669307867E+03  0.58301572184E+03  0.00000000000E+00 0.  1.
<mgrwt>
<rscale>  0 0.10348906E+04</rscale>
<asrwt>0</asrwt>
<pdfrwt beam="1">  1        1 0.17467341E+00 0.10348906E+04</pdfrwt>
<pdfrwt beam="2">  1       -1 0.36280678E-01 0.10348906E+04</pdfrwt>
<totfact> 0.86720664E+01</totfact>
</mgrwt>
</event>
<event>
12    1  0.1980523E-007  0.3288038E+04  0.7818608E-02  0.8165946E-01
          2   -1    0    0  501    0  0.00000000000E+00  0.00000000000E+00  0.14557157993E+04  0.14557157993E+04  0.00000000000E+00 0.  1.
         -2   -1    0    0    0  501 -0.00000000000E+00 -0.00000000000E+00 -0.18566801458E+04  0.18566801458E+04  0.00000000000E+00 0. -1.
         23    2    1    2    0    0  0.10567094682E+04  0.84079461381E+03  0.51483410131E+03  0.14480723508E+04  0.91043388218E+02 0.  0.
        254    2    1    2    0    0 -0.10567094682E+04 -0.84079461381E+03 -0.91579844781E+03  0.18643235942E+04  0.90191196033E+03 0.  0.
        -24    2    4    4    0    0 -0.76324916143E+02  0.63474375646E+02  0.11967658780E+03  0.17396398888E+03  0.78015989204E+02 0.  0.
         24    2    4    4    0    0 -0.98038455206E+03 -0.90426898946E+03 -0.10354750356E+04  0.16903596053E+04  0.79061816352E+02 0.  0.
         11    1    3    3    0    0  0.43861729004E+03  0.37527879919E+03  0.26297450219E+03  0.63433027127E+03  0.00000000000E+00 0. -1.
        -11    1    3    3    0    0  0.61809217816E+03  0.46551581462E+03  0.25185959912E+03  0.81374207955E+03  0.00000000000E+00 0.  1.
          2    1    6    6  502    0 -0.56603848515E+03 -0.52146872463E+03 -0.64665269046E+03  0.10052307693E+04  0.00000000000E+00 0. -1.
          3    1    5    5  503    0 -0.69623396718E+02  0.27318413011E+02  0.11459609826E+03  0.13684289824E+03  0.00000000000E+00 0. -1.
         -4    1    5    5    0  503 -0.67015194256E+01  0.36155962636E+02  0.50804895361E+01  0.37121090645E+02  0.00000000000E+00 0.  1.
         -1    1    6    6    0  502 -0.41434606691E+03 -0.38280026482E+03 -0.38882234515E+03  0.68512883606E+03  0.00000000000E+00 0.  1.
<mgrwt>
<rscale>  0 0.32880381E+04</rscale>
<asrwt>0</asrwt>
<pdfrwt beam="1">  1        2 0.22395628E+00 0.32880381E+04</pdfrwt>
<pdfrwt beam="2">  1       -2 0.28564310E+00 0.32880381E+04</pdfrwt>
<totfact> 0.43737973E-01</totfact>
</mgrwt>
</event>
<event>
12    1  0.1980523E-007  0.1843786E+04  0.7818608E-02  0.8683355E-01
         -2   -1    0    0    0  501 -0.00000000000E+00  0.00000000000E+00  0.19748014334E+04  0.19748014334E+04  0.00000000000E+00 0.  1.
          2   -1    0    0  501    0  0.00000000000E+00 -0.00000000000E+00 -0.43036542907E+03  0.43036542907E+03  0.00000000000E+00 0. -1.
         23    2    1    2    0    0 -0.22077349848E+03 -0.65104511394E+03  0.42676489328E+03  0.81425580406E+03  0.91014077398E+02 0.  0.
        254    2    1    2    0    0  0.22077349848E+03  0.65104511394E+03  0.11176711111E+04  0.15909110584E+04  0.89956022885E+03 0.  0.
        -24    2    4    4    0    0  0.20326853229E+03 -0.18706344333E+03  0.23453890321E+03  0.37088649462E+03  0.78977634355E+02 0.  0.
         24    2    4    4    0    0  0.17504966191E+02  0.83810855727E+03  0.88313220787E+03  0.12200245638E+04  0.76190958394E+02 0.  0.
         11    1    3    3    0    0 -0.17095544600E+03 -0.39721710867E+03  0.23429200329E+03  0.49183324282E+03  0.00000000000E+00 0. -1.
        -11    1    3    3    0    0 -0.49818052478E+02 -0.25382800528E+03  0.19247288999E+03  0.32242256124E+03  0.00000000000E+00 0.  1.
          4    1    6    6  502    0  0.13206445730E+02  0.71147723297E+03  0.78677258351E+03  0.10608418173E+04  0.00000000000E+00 0. -1.
          1    1    5    5  503    0  0.12219505888E+03 -0.13080942309E+03  0.10324837208E+03  0.20664695478E+03  0.00000000000E+00 0. -1.
         -2    1    5    5    0  503  0.81073473410E+02 -0.56254020238E+02  0.13129053113E+03  0.16423953984E+03  0.00000000000E+00 0.  1.
         -3    1    6    6    0  502  0.42985204609E+01  0.12663132431E+03  0.96359624360E+02  0.15918274649E+03  0.00000000000E+00 0.  1.
<mgrwt>
<rscale>  0 0.18437855E+04</rscale>
<asrwt>0</asrwt>
<pdfrwt beam="1">  1        2 0.66210067E-01 0.18437855E+04</pdfrwt>
<pdfrwt beam="2">  1       -2 0.30381560E+00 0.18437855E+04</pdfrwt>
<totfact> 0.20770545E+00</totfact>
</mgrwt>
</event>
<event>
12    1  0.1980523E-007  0.2522957E+04  0.7818608E-02  0.8394852E-01
          2   -1    0    0  501    0  0.00000000000E+00  0.00000000000E+00  0.29666897340E+04  0.29666897340E+04  0.00000000000E+00 0.  1.
         -2   -1    0    0    0  501 -0.00000000000E+00 -0.00000000000E+00 -0.53639861949E+03  0.53639861949E+03  0.00000000000E+00 0. -1.
         23    2    1    2    0    0 -0.91217974220E+03 -0.14102988709E+03  0.18826516514E+04  0.20986870239E+04  0.90269997156E+02 0.  0.
        254    2    1    2    0    0  0.91217974220E+03  0.14102988709E+03  0.54763946306E+03  0.14044013296E+04  0.90579953739E+03 0.  0.
        -24    2    4    4    0    0  0.56843853488E+02  0.22891387755E+03  0.47504294422E+03  0.53773599673E+03  0.88664628286E+02 0.  0.
         24    2    4    4    0    0  0.85533588871E+03 -0.87883990454E+02  0.72596518832E+02  0.86666533286E+03  0.80718438691E+02 0.  0.
         11    1    3    3    0    0 -0.55063098557E+03 -0.49463947742E+02  0.11842089139E+04  0.13069016475E+04  0.00000000000E+00 0.  1.
        -11    1    3    3    0    0 -0.36154875662E+03 -0.91565939351E+02  0.69844273747E+03  0.79178537635E+03  0.00000000000E+00 0. -1.
          2    1    6    6  502    0  0.82677808283E+03 -0.73353082213E+02  0.79706166620E+02  0.83384395778E+03  0.00000000000E+00 0. -1.
          1    1    5    5  503    0  0.67770578397E+02  0.21766889847E+03  0.39409873564E+03  0.45528717760E+03  0.00000000000E+00 0. -1.
         -2    1    5    5    0  503 -0.10926724909E+02  0.11244979073E+02  0.80944208587E+02  0.82448819126E+02  0.00000000000E+00 0.  1.
         -1    1    6    6    0  502  0.28557805875E+02 -0.14530908241E+02 -0.71096477881E+01  0.32821375083E+02  0.00000000000E+00 0.  1.
<mgrwt>
<rscale>  0 0.25229572E+04</rscale>
<asrwt>0</asrwt>
<pdfrwt beam="1">  1        2 0.45641380E+00 0.25229572E+04</pdfrwt>
<pdfrwt beam="2">  1       -2 0.82522866E-01 0.25229572E+04</pdfrwt>
<totfact> 0.20956822E+00</totfact>
</mgrwt>
</event>
<event>
12    1  0.1980523E-007  0.2091579E+04  0.7818608E-02  0.8564962E-01
          2   -1    0    0  501    0  0.00000000000E+00  0.00000000000E+00  0.10748527137E+04  0.10748527137E+04  0.00000000000E+00 0.  1.
         -2   -1    0    0    0  501 -0.00000000000E+00 -0.00000000000E+00 -0.10175123959E+04  0.10175123959E+04  0.00000000000E+00 0. -1.
         23    2    1    2    0    0  0.63621074020E+03  0.56298718282E+02  0.58534713955E+03  0.87034937081E+03  0.83325277426E+02 0.  0.
        254    2    1    2    0    0 -0.63621074020E+03 -0.56298718282E+02 -0.52800682173E+03  0.12220157387E+04  0.89810779435E+03 0.  0.
        -24    2    4    4    0    0 -0.38122367876E+03  0.40538795086E+03 -0.19871467795E+03  0.59545467405E+03  0.73538164685E+02 0.  0.
         24    2    4    4    0    0 -0.25498706144E+03 -0.46168666914E+03 -0.32929214378E+03  0.62656106468E+03  0.77281756229E+02 0.  0.
         13    1    3    3    0    0  0.24270035488E+03  0.40158521602E+02  0.17726520114E+03  0.30321464452E+03  0.00000000000E+00 0. -1.
        -13    1    3    3    0    0  0.39351038532E+03  0.16140196680E+02  0.40808193841E+03  0.56713472629E+03  0.00000000000E+00 0.  1.
          2    1    6    6  502    0 -0.17972203987E+03 -0.26248234779E+03 -0.17049845991E+03  0.36092481121E+03  0.00000000000E+00 0. -1.
          3    1    5    5  503    0 -0.32400871143E+03  0.35442773604E+03 -0.14410238971E+03  0.50136430255E+03  0.00000000000E+00 0. -1.
         -4    1    5    5    0  503 -0.57214967333E+02  0.50960214824E+02 -0.54612288242E+02  0.94090371499E+02  0.00000000000E+00 0.  1.
         -1    1    6    6    0  502 -0.75265021572E+02 -0.19920432135E+03 -0.15879368387E+03  0.26563625346E+03  0.00000000000E+00 0.  1.
<mgrwt>
<rscale>  0 0.20915793E+04</rscale>
<asrwt>0</asrwt>
<pdfrwt beam="1">  1        2 0.16536196E+00 0.20915793E+04</pdfrwt>
<pdfrwt beam="2">  1       -2 0.15654037E+00 0.20915793E+04</pdfrwt>
<totfact> 0.55664533E+00</totfact>
</mgrwt>
</event>
<event>
12    1  0.1980523E-007  0.4984297E+04  0.7818608E-02  0.7830934E-01
         -2   -1    0    0    0  501 -0.00000000000E+00  0.00000000000E+00  0.16043843789E+04  0.16043843789E+04  0.00000000000E+00 0.  1.
          2   -1    0    0  501    0  0.00000000000E+00 -0.00000000000E+00 -0.38711452286E+04  0.38711452286E+04  0.00000000000E+00 0. -1.
         23    2    1    2    0    0 -0.70252887570E+03  0.15042131545E+04  0.82274231211E+03  0.18550358096E+04  0.89715704404E+02 0.  0.
        254    2    1    2    0    0  0.70252887570E+03 -0.15042131545E+04 -0.30895031618E+04  0.36204937978E+04  0.89818790802E+03 0.  0.
        -24    2    4    4    0    0  0.51472039176E+03 -0.15486311909E+04 -0.29399821545E+04  0.33634832489E+04  0.79554066454E+02 0.  0.
         24    2    4    4    0    0  0.18780848394E+03  0.44418036444E+02 -0.14952100730E+03  0.25701054896E+03  0.80329957387E+02 0.  0.
         11    1    3    3    0    0 -0.26898933818E+03  0.68026366761E+03  0.36855093900E+03  0.81911154073E+03  0.00000000000E+00 0. -1.
        -11    1    3    3    0    0 -0.43353953752E+03  0.82394948685E+03  0.45419137310E+03  0.10359242689E+04  0.00000000000E+00 0.  1.
          2    1    6    6  502    0  0.11342520515E+03  0.64001685069E+02 -0.11031050557E+03  0.17067483849E+03  0.00000000000E+00 0. -1.
          1    1    5    5  503    0  0.32871774218E+03 -0.10986450546E+04 -0.20868669001E+04  0.23811950295E+04  0.00000000000E+00 0. -1.
         -2    1    5    5    0  503  0.18600264959E+03 -0.44998613627E+03 -0.85311525442E+03  0.98228821932E+03  0.00000000000E+00 0.  1.
         -1    1    6    6    0  502  0.74383278793E+02 -0.19583648625E+02 -0.39210501734E+02  0.86335710477E+02  0.00000000000E+00 0.  1.
<mgrwt>
<rscale>  0 0.49842973E+04</rscale>
<asrwt>0</asrwt>
<pdfrwt beam="1">  1        2 0.59556081E+00 0.49842973E+04</pdfrwt>
<pdfrwt beam="2">  1       -2 0.24682837E+00 0.49842973E+04</pdfrwt>
<totfact> 0.21134158E-02</totfact>
</mgrwt>
</event>
<event>
12    1  0.1980523E-007  0.1491986E+04  0.7818608E-02  0.8889799E-01
          1   -1    0    0  501    0  0.00000000000E+00  0.00000000000E+00  0.58780891769E+03  0.58780891769E+03  0.00000000000E+00 0. -1.
         -1   -1    0    0    0  501 -0.00000000000E+00 -0.00000000000E+00 -0.94674605500E+03  0.94674605500E+03  0.00000000000E+00 0.  1.
         23    2    1    2    0    0  0.45927992482E+03  0.21679556735E+02 -0.20720192577E+03  0.51301669885E+03  0.94050213902E+02 0.  0.
        254    2    1    2    0    0 -0.45927992482E+03 -0.21679556735E+02 -0.15173521154E+03  0.10215382738E+04  0.89950476262E+03 0.  0.
        -24    2    4    4    0    0 -0.59129180096E+03 -0.21771748146E+03  0.12705191055E+03  0.64759478319E+03  0.78803043240E+02 0.  0.
         24    2    4    4    0    0  0.13201187614E+03  0.19603792473E+03 -0.27878712208E+03  0.37394349065E+03  0.79078893419E+02 0.  0.
         11    1    3    3    0    0  0.19872212451E+02  0.19191956291E+02 -0.25226592453E+02  0.37411455208E+02  0.00000000000E+00 0.  1.
        -11    1    3    3    0    0  0.43940771237E+03  0.24876004432E+01 -0.18197533331E+03  0.47560524364E+03  0.00000000000E+00 0. -1.
          2    1    6    6  502    0  0.54972482699E+02  0.14421205825E+03 -0.19662710450E+03  0.24996261685E+03  0.00000000000E+00 0. -1.
          1    1    5    5  503    0 -0.34419928785E+03 -0.16563022907E+03  0.89159896563E+02  0.39224483386E+03  0.00000000000E+00 0. -1.
         -2    1    5    5    0  503 -0.24709251311E+03 -0.52087252395E+02  0.37892013985E+02  0.25534994933E+03  0.00000000000E+00 0.  1.
         -1    1    6    6    0  502  0.77039393440E+02  0.51825866474E+02 -0.82160017582E+02  0.12398087379E+03  0.00000000000E+00 0.  1.
<mgrwt>
<rscale>  0 0.14919863E+04</rscale>
<asrwt>0</asrwt>
<pdfrwt beam="1">  1        1 0.90432141E-01 0.14919863E+04</pdfrwt>
<pdfrwt beam="2">  1       -1 0.14565324E+00 0.14919863E+04</pdfrwt>
<totfact> 0.12894012E+01</totfact>
</mgrwt>
</event>
<event>
12    1  0.1980523E-007  0.2031212E+04  0.7818608E-02  0.8592166E-01
         -2   -1    0    0    0  501 -0.00000000000E+00  0.00000000000E+00  0.41357109133E+03  0.41357109133E+03  0.00000000000E+00 0.  1.
          2   -1    0    0  501    0  0.00000000000E+00 -0.00000000000E+00 -0.24940215377E+04  0.24940215377E+04  0.00000000000E+00 0. -1.
         23    2    1    2    0    0  0.13707564993E+02  0.59655895844E+03 -0.47803855042E+02  0.60544058475E+03  0.90568233243E+02 0.  0.
        254    2    1    2    0    0 -0.13707564993E+02 -0.59655895844E+03 -0.20326465914E+04  0.23021520443E+04  0.90121106379E+03 0.  0.
        -24    2    4    4    0    0  0.14288402799E+03 -0.47632310044E+03 -0.36847958069E+03  0.62425920033E+03  0.81380626316E+02 0.  0.
         24    2    4    4    0    0 -0.15659159298E+03 -0.12023585800E+03 -0.16641670107E+04  0.16778928440E+04  0.83035943547E+02 0.  0.
         11    1    3    3    0    0 -0.25774539391E+02  0.24891139095E+03 -0.51744158157E+02  0.25553603528E+03  0.00000000000E+00 0.  1.
        -11    1    3    3    0    0  0.39482104384E+02  0.34764756749E+03  0.39403031147E+01  0.34990454947E+03  0.00000000000E+00 0. -1.
          2    1    6    6  502    0 -0.86215036880E+01 -0.17214133451E+02 -0.48267357504E+02  0.51965320328E+02  0.00000000000E+00 0. -1.
          1    1    5    5  503    0  0.40102538102E+02 -0.48451371942E+02 -0.33780490453E+02  0.71392370325E+02  0.00000000000E+00 0. -1.
         -2    1    5    5    0  503  0.10278148989E+03 -0.42787172850E+03 -0.33469909024E+03  0.55286683000E+03  0.00000000000E+00 0.  1.
         -1    1    6    6    0  502 -0.14797008930E+03 -0.10302172455E+03 -0.16158996532E+04  0.16259275237E+04  0.00000000000E+00 0.  1.
<mgrwt>
<rscale>  0 0.20312117E+04</rscale>
<asrwt>0</asrwt>
<pdfrwt beam="1">  1        2 0.38369562E+00 0.20312117E+04</pdfrwt>
<pdfrwt beam="2">  1       -2 0.63626323E-01 0.20312117E+04</pdfrwt>
<totfact> 0.74359771E+00</totfact>
</mgrwt>
</event>
<event>
12    1  0.1980523E-007  0.1965525E+04  0.7818608E-02  0.8622911E-01
          2   -1    0    0  501    0  0.00000000000E+00  0.00000000000E+00  0.27454710288E+04  0.27454710288E+04  0.00000000000E+00 0. -1.
         -2   -1    0    0    0  501 -0.00000000000E+00 -0.00000000000E+00 -0.35178733007E+03  0.35178733007E+03  0.00000000000E+00 0.  1.
         23    2    1    2    0    0  0.32240847602E+02  0.65242347732E+03  0.15933542729E+04  0.17244944683E+04  0.91692237229E+02 0.  0.
        254    2    1    2    0    0 -0.32240847602E+02 -0.65242347732E+03  0.80032942584E+03  0.13727638905E+04  0.90402303249E+03 0.  0.
        -24    2    4    4    0    0  0.85106454534E+02 -0.35887960058E+03  0.94390000287E+03  0.10164503878E+04  0.78654301395E+02 0.  0.
         24    2    4    4    0    0 -0.11734730214E+03 -0.29354387674E+03 -0.14357057703E+03  0.35631350274E+03  0.80052512487E+02 0.  0.
         13    1    3    3    0    0  0.38785131826E+02  0.10283838831E+03  0.27631539590E+03  0.29737218863E+03  0.00000000000E+00 0. -1.
        -13    1    3    3    0    0 -0.65442842234E+01  0.54958508902E+03  0.13170388770E+04  0.14271222797E+04  0.00000000000E+00 0.  1.
          2    1    6    6  502    0 -0.11695743780E+03 -0.29427543720E+03 -0.12934397585E+03  0.34206277097E+03  0.00000000000E+00 0. -1.
          3    1    5    5  503    0  0.55741202650E+02 -0.29969590208E+03  0.83698852903E+03  0.89077186368E+03  0.00000000000E+00 0. -1.
         -4    1    5    5    0  503  0.29365251884E+02 -0.59183698509E+02  0.10691147384E+03  0.12567852412E+03  0.00000000000E+00 0.  1.
         -1    1    6    6    0  502 -0.38986433392E+00  0.73156045844E+00 -0.14226601174E+02  0.14250731766E+02  0.00000000000E+00 0.  1.
<mgrwt>
<rscale>  0 0.19655248E+04</rscale>
<asrwt>0</asrwt>
<pdfrwt beam="1">  1        2 0.42238014E+00 0.19655248E+04</pdfrwt>
<pdfrwt beam="2">  1       -2 0.54121129E-01 0.19655248E+04</pdfrwt>
<totfact> 0.74814200E+00</totfact>
</mgrwt>
</event>
<event>
12    1  0.1980523E-007  0.3032059E+04  0.7818608E-02  0.8234635E-01
          2   -1    0    0  501    0  0.00000000000E+00  0.00000000000E+00  0.19908336055E+04  0.19908336055E+04  0.00000000000E+00 0. -1.
         -2   -1    0    0    0  501 -0.00000000000E+00 -0.00000000000E+00 -0.11544635904E+04  0.11544635904E+04  0.00000000000E+00 0.  1.
         23    2    1    2    0    0 -0.41529838663E+03 -0.45225976616E+03 -0.90080964861E+03  0.10942524021E+04  0.94438606943E+02 0.  0.
        254    2    1    2    0    0  0.41529838663E+03  0.45225976616E+03  0.17371796637E+04  0.20510447938E+04  0.90109928196E+03 0.  0.
        -24    2    4    4    0    0  0.99211120675E+02 -0.20279388644E+03  0.10430356440E+03  0.26177366601E+03  0.81719103193E+02 0.  0.
         24    2    4    4    0    0  0.31608726595E+03  0.65505365259E+03  0.16328760993E+04  0.17892711278E+04  0.78742398987E+02 0.  0.
         11    1    3    3    0    0 -0.14272663149E+03 -0.93644223527E+02 -0.23961450310E+03  0.29420272268E+03  0.00000000000E+00 0. -1.
        -11    1    3    3    0    0 -0.27257175514E+03 -0.35861554263E+03 -0.66119514551E+03  0.80004967943E+03  0.00000000000E+00 0.  1.
          4    1    6    6  502    0  0.28677592417E+03  0.59438551553E+03  0.14174345443E+04  0.15635393372E+04  0.00000000000E+00 0. -1.
          1    1    5    5  503    0  0.39555990583E+02 -0.15910266421E+03  0.55108638965E+02  0.17296038921E+03  0.00000000000E+00 0. -1.
         -2    1    5    5    0  503  0.59655130092E+02 -0.43691222231E+02  0.49194925434E+02  0.88813276793E+02  0.00000000000E+00 0.  1.
         -3    1    6    6    0  502  0.29311341781E+02  0.60668137066E+02  0.21544155507E+03  0.22573179055E+03  0.00000000000E+00 0.  1.
<mgrwt>
<rscale>  0 0.30320586E+04</rscale>
<asrwt>0</asrwt>
<pdfrwt beam="1">  1        2 0.30628209E+00 0.30320586E+04</pdfrwt>
<pdfrwt beam="2">  1       -2 0.17760978E+00 0.30320586E+04</pdfrwt>
<totfact> 0.10874014E+00</totfact>
</mgrwt>
</event>
<event>
12    1  0.1980523E-007  0.2545921E+04  0.7818608E-02  0.8386806E-01
          1   -1    0    0  501    0  0.00000000000E+00  0.00000000000E+00  0.13633745904E+04  0.13633745904E+04  0.00000000000E+00 0. -1.
         -1   -1    0    0    0  501 -0.00000000000E+00 -0.00000000000E+00 -0.11885427153E+04  0.11885427153E+04  0.00000000000E+00 0.  1.
         23    2    1    2    0    0  0.25413817199E+03  0.90648876079E+03  0.66125818908E+03  0.11540716317E+04  0.91163888956E+02 0.  0.
        254    2    1    2    0    0 -0.25413817199E+03 -0.90648876079E+03 -0.48642631397E+03  0.13978456740E+04  0.91162156924E+03 0.  0.
        -24    2    4    4    0    0 -0.56194623090E+03 -0.43689190652E+03 -0.13022513123E+03  0.72811278913E+03  0.80817971254E+02 0.  0.
         24    2    4    4    0    0  0.30780805891E+03 -0.46959685427E+03 -0.35620118274E+03  0.66973288487E+03  0.79974044720E+02 0.  0.
         13    1    3    3    0    0  0.87346841173E+02  0.17769779829E+03  0.12877423769E+03  0.23619649124E+03  0.00000000000E+00 0. -1.
        -13    1    3    3    0    0  0.16679133082E+03  0.72879096250E+03  0.53248395139E+03  0.91787514050E+03  0.00000000000E+00 0.  1.
          2    1    6    6  502    0  0.22205533885E+03 -0.38991048593E+03 -0.26302811834E+03  0.52011782472E+03  0.00000000000E+00 0. -1.
          3    1    5    5  503    0 -0.42161350886E+03 -0.33723617258E+03 -0.63920343393E+02  0.54366533571E+03  0.00000000000E+00 0. -1.
         -4    1    5    5    0  503 -0.14033272204E+03 -0.99655733943E+02 -0.66304787837E+02  0.18444745342E+03  0.00000000000E+00 0.  1.
         -1    1    6    6    0  502  0.85752720062E+02 -0.79686368337E+02 -0.93173064395E+02  0.14961506016E+03  0.00000000000E+00 0.  1.
<mgrwt>
<rscale>  0 0.25459214E+04</rscale>
<asrwt>0</asrwt>
<pdfrwt beam="1">  1        1 0.20974994E+00 0.25459214E+04</pdfrwt>
<pdfrwt beam="2">  1       -1 0.18285273E+00 0.25459214E+04</pdfrwt>
<totfact> 0.14325653E+00</totfact>
</mgrwt>
</event>
<event>
12    1  0.1980523E-007  0.1695028E+04  0.7818608E-02  0.8764205E-01
         -2   -1    0    0    0  501 -0.00000000000E+00  0.00000000000E+00  0.84752243882E+03  0.84752243882E+03  0.00000000000E+00 0.  1.
          2   -1    0    0  501    0  0.00000000000E+00 -0.00000000000E+00 -0.84750578862E+03  0.84750578862E+03  0.00000000000E+00 0. -1.
         23    2    1    2    0    0 -0.33564430312E+03  0.44127303613E+03  0.23972057111E+03  0.61021574801E+03  0.86708224936E+02 0.  0.
        254    2    1    2    0    0  0.33564430312E+03 -0.44127303613E+03 -0.23970392091E+03  0.10848124794E+04  0.90109996960E+03 0.  0.
        -24    2    4    4    0    0  0.12176070756E+03 -0.61378935125E+03  0.10195220441E+03  0.63907876042E+03  0.80401320982E+02 0.  0.
         24    2    4    4    0    0  0.21388359556E+03  0.17251631512E+03 -0.34165612533E+03  0.44573371902E+03  0.80259384884E+02 0.  0.
         11    1    3    3    0    0 -0.26667277353E+03  0.28490413142E+03  0.16458833254E+03  0.42352573883E+03  0.00000000000E+00 0.  1.
        -11    1    3    3    0    0 -0.68971529585E+02  0.15636890471E+03  0.75132238568E+02  0.18669000918E+03  0.00000000000E+00 0. -1.
          2    1    6    6  502    0  0.34688837003E+02  0.58703607158E+02 -0.48017816625E+02  0.83397479695E+02  0.00000000000E+00 0. -1.
          1    1    5    5  503    0 -0.24590854164E+01 -0.19388646500E+02 -0.94401866749E+01  0.21704465868E+02  0.00000000000E+00 0. -1.
         -2    1    5    5    0  503  0.12421979297E+03 -0.59440070475E+03  0.11139239109E+03  0.61737429455E+03  0.00000000000E+00 0.  1.
         -1    1    6    6    0  502  0.17919475856E+03  0.11381270796E+03 -0.29363830870E+03  0.36233623932E+03  0.00000000000E+00 0.  1.
<mgrwt>
<rscale>  0 0.16950282E+04</rscale>
<asrwt>0</asrwt>
<pdfrwt beam="1">  1        2 0.13038551E+00 0.16950282E+04</pdfrwt>
<pdfrwt beam="2">  1       -2 0.13038807E+00 0.16950282E+04</pdfrwt>
<totfact> 0.13073195E+01</totfact>
</mgrwt>
</event>
<event>
12    1  0.1980523E-007  0.2001802E+04  0.7818608E-02  0.8605779E-01
          2   -1    0    0  501    0  0.00000000000E+00  0.00000000000E+00  0.36519888378E+04  0.36519888378E+04  0.00000000000E+00 0. -1.
         -2   -1    0    0    0  501 -0.00000000000E+00 -0.00000000000E+00 -0.27431696375E+03  0.27431696375E+03  0.00000000000E+00 0.  1.
         23    2    1    2    0    0 -0.33924736905E+03 -0.60856668027E+03  0.21059888669E+04  0.22200264751E+04  0.88804622120E+02 0.  0.
        254    2    1    2    0    0  0.33924736905E+03  0.60856668027E+03  0.12716830071E+04  0.17062793265E+04  0.89931601090E+03 0.  0.
        -24    2    4    4    0    0  0.40162977303E+03 -0.64759841763E+02  0.71580158379E+03  0.82713427698E+03  0.79239466941E+02 0.  0.
         24    2    4    4    0    0 -0.62382403974E+02  0.67332652203E+03  0.55588142336E+03  0.87914504947E+03  0.81435198610E+02 0.  0.
         11    1    3    3    0    0 -0.16886135576E+02 -0.79568983308E+02  0.29540536132E+03  0.30639956295E+03  0.00000000000E+00 0. -1.
        -11    1    3    3    0    0 -0.32236123348E+03 -0.52899769696E+03  0.18105835056E+04  0.19136269122E+04  0.00000000000E+00 0.  1.
          2    1    6    6  502    0 -0.11151422348E+02  0.49053304154E+03  0.38405114440E+03  0.62309092481E+03  0.00000000000E+00 0. -1.
          3    1    5    5  503    0  0.37878825935E+03 -0.50665120521E+02  0.69513593294E+03  0.79326002365E+03  0.00000000000E+00 0. -1.
         -4    1    5    5    0  503  0.22841513671E+02 -0.14094721242E+02  0.20665650849E+02  0.33874253330E+02  0.00000000000E+00 0.  1.
         -1    1    6    6    0  502 -0.51230981626E+02  0.18279348049E+03  0.17183027896E+03  0.25605412466E+03  0.00000000000E+00 0.  1.
<mgrwt>
<rscale>  0 0.20018017E+04</rscale>
<asrwt>0</asrwt>
<pdfrwt beam="1">  1        2 0.56184440E+00 0.20018017E+04</pdfrwt>
<pdfrwt beam="2">  1       -2 0.42202613E-01 0.20018017E+04</pdfrwt>
<totfact> 0.31511837E+00</totfact>
</mgrwt>
</event>
<event>
12    1  0.1980523E-007  0.1187843E+04  0.7818608E-02  0.9123565E-01
          2   -1    0    0  501    0  0.00000000000E+00  0.00000000000E+00  0.86664233016E+03  0.86664233016E+03  0.00000000000E+00 0. -1.
         -2   -1    0    0    0  501 -0.00000000000E+00 -0.00000000000E+00 -0.40702203165E+03  0.40702203165E+03  0.00000000000E+00 0.  1.
         23    2    1    2    0    0 -0.20138847605E+03  0.12815174065E+03  0.88995488889E+02  0.27143847827E+03  0.93693455085E+02 0.  0.
        254    2    1    2    0    0  0.20138847605E+03 -0.12815174065E+03  0.37062480962E+03  0.10022258835E+04  0.90006321179E+03 0.  0.
        -24    2    4    4    0    0  0.47303824992E+03 -0.32998043705E+03  0.25435248350E+03  0.63566612476E+03  0.81999765750E+02 0.  0.
         24    2    4    4    0    0 -0.27164977387E+03  0.20182869640E+03  0.11627232612E+03  0.36655975878E+03  0.79488241935E+02 0.  0.
         11    1    3    3    0    0 -0.11659859835E+03  0.11879288270E+03  0.82795134858E+02  0.18590862399E+03  0.00000000000E+00 0. -1.
        -11    1    3    3    0    0 -0.84789877706E+02  0.93588579461E+01  0.62003540306E+01  0.85529854283E+02  0.00000000000E+00 0.  1.
          4    1    6    6  502    0 -0.20953255658E+03  0.12474189006E+03  0.10955468058E+03  0.26733248856E+03  0.00000000000E+00 0. -1.
          3    1    5    5  503    0  0.14474543736E+02 -0.29867870415E+02  0.49968502956E+01  0.33564424803E+02  0.00000000000E+00 0. -1.
         -4    1    5    5    0  503  0.45856370618E+03 -0.30011256663E+03  0.24935563321E+03  0.60210169996E+03  0.00000000000E+00 0.  1.
         -3    1    6    6    0  502 -0.62117217291E+02  0.77086806332E+02  0.67176455410E+01  0.99227270223E+02  0.00000000000E+00 0.  1.
<mgrwt>
<rscale>  0 0.11878426E+04</rscale>
<asrwt>0</asrwt>
<pdfrwt beam="1">  1        2 0.13332959E+00 0.11878426E+04</pdfrwt>
<pdfrwt beam="2">  1       -2 0.62618774E-01 0.11878426E+04</pdfrwt>
<totfact> 0.72198922E+01</totfact>
</mgrwt>
</event>
<event>
12    1  0.1980523E-007  0.2031033E+04  0.7818608E-02  0.8592248E-01
         -1   -1    0    0    0  501 -0.00000000000E+00  0.00000000000E+00  0.62550029500E+03  0.62550029500E+03  0.00000000000E+00 0.  1.
          1   -1    0    0  501    0  0.00000000000E+00 -0.00000000000E+00 -0.16487186458E+04  0.16487186458E+04  0.00000000000E+00 0. -1.
         23    2    1    2    0    0  0.42877455941E+03 -0.90732284203E+02 -0.11798550443E+04  0.12602134875E+04  0.63246645833E+02 0.  0.
        254    2    1    2    0    0 -0.42877455941E+03  0.90732284203E+02  0.15663669354E+03  0.10140054533E+04  0.90088402992E+03 0.  0.
        -24    2    4    4    0    0 -0.48457284696E+03 -0.28891297559E+03 -0.47714683903E+02  0.57191170491E+03  0.80775959789E+02 0.  0.
         24    2    4    4    0    0  0.55798287548E+02  0.37964525979E+03  0.20435137744E+03  0.44209374839E+03  0.80270945717E+02 0.  0.
         13    1    3    3    0    0  0.38225660990E+03 -0.59746968570E+02 -0.10270276424E+04  0.10974860338E+04  0.00000000000E+00 0. -1.
        -13    1    3    3    0    0  0.46517949514E+02 -0.30985315634E+02 -0.15282740187E+03  0.16272745366E+03  0.00000000000E+00 0.  1.
          2    1    6    6  502    0  0.11575219810E+02  0.21821125728E+03  0.15390013832E+03  0.26727400003E+03  0.00000000000E+00 0. -1.
          1    1    5    5  503    0 -0.30216928959E+03 -0.18983935396E+03 -0.68258950002E+02  0.36332429610E+03  0.00000000000E+00 0. -1.
         -2    1    5    5    0  503 -0.18240355737E+03 -0.99073621635E+02  0.20544266099E+02  0.20858740882E+03  0.00000000000E+00 0.  1.
         -1    1    6    6    0  502  0.44223067738E+02  0.16143400252E+03  0.50451239124E+02  0.17481974836E+03  0.00000000000E+00 0.  1.
<mgrwt>
<rscale>  0 0.20310332E+04</rscale>
<asrwt>0</asrwt>
<pdfrwt beam="1">  1        1 0.25364902E+00 0.20310332E+04</pdfrwt>
<pdfrwt beam="2">  1       -1 0.96230816E-01 0.20310332E+04</pdfrwt>
<totfact> 0.49716004E+00</totfact>
</mgrwt>
</event>
<event>
12    1  0.1980523E-007  0.1792261E+04  0.7818608E-02  0.8710426E-01
          2   -1    0    0  501    0  0.00000000000E+00  0.00000000000E+00  0.90503009702E+03  0.90503009702E+03  0.00000000000E+00 0. -1.
         -2   -1    0    0    0  501 -0.00000000000E+00 -0.00000000000E+00 -0.88731866674E+03  0.88731866674E+03  0.00000000000E+00 0.  1.
         23    2    1    2    0    0 -0.65924160207E+03 -0.61999826524E+02 -0.63245292670E+02  0.67201825790E+03  0.95734547139E+02 0.  0.
        254    2    1    2    0    0  0.65924160207E+03  0.61999826524E+02  0.80956722950E+02  0.11203305059E+04  0.90007943149E+03 0.  0.
        -24    2    4    4    0    0  0.41158713230E+03  0.46690238642E+03 -0.23144658968E+02  0.62766789459E+03  0.77649885666E+02 0.  0.
         24    2    4    4    0    0  0.24765446977E+03 -0.40490255990E+03  0.10410138192E+03  0.49266261127E+03  0.81243654631E+02 0.  0.
         13    1    3    3    0    0 -0.24415666862E+03  0.22728098928E+02 -0.15696185566E+02  0.24571409311E+03  0.00000000000E+00 0. -1.
        -13    1    3    3    0    0 -0.41508493345E+03 -0.84727925452E+02 -0.47549107104E+02  0.42630416479E+03  0.00000000000E+00 0.  1.
          4    1    6    6  502    0 -0.18818844119E+00 -0.65536170330E+00  0.90239179746E+01  0.90496413997E+01  0.00000000000E+00 0. -1.
          1    1    5    5  503    0  0.11455744697E+03  0.98551299314E+02  0.20365918095E+02  0.15248127057E+03  0.00000000000E+00 0. -1.
         -2    1    5    5    0  503  0.29702968533E+03  0.36835108711E+03 -0.43510577063E+02  0.47518662403E+03  0.00000000000E+00 0.  1.
         -3    1    6    6    0  502  0.24784265821E+03 -0.40424719819E+03  0.95077463943E+02  0.48361296987E+03  0.00000000000E+00 0.  1.
<mgrwt>
<rscale>  0 0.17922613E+04</rscale>
<asrwt>0</asrwt>
<pdfrwt beam="1">  1        2 0.13923540E+00 0.17922613E+04</pdfrwt>
<pdfrwt beam="2">  1       -2 0.13651056E+00 0.17922613E+04</pdfrwt>
<totfact> 0.10536058E+01</totfact>
</mgrwt>
</event>
<event>
12    1  0.1980523E-007  0.3265341E+04  0.7818608E-02  0.8171771E-01
         -2   -1    0    0    0  501 -0.00000000000E+00  0.00000000000E+00  0.71112601402E+03  0.71112601402E+03  0.00000000000E+00 0.  1.
          2   -1    0    0  501    0  0.00000000000E+00 -0.00000000000E+00 -0.37484391633E+04  0.37484391633E+04  0.00000000000E+00 0. -1.
         23    2    1    2    0    0  0.41050073897E+03 -0.97726175532E+03  0.58758737593E+02  0.10653578411E+04  0.89349567818E+02 0.  0.
        254    2    1    2    0    0 -0.41050073897E+03  0.97726175532E+03 -0.30960718869E+04  0.33942073362E+04  0.90079460334E+03 0.  0.
        -24    2    4    4    0    0  0.19301850185E+03  0.50575659525E+03 -0.18530458473E+04  0.19320842979E+04  0.78262035781E+02 0.  0.
         24    2    4    4    0    0 -0.60351924081E+03  0.47150516007E+03 -0.12430260396E+04  0.14621230384E+04  0.78341905473E+02 0.  0.
         11    1    3    3    0    0  0.20859082294E+03 -0.48779038356E+03 -0.15204775581E+02  0.53073606898E+03  0.00000000000E+00 0. -1.
        -11    1    3    3    0    0  0.20190991603E+03 -0.48947137176E+03  0.73963513175E+02  0.53462177214E+03  0.00000000000E+00 0.  1.
          4    1    6    6  502    0 -0.39548550163E+03  0.35126057223E+03 -0.82707742561E+03  0.98175854443E+03  0.00000000000E+00 0. -1.
          1    1    5    5  503    0  0.78175640390E+01  0.25613199938E+02 -0.46408715830E+02  0.53580959525E+02  0.00000000000E+00 0. -1.
         -2    1    5    5    0  503  0.18520093781E+03  0.48014339531E+03 -0.18066371315E+04  0.18785033383E+04  0.00000000000E+00 0.  1.
         -3    1    6    6    0  502 -0.20803373919E+03  0.12024458784E+03 -0.41594861399E+03  0.48036449392E+03  0.00000000000E+00 0.  1.
<mgrwt>
<rscale>  0 0.32653408E+04</rscale>
<asrwt>0</asrwt>
<pdfrwt beam="1">  1        2 0.57668294E+00 0.32653408E+04</pdfrwt>
<pdfrwt beam="2">  1       -2 0.10940400E+00 0.32653408E+04</pdfrwt>
<totfact> 0.29902944E-01</totfact>
</mgrwt>
</event>
<event>
12    1  0.1980523E-007  0.1868803E+04  0.7818608E-02  0.8670543E-01
         -1   -1    0    0    0  501 -0.00000000000E+00  0.00000000000E+00  0.95169854305E+03  0.95169854305E+03  0.00000000000E+00 0.  1.
          1   -1    0    0  501    0  0.00000000000E+00 -0.00000000000E+00 -0.91741892992E+03  0.91741892992E+03  0.00000000000E+00 0. -1.
         23    2    1    2    0    0  0.65156796174E+03 -0.21481709821E+03  0.21323778763E+03  0.72381361551E+03  0.88026140831E+02 0.  0.
        254    2    1    2    0    0 -0.65156796174E+03  0.21481709821E+03 -0.17895817450E+03  0.11453038575E+04  0.89944855509E+03 0.  0.
        -24    2    4    4    0    0 -0.41083016232E+03  0.41925772453E+03  0.21819448628E+03  0.63193805824E+03  0.84725520131E+02 0.  0.
         24    2    4    4    0    0 -0.24073779942E+03 -0.20444062632E+03 -0.39715266078E+03  0.51336579923E+03  0.77868800521E+02 0.  0.
         13    1    3    3    0    0  0.39971948613E+03 -0.16894212852E+03  0.15879196403E+03  0.46209522635E+03  0.00000000000E+00 0.  1.
        -13    1    3    3    0    0  0.25184847562E+03 -0.45874969685E+02  0.54445823601E+02  0.26171838915E+03  0.00000000000E+00 0. -1.
          2    1    6    6  502    0 -0.23877535908E+03 -0.18496856653E+03 -0.34995916369E+03  0.46227530646E+03  0.00000000000E+00 0. -1.
          1    1    5    5  503    0 -0.36733714627E+03  0.40537471602E+03  0.19533155865E+03  0.58087834976E+03  0.00000000000E+00 0. -1.
         -2    1    5    5    0  503 -0.43493016045E+02  0.13883008511E+02  0.22862927625E+02  0.51059708476E+02  0.00000000000E+00 0.  1.
         -1    1    6    6    0  502 -0.19624403434E+01 -0.19472059785E+02 -0.47193497085E+02  0.51090492770E+02  0.00000000000E+00 0.  1.
<mgrwt>
<rscale>  0 0.18688031E+04</rscale>
<asrwt>0</asrwt>
<pdfrwt beam="1">  1        1 0.14114137E+00 0.18688031E+04</pdfrwt>
<pdfrwt beam="2">  1       -1 0.14641516E+00 0.18688031E+04</pdfrwt>
<totfact> 0.61510834E+00</totfact>
</mgrwt>
</event>
<event>
12    1  0.1980523E-007  0.2005786E+04  0.7818608E-02  0.8603920E-01
          1   -1    0    0  501    0  0.00000000000E+00  0.00000000000E+00  0.37404360864E+03  0.37404360864E+03  0.00000000000E+00 0. -1.
         -1   -1    0    0    0  501 -0.00000000000E+00 -0.00000000000E+00 -0.26889766441E+04  0.26889766441E+04  0.00000000000E+00 0.  1.
         23    2    1    2    0    0 -0.56317778677E+03  0.35782475852E+03 -0.15976651357E+04  0.17337086950E+04  0.89466060985E+02 0.  0.
        254    2    1    2    0    0  0.56317778677E+03 -0.35782475852E+03 -0.71726789972E+03  0.13293115577E+04  0.89854782848E+03 0.  0.
        -24    2    4    4    0    0  0.53039764391E+02 -0.55569252769E+03 -0.40015966247E+03  0.69212953195E+03  0.85487610795E+02 0.  0.
         24    2    4    4    0    0  0.51013802238E+03  0.19786776917E+03 -0.31710823725E+03  0.63718202571E+03  0.77787169920E+02 0.  0.
         13    1    3    3    0    0 -0.39802893172E+03  0.28164502643E+03 -0.12408949414E+04  0.13332558670E+04  0.00000000000E+00 0.  1.
        -13    1    3    3    0    0 -0.16514885505E+03  0.76179732090E+02 -0.35677019430E+03  0.40045282799E+03  0.00000000000E+00 0. -1.
          2    1    6    6  502    0  0.38788435568E+02 -0.11955531149E+01 -0.87318054958E+01  0.39777085216E+02  0.00000000000E+00 0. -1.
          3    1    5    5  503    0  0.29194422211E+02 -0.93992132383E+02 -0.40667103755E+02  0.10649248126E+03  0.00000000000E+00 0. -1.
         -4    1    5    5    0  503  0.23845342181E+02 -0.46170039531E+03 -0.35949255871E+03  0.58563705069E+03  0.00000000000E+00 0.  1.
         -1    1    6    6    0  502  0.47134958681E+03  0.19906332229E+03 -0.30837643175E+03  0.59740494049E+03  0.00000000000E+00 0.  1.
<mgrwt>
<rscale>  0 0.20057862E+04</rscale>
<asrwt>0</asrwt>
<pdfrwt beam="1">  1        1 0.57545168E-01 0.20057862E+04</pdfrwt>
<pdfrwt beam="2">  1       -1 0.41368873E+00 0.20057862E+04</pdfrwt>
<totfact> 0.35108926E-01</totfact>
</mgrwt>
</event>
<event>
12    1  0.1980523E-007  0.1385974E+04  0.7818608E-02  0.8964034E-01
         -2   -1    0    0    0  501 -0.00000000000E+00  0.00000000000E+00  0.29087357823E+03  0.29087357823E+03  0.00000000000E+00 0.  1.
          2   -1    0    0  501    0  0.00000000000E+00 -0.00000000000E+00 -0.16509953026E+04  0.16509953026E+04  0.00000000000E+00 0. -1.
         23    2    1    2    0    0  0.13374354510E+03 -0.36303607136E+03 -0.40698324354E+03  0.56963577981E+03  0.95744640326E+02 0.  0.
        254    2    1    2    0    0 -0.13374354510E+03  0.36303607136E+03 -0.95313848079E+03  0.13722331010E+04  0.90822254700E+03 0.  0.
        -24    2    4    4    0    0 -0.43190790265E+03  0.47785461130E+03 -0.54378796007E+03  0.84678638045E+03  0.80326600071E+02 0.  0.
         24    2    4    4    0    0  0.29816435755E+03 -0.11481853994E+03 -0.40935052072E+03  0.52544672052E+03  0.80256626328E+02 0.  0.
         11    1    3    3    0    0  0.42584632773E+02 -0.19265722684E+03 -0.26237356785E+03  0.32828363820E+03  0.00000000000E+00 0. -1.
        -11    1    3    3    0    0  0.91158912324E+02 -0.17037884452E+03 -0.14460967568E+03  0.24135214161E+03  0.00000000000E+00 0.  1.
          2    1    6    6  502    0  0.28788131772E+03 -0.11641703363E+03 -0.36188395922E+03  0.47685278520E+03  0.00000000000E+00 0. -1.
          1    1    5    5  503    0 -0.33902074330E+03  0.36109533311E+03 -0.45842978210E+03  0.67489463555E+03  0.00000000000E+00 0. -1.
         -2    1    5    5    0  503 -0.92887159354E+02  0.11675927820E+03 -0.85358177970E+02  0.17189174490E+03  0.00000000000E+00 0.  1.
         -1    1    6    6    0  502  0.10283039835E+02  0.15984936861E+01 -0.47466561493E+02  0.48593935324E+02  0.00000000000E+00 0.  1.
<mgrwt>
<rscale>  0 0.13859739E+04</rscale>
<asrwt>0</asrwt>
<pdfrwt beam="1">  1        2 0.25399927E+00 0.13859739E+04</pdfrwt>
<pdfrwt beam="2">  1       -2 0.44749782E-01 0.13859739E+04</pdfrwt>
<totfact> 0.48177096E+01</totfact>
</mgrwt>
</event>
<event>
12    1  0.1980523E-007  0.2720504E+04  0.7818608E-02  0.8328383E-01
         -1   -1    0    0    0  501 -0.00000000000E+00  0.00000000000E+00  0.18437238695E+04  0.18437238695E+04  0.00000000000E+00 0.  1.
          1   -1    0    0  501    0  0.00000000000E+00 -0.00000000000E+00 -0.10035587473E+04  0.10035587473E+04  0.00000000000E+00 0. -1.
         23    2    1    2    0    0 -0.29322055429E+03  0.11455813591E+04  0.64056753131E+03  0.13480109281E+04  0.92042143687E+02 0.  0.
        254    2    1    2    0    0  0.29322055429E+03 -0.11455813591E+04  0.19959759087E+03  0.14992716887E+04  0.89980078596E+03 0.  0.
        -24    2    4    4    0    0  0.57817863212E+02 -0.75720537758E+03 -0.29898798645E+03  0.82001671602E+03  0.79565754979E+02 0.  0.
         24    2    4    4    0    0  0.23540269108E+03 -0.38837598154E+03  0.49858557732E+03  0.67925497267E+03  0.80928425105E+02 0.  0.
         11    1    3    3    0    0 -0.18468413089E+03  0.68777428646E+03  0.33503059801E+03  0.78701156213E+03  0.00000000000E+00 0. -1.
        -11    1    3    3    0    0 -0.10853642340E+03  0.45780707266E+03  0.30553693330E+03  0.56099936595E+03  0.00000000000E+00 0.  1.
          2    1    6    6  502    0  0.15551356265E+03 -0.17924067505E+03  0.26450429295E+03  0.35535082488E+03  0.00000000000E+00 0. -1.
          1    1    5    5  503    0  0.52435389723E+02 -0.68752995994E+03 -0.24518473374E+03  0.73182133719E+03  0.00000000000E+00 0. -1.
         -2    1    5    5    0  503  0.53824734886E+01 -0.69675417643E+02 -0.53803252710E+02  0.88195378829E+02  0.00000000000E+00 0.  1.
         -1    1    6    6    0  502  0.79889128432E+02 -0.20913530649E+03  0.23408128437E+03  0.32390414779E+03  0.00000000000E+00 0.  1.
<mgrwt>
<rscale>  0 0.27205038E+04</rscale>
<asrwt>0</asrwt>
<pdfrwt beam="1">  1        1 0.15439365E+00 0.27205038E+04</pdfrwt>
<pdfrwt beam="2">  1       -1 0.28364983E+00 0.27205038E+04</pdfrwt>
<totfact> 0.55232261E-01</totfact>
</mgrwt>
</event>
<event>
12    1  0.3463314E-007  0.3336384E+04  0.7818608E-02  0.8153699E-01
          2   -1    0    0  501    0  0.00000000000E+00  0.00000000000E+00  0.14041091830E+04  0.14041091830E+04  0.00000000000E+00 0. -1.
         -2   -1    0    0    0  501 -0.00000000000E+00 -0.00000000000E+00 -0.19819429542E+04  0.19819429542E+04  0.00000000000E+00 0.  1.
         23    2    1    2    0    0  0.77533813842E+03 -0.11187911025E+04  0.47481790004E+03  0.14445058278E+04  0.91116893333E+02 0.  0.
        254    2    1    2    0    0 -0.77533813842E+03  0.11187911025E+04 -0.10526516712E+04  0.19415463094E+04  0.89926846404E+03 0.  0.
        -24    2    4    4    0    0 -0.87647254326E+03  0.10594527097E+04 -0.66652037926E+03  0.15301336132E+04  0.80095536763E+02 0.  0.
         24    2    4    4    0    0  0.10113440484E+03  0.59338392805E+02 -0.38613129198E+03  0.41141269617E+03  0.80086323531E+02 0.  0.
         13    1    3    3    0    0  0.46524859802E+03 -0.63242908870E+03  0.23210430563E+03  0.81871559096E+03  0.00000000000E+00 0.  1.
        -13    1    3    3    0    0  0.31008954040E+03 -0.48636201384E+03  0.24271359440E+03  0.62579023680E+03  0.00000000000E+00 0. -1.
          2    1    6    6  502    0  0.39067278460E+02  0.37624754341E+02 -0.28945833648E+03  0.29449618494E+03  0.00000000000E+00 0. -1.
          1    1    5    5  503    0 -0.76330454904E+03  0.94724748853E+03 -0.56622436425E+03  0.13418351873E+04  0.00000000000E+00 0. -1.
         -2    1    5    5    0  503 -0.11316799422E+03  0.11220522120E+03 -0.10029601500E+03  0.18829842592E+03  0.00000000000E+00 0.  1.
         -1    1    6    6    0  502  0.62067126378E+02  0.21713638464E+02 -0.96672955500E+02  0.11691651123E+03  0.00000000000E+00 0.  1.
<mgrwt>
<rscale>  0 0.33363839E+04</rscale>
<asrwt>0</asrwt>
<pdfrwt beam="1">  1        2 0.21601680E+00 0.33363839E+04</pdfrwt>
<pdfrwt beam="2">  1       -2 0.30491430E+00 0.33363839E+04</pdfrwt>
<totfact> 0.35535414E-01</totfact>
</mgrwt>
</event>
<event>
12    1  0.1980523E-007  0.3723248E+04  0.7818608E-02  0.8062829E-01
          2   -1    0    0  501    0  0.00000000000E+00  0.00000000000E+00  0.34150497560E+04  0.34150497560E+04  0.00000000000E+00 0. -1.
         -2   -1    0    0    0  501 -0.00000000000E+00 -0.00000000000E+00 -0.10148149089E+04  0.10148149089E+04  0.00000000000E+00 0.  1.
         23    2    1    2    0    0 -0.57068223486E+03 -0.12280715206E+04  0.24517514184E+04  0.28019580715E+04  0.77756955253E+02 0.  0.
        254    2    1    2    0    0  0.57068223486E+03  0.12280715206E+04 -0.51516571186E+02  0.16279065934E+04  0.90199115670E+03 0.  0.
        -24    2    4    4    0    0 -0.18004392625E+03  0.13393105741E+02 -0.38392511228E+01  0.19729543526E+03  0.79470486735E+02 0.  0.
         24    2    4    4    0    0  0.75072616111E+03  0.12146784149E+04 -0.47677320064E+02  0.14306111581E+04  0.73087197136E+02 0.  0.
         13    1    3    3    0    0 -0.41095897836E+03 -0.89032486116E+03  0.18451775320E+04  0.20895563560E+04  0.00000000000E+00 0. -1.
        -13    1    3    3    0    0 -0.15972325650E+03 -0.33774665945E+03  0.60657388640E+03  0.71240171553E+03  0.00000000000E+00 0.  1.
          4    1    6    6  502    0  0.28801647912E+03  0.44111224640E+03 -0.50366010280E+02  0.52921662970E+03  0.00000000000E+00 0. -1.
          3    1    5    5  503    0 -0.12184391595E+03  0.45316463084E+02  0.62725297605E+01  0.13014939996E+03  0.00000000000E+00 0. -1.
         -4    1    5    5    0  503 -0.58200010298E+02 -0.31923357343E+02 -0.10111780883E+02  0.67146035291E+02  0.00000000000E+00 0.  1.
         -1    1    6    6    0  502  0.46270968199E+03  0.77356616847E+03  0.26886902163E+01  0.90139452842E+03  0.00000000000E+00 0.  1.
<mgrwt>
<rscale>  0 0.37232477E+04</rscale>
<asrwt>0</asrwt>
<pdfrwt beam="1">  1        2 0.52539226E+00 0.37232477E+04</pdfrwt>
<pdfrwt beam="2">  1       -2 0.15612537E+00 0.37232477E+04</pdfrwt>
<totfact> 0.20193599E-01</totfact>
</mgrwt>
</event>
<event>
12    1  0.1980523E-007  0.1269109E+04  0.7818608E-02  0.9054427E-01
          1   -1    0    0  501    0  0.00000000000E+00  0.00000000000E+00  0.12580705323E+04  0.12580705323E+04  0.00000000000E+00 0. -1.
         -1   -1    0    0    0  501 -0.00000000000E+00 -0.00000000000E+00 -0.32006105716E+03  0.32006105716E+03  0.00000000000E+00 0.  1.
         23    2    1    2    0    0 -0.77445957621E+01 -0.15907388696E+03 -0.83060620024E+02  0.20424788974E+03  0.97229900681E+02 0.  0.
        254    2    1    2    0    0  0.77445957621E+01  0.15907388696E+03  0.10210700952E+04  0.13738836998E+04  0.90532193218E+03 0.  0.
        -24    2    4    4    0    0 -0.14341042854E+03  0.17502552950E+03 -0.84556643157E+02  0.25493516377E+03  0.81496164512E+02 0.  0.
         24    2    4    4    0    0  0.15115502430E+03 -0.15951642539E+02  0.11056267384E+04  0.11189485360E+04  0.80827256370E+02 0.  0.
         11    1    3    3    0    0 -0.41237836545E+02 -0.86543819346E+02 -0.10705210310E+02  0.96462393489E+02  0.00000000000E+00 0. -1.
        -11    1    3    3    0    0  0.33493240783E+02 -0.72530067619E+02 -0.72355409713E+02  0.10778549625E+03  0.00000000000E+00 0.  1.
          2    1    6    6  502    0 -0.73594955056E+01  0.88775983809E+01  0.87568029505E+02  0.88324026847E+02  0.00000000000E+00 0. -1.
          3    1    5    5  503    0 -0.21694447634E+01  0.35025206362E+02  0.73526034102E+01  0.35854321192E+02  0.00000000000E+00 0. -1.
         -2    1    5    5    0  503 -0.14124098378E+03  0.14000032314E+03 -0.91909246567E+02  0.21908084257E+03  0.00000000000E+00 0.  1.
         -1    1    6    6    0  502  0.15851451981E+03 -0.24829240920E+02  0.10180587089E+04  0.10306245092E+04  0.00000000000E+00 0.  1.
<mgrwt>
<rscale>  0 0.12691090E+04</rscale>
<asrwt>0</asrwt>
<pdfrwt beam="1">  1        1 0.19354931E+00 0.12691090E+04</pdfrwt>
<pdfrwt beam="2">  1       -1 0.49240163E-01 0.12691090E+04</pdfrwt>
<totfact> 0.39448840E+01</totfact>
</mgrwt>
</event>
<event>
12    1  0.1980523E-007  0.2421230E+04  0.7818608E-02  0.8431598E-01
         -2   -1    0    0    0  501 -0.00000000000E+00  0.00000000000E+00  0.75597507465E+03  0.75597507465E+03  0.00000000000E+00 0. -1.
          2   -1    0    0  501    0  0.00000000000E+00 -0.00000000000E+00 -0.19386738641E+04  0.19386738641E+04  0.00000000000E+00 0.  1.
         23    2    1    2    0    0  0.57318142356E+03 -0.18630440186E+03 -0.14582847664E+04  0.15805027128E+04  0.90266775735E+02 0.  0.
        254    2    1    2    0    0 -0.57318142356E+03  0.18630440186E+03  0.27558597689E+03  0.11141462260E+04  0.89561593766E+03 0.  0.
        -24    2    4    4    0    0 -0.75582970411E+03  0.18599337541E+03  0.40047171243E+03  0.87896742569E+03  0.79586843486E+02 0.  0.
         24    2    4    4    0    0  0.18264828055E+03  0.31102644577E+00 -0.12488573554E+03  0.23517880031E+03  0.79700251255E+02 0.  0.
         11    1    3    3    0    0  0.52259631322E+03 -0.14131433909E+03 -0.13125759245E+04  0.14198352745E+04  0.00000000000E+00 0.  1.
        -11    1    3    3    0    0  0.50585110336E+02 -0.44990062768E+02 -0.14570884184E+03  0.16066743829E+03  0.00000000000E+00 0. -1.
          2    1    6    6  502    0  0.36323985560E+02  0.32734700993E+02 -0.38123940750E+02  0.62003446955E+02  0.00000000000E+00 0. -1.
          1    1    5    5  503    0 -0.16936917782E+03  0.12898876722E+02  0.10665233505E+03  0.20056674696E+03  0.00000000000E+00 0. -1.
         -2    1    5    5    0  503 -0.58646052629E+03  0.17309449869E+03  0.29381937739E+03  0.67840067873E+03  0.00000000000E+00 0.  1.
         -1    1    6    6    0  502  0.14632429499E+03 -0.32423674547E+02 -0.86761794788E+02  0.17317535336E+03  0.00000000000E+00 0.  1.
<mgrwt>
<rscale>  0 0.24212304E+04</rscale>
<asrwt>0</asrwt>
<pdfrwt beam="1">  1        2 0.29825752E+00 0.24212304E+04</pdfrwt>
<pdfrwt beam="2">  1       -2 0.11630386E+00 0.24212304E+04</pdfrwt>
<totfact> 0.37213028E+00</totfact>
</mgrwt>
</event>
<event>
12    1  0.1980523E-007  0.3241335E+04  0.7818608E-02  0.8177985E-01
         -1   -1    0    0    0  501 -0.00000000000E+00  0.00000000000E+00  0.13640724255E+04  0.13640724255E+04  0.00000000000E+00 0.  1.
          1   -1    0    0  501    0  0.00000000000E+00 -0.00000000000E+00 -0.19255306159E+04  0.19255306159E+04  0.00000000000E+00 0. -1.
         23    2    1    2    0    0  0.94201058454E+02 -0.10152538953E+04 -0.13703502955E+04  0.17104398914E+04  0.90168610211E+02 0.  0.
        254    2    1    2    0    0 -0.94201058454E+02  0.10152538953E+04  0.80889210519E+03  0.15791631500E+04  0.89433523083E+03 0.  0.
        -24    2    4    4    0    0 -0.95852316888E+02 -0.14552133903E+03  0.96642329682E+02  0.21498412671E+03  0.80711263686E+02 0.  0.
         24    2    4    4    0    0  0.16512584348E+01  0.11607752343E+04  0.71224977551E+03  0.13641790233E+04  0.79264074820E+02 0.  0.
         13    1    3    3    0    0  0.58380244105E+02 -0.88764102736E+03 -0.12222189924E+04  0.15116660053E+04  0.00000000000E+00 0.  1.
        -13    1    3    3    0    0  0.35820814349E+02 -0.12761286796E+03 -0.14813130317E+03  0.19877388608E+03  0.00000000000E+00 0. -1.
          4    1    6    6  502    0 -0.33769563312E+02  0.84024302459E+03  0.52172599031E+03  0.98961948886E+03  0.00000000000E+00 0. -1.
          1    1    5    5  503    0 -0.50902838338E+02 -0.12850184932E+03  0.47259902284E+02  0.14607300433E+03  0.00000000000E+00 0. -1.
         -2    1    5    5    0  503 -0.44949478550E+02 -0.17019489703E+02  0.49382427398E+02  0.68911122378E+02  0.00000000000E+00 0.  1.
         -3    1    6    6    0  502  0.35420821747E+02  0.32053220976E+03  0.19052378520E+03  0.37455953443E+03  0.00000000000E+00 0.  1.
<mgrwt>
<rscale>  0 0.32413350E+04</rscale>
<asrwt>0</asrwt>
<pdfrwt beam="1">  1        1 0.29623548E+00 0.32413350E+04</pdfrwt>
<pdfrwt beam="2">  1       -1 0.20985730E+00 0.32413350E+04</pdfrwt>
<totfact> 0.35965024E-01</totfact>
</mgrwt>
</event>
<event>
12    1  0.1980523E-007  0.3033289E+04  0.7818608E-02  0.8234288E-01
          2   -1    0    0  501    0  0.00000000000E+00  0.00000000000E+00  0.26981300817E+04  0.26981300817E+04  0.00000000000E+00 0. -1.
         -2   -1    0    0    0  501 -0.00000000000E+00 -0.00000000000E+00 -0.85252007452E+03  0.85252007452E+03  0.00000000000E+00 0.  1.
         23    2    1    2    0    0 -0.12646061604E+04 -0.48946177913E+03  0.53431323222E+03  0.14602979903E+04  0.90432384256E+02 0.  0.
        254    2    1    2    0    0  0.12646061604E+04  0.48946177913E+03  0.13112967749E+04  0.20903521659E+04  0.90070604050E+03 0.  0.
        -24    2    4    4    0    0  0.20005908351E+03  0.12194939449E+03  0.82425086902E+03  0.86091579666E+03  0.83013385397E+02 0.  0.
         24    2    4    4    0    0  0.10645470769E+04  0.36751238464E+03  0.48704590591E+03  0.12294363692E+04  0.77293206328E+02 0.  0.
         13    1    3    3    0    0 -0.31958618468E+03 -0.15491914287E+03  0.16909941252E+03  0.39335719337E+03  0.00000000000E+00 0.  1.
        -13    1    3    3    0    0 -0.94501997573E+03 -0.33454263626E+03  0.36521381970E+03  0.10669407969E+04  0.00000000000E+00 0. -1.
          4    1    6    6  502    0  0.74746156406E+03  0.23195551561E+03  0.30986372925E+03  0.84173492364E+03  0.00000000000E+00 0. -1.
          1    1    5    5  503    0  0.16912056162E+03  0.69730025673E+02  0.68512148262E+03  0.70912304066E+03  0.00000000000E+00 0. -1.
         -2    1    5    5    0  503  0.30938521882E+02  0.52219368816E+02  0.13912938640E+03  0.15179275601E+03  0.00000000000E+00 0.  1.
         -3    1    6    6    0  502  0.31708551284E+03  0.13555686903E+03  0.17718217666E+03  0.38770144560E+03  0.00000000000E+00 0.  1.
<mgrwt>
<rscale>  0 0.30332887E+04</rscale>
<asrwt>0</asrwt>
<pdfrwt beam="1">  1        2 0.41509693E+00 0.30332887E+04</pdfrwt>
<pdfrwt beam="2">  1       -2 0.13115694E+00 0.30332887E+04</pdfrwt>
<totfact> 0.96477357E-01</totfact>
</mgrwt>
</event>
<event>
12    1  0.1980523E-007  0.1086734E+04  0.7818608E-02  0.9218219E-01
         -2   -1    0    0    0  501 -0.00000000000E+00  0.00000000000E+00  0.18775044905E+03  0.18775044905E+03  0.00000000000E+00 0.  1.
          2   -1    0    0  501    0  0.00000000000E+00 -0.00000000000E+00 -0.15725549440E+04  0.15725549440E+04  0.00000000000E+00 0. -1.
         23    2    1    2    0    0  0.44521203519E+02 -0.80439516090E+02 -0.41425736954E+03  0.43404035446E+03  0.91264493493E+02 0.  0.
        254    2    1    2    0    0 -0.44521203519E+02  0.80439516090E+02 -0.97054712538E+03  0.13262650386E+04  0.89920218896E+03 0.  0.
        -24    2    4    4    0    0 -0.67472083002E+02  0.47432736429E+02  0.15768215139E+03  0.19472956977E+03  0.79079693998E+02 0.  0.
         24    2    4    4    0    0  0.22950879483E+02  0.33006779662E+02 -0.11282292768E+04  0.11315354688E+04  0.76518140367E+02 0.  0.
         13    1    3    3    0    0  0.10110831184E+01  0.15446696177E+02 -0.16682153410E+02  0.22757788870E+02  0.00000000000E+00 0.  1.
        -13    1    3    3    0    0  0.43510120400E+02 -0.95886212267E+02 -0.39757521613E+03  0.41128256559E+03  0.00000000000E+00 0. -1.
          4    1    6    6  502    0  0.42196035406E+02  0.22150457609E+02 -0.37954965541E+03  0.38252985387E+03  0.00000000000E+00 0. -1.
          3    1    5    5  503    0 -0.13422809110E+02 -0.19325380619E+02  0.61118829833E+02  0.65491629241E+02  0.00000000000E+00 0. -1.
         -4    1    5    5    0  503 -0.54049273892E+02  0.66758117047E+02  0.96563321561E+02  0.12923794052E+03  0.00000000000E+00 0.  1.
         -3    1    6    6    0  502 -0.19245155923E+02  0.10856322053E+02 -0.74867962137E+03  0.74900561494E+03  0.00000000000E+00 0.  1.
<mgrwt>
<rscale>  0 0.10867344E+04</rscale>
<asrwt>0</asrwt>
<pdfrwt beam="1">  1        2 0.24193152E+00 0.10867344E+04</pdfrwt>
<pdfrwt beam="2">  1       -2 0.28884686E-01 0.10867344E+04</pdfrwt>
<totfact> 0.12626234E+02</totfact>
</mgrwt>
</event>
<event>
12    1  0.1980523E-007  0.1951702E+04  0.7818608E-02  0.8629541E-01
         -2   -1    0    0    0  501 -0.00000000000E+00  0.00000000000E+00  0.13558313381E+04  0.13558313381E+04  0.00000000000E+00 0.  1.
          2   -1    0    0  501    0  0.00000000000E+00 -0.00000000000E+00 -0.70236231189E+03  0.70236231189E+03  0.00000000000E+00 0. -1.
         23    2    1    2    0    0 -0.48402480601E+03 -0.14173586005E+03 -0.34817749541E+03  0.62025417831E+03  0.95491416053E+02 0.  0.
        254    2    1    2    0    0  0.48402480601E+03  0.14173586005E+03  0.10016465217E+04  0.14379394717E+04  0.90000283507E+03 0.  0.
        -24    2    4    4    0    0  0.18808717684E+02  0.25074336539E+03  0.90670735746E+03  0.94421041140E+03  0.78670615769E+02 0.  0.
         24    2    4    4    0    0  0.46521608833E+03 -0.10900750534E+03  0.94939164210E+02  0.49372906033E+03  0.80288822711E+02 0.  0.
         11    1    3    3    0    0 -0.41683704246E+03 -0.14372489161E+03 -0.32966231876E+03  0.55053356741E+03  0.00000000000E+00 0. -1.
        -11    1    3    3    0    0 -0.67187763552E+02  0.19890315633E+01 -0.18515176653E+02  0.69720610899E+02  0.00000000000E+00 0.  1.
          4    1    6    6  502    0  0.38711247315E+03 -0.81508589995E+02  0.47879395946E+02  0.39848733188E+03  0.00000000000E+00 0. -1.
          1    1    5    5  503    0 -0.92734360759E+01  0.17726349364E+03  0.72101297820E+03  0.74254162007E+03  0.00000000000E+00 0. -1.
         -2    1    5    5    0  503  0.28082153760E+02  0.73479871749E+02  0.18569437925E+03  0.20166879133E+03  0.00000000000E+00 0.  1.
         -3    1    6    6    0  502  0.78103615175E+02 -0.27498915347E+02  0.47059768264E+02  0.95241728448E+02  0.00000000000E+00 0.  1.
<mgrwt>
<rscale>  0 0.19517017E+04</rscale>
<asrwt>0</asrwt>
<pdfrwt beam="1">  1        2 0.10805574E+00 0.19517017E+04</pdfrwt>
<pdfrwt beam="2">  1       -2 0.20858944E+00 0.19517017E+04</pdfrwt>
<totfact> 0.44466727E+00</totfact>
</mgrwt>
</event>
<event>
12    1  0.1980523E-007  0.1765317E+04  0.7818608E-02  0.8724964E-01
          2   -1    0    0  501    0  0.00000000000E+00  0.00000000000E+00  0.10103127749E+04  0.10103127749E+04  0.00000000000E+00 0. -1.
         -2   -1    0    0    0  501 -0.00000000000E+00 -0.00000000000E+00 -0.77113383710E+03  0.77113383710E+03  0.00000000000E+00 0.  1.
         23    2    1    2    0    0  0.16227819110E+03  0.60405300670E+03 -0.69672803848E+02  0.63588144305E+03  0.90976171678E+02 0.  0.
        254    2    1    2    0    0 -0.16227819110E+03 -0.60405300670E+03  0.30885174163E+03  0.11455651689E+04  0.90868911721E+03 0.  0.
        -24    2    4    4    0    0 -0.32719154333E+03 -0.17237035902E+03  0.50947782847E+03  0.63476391159E+03  0.81189402402E+02 0.  0.
         24    2    4    4    0    0  0.16491335223E+03 -0.43168264768E+03 -0.20062608684E+03  0.51080125733E+03  0.84384688906E+02 0.  0.
         11    1    3    3    0    0  0.10097376453E+03  0.28113187584E+03 -0.71644192863E+02  0.30718678863E+03  0.00000000000E+00 0.  1.
        -11    1    3    3    0    0  0.61304426574E+02  0.32292113086E+03  0.19713890154E+01  0.32869465442E+03  0.00000000000E+00 0. -1.
          2    1    6    6  502    0 -0.90194101405E+01 -0.41940796207E+02 -0.20710226579E+02  0.47637103509E+02  0.00000000000E+00 0. -1.
          3    1    5    5  503    0 -0.13537965081E+03 -0.27948626280E+02  0.19818322517E+03  0.24163064025E+03  0.00000000000E+00 0. -1.
         -4    1    5    5    0  503 -0.19181189252E+03 -0.14442173274E+03  0.31129460329E+03  0.39313327135E+03  0.00000000000E+00 0.  1.
         -1    1    6    6    0  502  0.17393276237E+03 -0.38974185147E+03 -0.17991586026E+03  0.46316415382E+03  0.00000000000E+00 0.  1.
<mgrwt>
<rscale>  0 0.17653174E+04</rscale>
<asrwt>0</asrwt>
<pdfrwt beam="1">  1        2 0.15543273E+00 0.17653174E+04</pdfrwt>
<pdfrwt beam="2">  1       -2 0.11863597E+00 0.17653174E+04</pdfrwt>
<totfact> 0.12830516E+01</totfact>
</mgrwt>
</event>
<event>
12    1  0.1980523E-007  0.1587796E+04  0.7818608E-02  0.8828080E-01
         -2   -1    0    0    0  501 -0.00000000000E+00  0.00000000000E+00  0.10442725350E+04  0.10442725350E+04  0.00000000000E+00 0.  1.
          2   -1    0    0  501    0  0.00000000000E+00 -0.00000000000E+00 -0.60355352983E+03  0.60355352983E+03  0.00000000000E+00 0. -1.
         23    2    1    2    0    0  0.91348320954E+01  0.53408280158E+03  0.15468931018E+03  0.56358013236E+03  0.91465287441E+02 0.  0.
        254    2    1    2    0    0 -0.91348320954E+01 -0.53408280158E+03  0.28602969495E+03  0.10842459324E+04  0.89913757096E+03 0.  0.
        -24    2    4    4    0    0  0.19332039024E+03 -0.72185674157E+03  0.26044143009E+03  0.79539931486E+03  0.79877424475E+02 0.  0.
         24    2    4    4    0    0 -0.20245522233E+03  0.18777393999E+03  0.25588264865E+02  0.28884661758E+03  0.80811135365E+02 0.  0.
         11    1    3    3    0    0 -0.31170990853E+02  0.32360062088E+03  0.66459353982E+02  0.33182199782E+03  0.00000000000E+00 0. -1.
        -11    1    3    3    0    0  0.40305822948E+02  0.21048218070E+03  0.88229956194E+02  0.23175813454E+03  0.00000000000E+00 0.  1.
          4    1    6    6  502    0 -0.15952603319E+03  0.15440520290E+03 -0.12652984435E+02  0.22237270507E+03  0.00000000000E+00 0. -1.
          3    1    5    5  503    0  0.69618932515E+02 -0.26913017549E+03  0.13805443252E+03  0.31038181884E+03  0.00000000000E+00 0. -1.
         -4    1    5    5    0  503  0.12370145772E+03 -0.45272656608E+03  0.12238699756E+03  0.48501749602E+03  0.00000000000E+00 0.  1.
         -3    1    6    6    0  502 -0.42929189145E+02  0.33368737092E+02  0.38241249300E+02  0.66473912506E+02  0.00000000000E+00 0.  1.
<mgrwt>
<rscale>  0 0.15877964E+04</rscale>
<asrwt>0</asrwt>
<pdfrwt beam="1">  1        2 0.92854389E-01 0.15877964E+04</pdfrwt>
<pdfrwt beam="2">  1       -2 0.16065731E+00 0.15877964E+04</pdfrwt>
<totfact> 0.11763246E+01</totfact>
</mgrwt>
</event>
<event>
12    1  0.1980523E-007  0.1678826E+04  0.7818608E-02  0.8773534E-01
          1   -1    0    0  501    0  0.00000000000E+00  0.00000000000E+00  0.94616506026E+03  0.94616506026E+03  0.00000000000E+00 0. -1.
         -1   -1    0    0    0  501 -0.00000000000E+00 -0.00000000000E+00 -0.74470513889E+03  0.74470513889E+03  0.00000000000E+00 0.  1.
         23    2    1    2    0    0  0.27194259630E+03  0.29641825151E+03 -0.36802763430E+03  0.55257359105E+03  0.89870342183E+02 0.  0.
        254    2    1    2    0    0 -0.27194259630E+03 -0.29641825151E+03  0.56948755567E+03  0.11382966081E+04  0.89977026870E+03 0.  0.
        -24    2    4    4    0    0  0.15715339018E+03  0.22704354007E+02 -0.15414020247E+03  0.23484716411E+03  0.78621324955E+02 0.  0.
         24    2    4    4    0    0 -0.42909598648E+03 -0.31912260552E+03  0.72362775814E+03  0.90344944399E+03  0.81370526193E+02 0.  0.
         11    1    3    3    0    0  0.23387739199E+03  0.26481176257E+03 -0.35620730147E+03  0.50170463990E+03  0.00000000000E+00 0.  1.
        -11    1    3    3    0    0  0.38065204312E+02  0.31606488945E+02 -0.11820332831E+02  0.50868951149E+02  0.00000000000E+00 0. -1.
          2    1    6    6  502    0  0.94759514511E+00 -0.58011534480E+01  0.22679400172E+02  0.23428753916E+02  0.00000000000E+00 0. -1.
          3    1    5    5  503    0  0.11437007544E+02 -0.14419021218E+02  0.14591699500E+01  0.18461920035E+02  0.00000000000E+00 0. -1.
         -4    1    5    5    0  503  0.14571638263E+03  0.37123375224E+02 -0.15559937242E+03  0.21638524407E+03  0.00000000000E+00 0.  1.
         -1    1    6    6    0  502 -0.43004358162E+03 -0.31332145207E+03  0.70094835796E+03  0.88002069007E+03  0.00000000000E+00 0.  1.
<mgrwt>
<rscale>  0 0.16788258E+04</rscale>
<asrwt>0</asrwt>
<pdfrwt beam="1">  1        1 0.14556385E+00 0.16788258E+04</pdfrwt>
<pdfrwt beam="2">  1       -1 0.11457002E+00 0.16788258E+04</pdfrwt>
<totfact> 0.11023837E+01</totfact>
</mgrwt>
</event>
<event>
12    1  0.1980523E-007  0.2841812E+04  0.7818608E-02  0.8290404E-01
          1   -1    0    0  501    0  0.00000000000E+00  0.00000000000E+00  0.18644029599E+04  0.18644029599E+04  0.00000000000E+00 0.  1.
         -1   -1    0    0    0  501 -0.00000000000E+00 -0.00000000000E+00 -0.10829067584E+04  0.10829067584E+04  0.00000000000E+00 0. -1.
         23    2    1    2    0    0  0.78473306327E+03  0.85992552828E+03  0.89350473440E+03  0.14703536909E+04  0.91166721568E+02 0.  0.
        254    2    1    2    0    0 -0.78473306327E+03 -0.85992552828E+03 -0.11200853292E+03  0.14769560275E+04  0.90198409128E+03 0.  0.
        -24    2    4    4    0    0 -0.25723079554E+03  0.14166942489E+03  0.10683543833E+03  0.32134012335E+03  0.74884950895E+02 0.  0.
         24    2    4    4    0    0 -0.52750226773E+03 -0.10015949532E+04 -0.21884397125E+03  0.11556159041E+04  0.78130285216E+02 0.  0.
         13    1    3    3    0    0  0.16525883953E+03  0.21100665800E+03  0.24773003110E+03  0.36497186477E+03  0.00000000000E+00 0.  1.
        -13    1    3    3    0    0  0.61947422374E+03  0.64891887029E+03  0.64577470330E+03  0.11053818261E+04  0.00000000000E+00 0. -1.
          4    1    6    6  502    0 -0.42219521395E+03 -0.86204084676E+03 -0.18526028300E+03  0.97759121959E+03  0.00000000000E+00 0. -1.
          1    1    5    5  503    0 -0.17554748997E+03  0.76347102360E+02  0.35384825639E+02  0.19467379679E+03  0.00000000000E+00 0. -1.
         -2    1    5    5    0  503 -0.81683305573E+02  0.65322322530E+02  0.71450612693E+02  0.12666632656E+03  0.00000000000E+00 0.  1.
         -3    1    6    6    0  502 -0.10530705378E+03 -0.13955410641E+03 -0.33583688250E+02  0.17802468455E+03  0.00000000000E+00 0.  1.
<mgrwt>
<rscale>  0 0.28418125E+04</rscale>
<asrwt>0</asrwt>
<pdfrwt beam="1">  1        1 0.28683122E+00 0.28418125E+04</pdfrwt>
<pdfrwt beam="2">  1       -1 0.16660104E+00 0.28418125E+04</pdfrwt>
<totfact> 0.82845396E-01</totfact>
</mgrwt>
</event>
<event>
12    1  0.1980523E-007  0.2476539E+04  0.7818608E-02  0.8411392E-01
          1   -1    0    0  501    0  0.00000000000E+00  0.00000000000E+00  0.15187438878E+04  0.15187438878E+04  0.00000000000E+00 0. -1.
         -1   -1    0    0    0  501 -0.00000000000E+00 -0.00000000000E+00 -0.10095918469E+04  0.10095918469E+04  0.00000000000E+00 0.  1.
         23    2    1    2    0    0 -0.85136340682E+03  0.63346051422E+03  0.37918494138E+03  0.11307227968E+04  0.93064224862E+02 0.  0.
        254    2    1    2    0    0  0.85136340682E+03 -0.63346051422E+03  0.12996709950E+03  0.13976129379E+04  0.90018809346E+03 0.  0.
        -24    2    4    4    0    0  0.98824112879E+03 -0.56567854618E+03  0.27306369726E+03  0.11736583498E+04  0.79356114745E+02 0.  0.
         24    2    4    4    0    0 -0.13687772197E+03 -0.67781968040E+02 -0.14309659777E+03  0.22395458812E+03  0.79681335850E+02 0.  0.
         13    1    3    3    0    0 -0.29101947836E+03  0.27185489527E+03  0.13379380393E+03  0.42011689187E+03  0.00000000000E+00 0.  1.
        -13    1    3    3    0    0 -0.56034392846E+03  0.36160561895E+03  0.24539113745E+03  0.71060590496E+03  0.00000000000E+00 0. -1.
          2    1    6    6  502    0 -0.23213243144E+02 -0.26170280251E+02  0.19514988433E+01  0.35036360733E+02  0.00000000000E+00 0. -1.
          1    1    5    5  503    0  0.10857816133E+03 -0.42744089661E+02  0.45875048160E+02  0.12538259195E+03  0.00000000000E+00 0. -1.
         -2    1    5    5    0  503  0.87966296746E+03 -0.52293445652E+03  0.22718864910E+03  0.10482757578E+04  0.00000000000E+00 0.  1.
         -1    1    6    6    0  502 -0.11366447883E+03 -0.41611687789E+02 -0.14504809661E+03  0.18891822738E+03  0.00000000000E+00 0.  1.
<mgrwt>
<rscale>  0 0.24765391E+04</rscale>
<asrwt>0</asrwt>
<pdfrwt beam="1">  1        1 0.23365290E+00 0.24765391E+04</pdfrwt>
<pdfrwt beam="2">  1       -1 0.15532182E+00 0.24765391E+04</pdfrwt>
<totfact> 0.17934580E+00</totfact>
</mgrwt>
</event>
<event>
12    1  0.1980523E-007  0.1978245E+04  0.7818608E-02  0.8616860E-01
         -1   -1    0    0    0  501 -0.00000000000E+00  0.00000000000E+00  0.54343441398E+03  0.54343441398E+03  0.00000000000E+00 0.  1.
          1   -1    0    0  501    0  0.00000000000E+00 -0.00000000000E+00 -0.18003344651E+04  0.18003344651E+04  0.00000000000E+00 0. -1.
         23    2    1    2    0    0 -0.75161647952E+03  0.15303590877E+03 -0.67725938946E+03  0.10274327734E+04  0.92684958922E+02 0.  0.
        254    2    1    2    0    0  0.75161647952E+03 -0.15303590877E+03 -0.57964066169E+03  0.13163361057E+04  0.89911630217E+03 0.  0.
        -24    2    4    4    0    0  0.86243155308E+03 -0.40497663851E+02 -0.18861728834E+03  0.88706123203E+03  0.76634870503E+02 0.  0.
         24    2    4    4    0    0 -0.11081507356E+03 -0.11253824492E+03 -0.39102337335E+03  0.42927487368E+03  0.80204747777E+02 0.  0.
         13    1    3    3    0    0 -0.75182980705E+03  0.14639072233E+03 -0.67209115283E+03  0.10190116879E+04  0.00000000000E+00 0. -1.
        -13    1    3    3    0    0  0.21332753339E+00  0.66451864334E+01 -0.51682366284E+01  0.84210855131E+01  0.00000000000E+00 0.  1.
          2    1    6    6  502    0 -0.73239905611E+02 -0.21670651512E+02 -0.13646865259E+03  0.15638859949E+03  0.00000000000E+00 0. -1.
          1    1    5    5  503    0  0.44596231653E+03 -0.41896351331E+02 -0.13053662753E+03  0.46655921719E+03  0.00000000000E+00 0. -1.
         -2    1    5    5    0  503  0.41646923655E+03  0.13986874801E+01 -0.58080660809E+02  0.42050201484E+03  0.00000000000E+00 0.  1.
         -1    1    6    6    0  502 -0.37575167952E+02 -0.90867593405E+02 -0.25455472076E+03  0.27288627418E+03  0.00000000000E+00 0.  1.
<mgrwt>
<rscale>  0 0.19782454E+04</rscale>
<asrwt>0</asrwt>
<pdfrwt beam="1">  1        1 0.27697453E+00 0.19782454E+04</pdfrwt>
<pdfrwt beam="2">  1       -1 0.83605296E-01 0.19782454E+04</pdfrwt>
<totfact> 0.53696186E+00</totfact>
</mgrwt>
</event>
<event>
12    1  0.1980523E-007  0.1964102E+04  0.7818608E-02  0.8623591E-01
          2   -1    0    0  501    0  0.00000000000E+00  0.00000000000E+00  0.33937365183E+04  0.33937365183E+04  0.00000000000E+00 0. -1.
         -2   -1    0    0    0  501 -0.00000000000E+00 -0.00000000000E+00 -0.28417753882E+03  0.28417753882E+03  0.00000000000E+00 0.  1.
         23    2    1    2    0    0 -0.25001256667E+03  0.73120763640E+03  0.12503528720E+04  0.14725941210E+04  0.89332243547E+02 0.  0.
        254    2    1    2    0    0  0.25001256667E+03 -0.73120763640E+03  0.18592061075E+04  0.22053199361E+04  0.89978763021E+03 0.  0.
        -24    2    4    4    0    0  0.68481826666E+02 -0.90931651659E+03  0.13675770890E+04  0.16456759311E+04  0.80223985472E+02 0.  0.
         24    2    4    4    0    0  0.18153074001E+03  0.17810888019E+03  0.49162901850E+03  0.55964400505E+03  0.82620444118E+02 0.  0.
         13    1    3    3    0    0 -0.99590769324E+02  0.33857672042E+03  0.49212053355E+03  0.60558660527E+03  0.00000000000E+00 0.  1.
        -13    1    3    3    0    0 -0.15042179735E+03  0.39263091598E+03  0.75823233843E+03  0.86700751573E+03  0.00000000000E+00 0. -1.
          4    1    6    6  502    0  0.14757472883E+03  0.17388549042E+03  0.38308938185E+03  0.44583846723E+03  0.00000000000E+00 0. -1.
          3    1    5    5  503    0  0.41037701344E+02 -0.83051848573E+03  0.12570484709E+04  0.15071880793E+04  0.00000000000E+00 0. -1.
         -4    1    5    5    0  503  0.27444125322E+02 -0.78798030853E+02  0.11052861809E+03  0.13848785181E+03  0.00000000000E+00 0.  1.
         -3    1    6    6    0  502  0.33956011173E+02  0.42233897677E+01  0.10853963664E+03  0.11380553782E+03  0.00000000000E+00 0.  1.
<mgrwt>
<rscale>  0 0.19641015E+04</rscale>
<asrwt>0</asrwt>
<pdfrwt beam="1">  1        2 0.52211328E+00 0.19641015E+04</pdfrwt>
<pdfrwt beam="2">  1       -2 0.43719624E-01 0.19641015E+04</pdfrwt>
<totfact> 0.44740101E+00</totfact>
</mgrwt>
</event>
<event>
12    1  0.1980523E-007  0.1841663E+04  0.7818608E-02  0.8684452E-01
         -2   -1    0    0    0  501 -0.00000000000E+00  0.00000000000E+00  0.67914682956E+03  0.67914682956E+03  0.00000000000E+00 0.  1.
          2   -1    0    0  501    0  0.00000000000E+00 -0.00000000000E+00 -0.12485228987E+04  0.12485228987E+04  0.00000000000E+00 0. -1.
         23    2    1    2    0    0  0.51771831658E+03 -0.37573398687E+03 -0.52629382090E+03  0.83292659694E+03  0.87024397503E+02 0.  0.
        254    2    1    2    0    0 -0.51771831658E+03  0.37573398687E+03 -0.43082248230E+02  0.10947431313E+04  0.88735458482E+03 0.  0.
        -24    2    4    4    0    0 -0.86689695663E+02  0.58680777624E+03  0.46966866022E+02  0.60031795396E+03  0.79481379916E+02 0.  0.
         24    2    4    4    0    0 -0.43102862092E+03 -0.21107378938E+03 -0.90049114252E+02  0.49442517734E+03  0.77521586640E+02 0.  0.
         13    1    3    3    0    0  0.19022258414E+03 -0.18824770849E+03 -0.20079076487E+03  0.33457250713E+03  0.00000000000E+00 0. -1.
        -13    1    3    3    0    0  0.32749573244E+03 -0.18748627838E+03 -0.32550305603E+03  0.49835408981E+03  0.00000000000E+00 0.  1.
          4    1    6    6  502    0 -0.15100529368E+03 -0.10327400908E+03 -0.61545078368E+02  0.19301791715E+03  0.00000000000E+00 0. -1.
          1    1    5    5  503    0 -0.39328604232E+02  0.20343302737E+03  0.53418671744E+02  0.21397497571E+03  0.00000000000E+00 0. -1.
         -2    1    5    5    0  503 -0.47361091431E+02  0.38337474887E+03 -0.64518057214E+01  0.38634297826E+03  0.00000000000E+00 0.  1.
         -3    1    6    6    0  502 -0.28002332724E+03 -0.10779978029E+03 -0.28504035884E+02  0.30140726019E+03  0.00000000000E+00 0.  1.
<mgrwt>
<rscale>  0 0.18416627E+04</rscale>
<asrwt>0</asrwt>
<pdfrwt beam="1">  1        2 0.19208045E+00 0.18416627E+04</pdfrwt>
<pdfrwt beam="2">  1       -2 0.10448413E+00 0.18416627E+04</pdfrwt>
<totfact> 0.12406542E+01</totfact>
</mgrwt>
</event>
<event>
12    1  0.1980523E-007  0.1303216E+04  0.7818608E-02  0.9027019E-01
          2   -1    0    0  501    0  0.00000000000E+00  0.00000000000E+00  0.94394050233E+03  0.94394050233E+03  0.00000000000E+00 0. -1.
         -2   -1    0    0    0  501 -0.00000000000E+00 -0.00000000000E+00 -0.44980888090E+03  0.44980888090E+03  0.00000000000E+00 0.  1.
         23    2    1    2    0    0  0.13318481800E+03  0.22556855298E+03  0.34775465055E+03  0.44490035729E+03  0.91562345440E+02 0.  0.
        254    2    1    2    0    0 -0.13318481800E+03 -0.22556855298E+03  0.14637697087E+03  0.94884902594E+03  0.90014937015E+03 0.  0.
        -24    2    4    4    0    0  0.37540134291E+03 -0.15725154668E+03  0.23839745522E+02  0.41516997915E+03  0.78380870963E+02 0.  0.
         24    2    4    4    0    0 -0.50858616090E+03 -0.68317006302E+02  0.12253722535E+03  0.53367904678E+03  0.80441637028E+02 0.  0.
         11    1    3    3    0    0  0.57138617860E+02  0.17638185784E+03  0.21111666578E+03  0.28097264635E+03  0.00000000000E+00 0.  1.
        -11    1    3    3    0    0  0.76046200136E+02  0.49186695142E+02  0.13663798476E+03  0.16392771094E+03  0.00000000000E+00 0. -1.
          2    1    6    6  502    0 -0.36905419480E+03 -0.65056775616E+02  0.55456731003E+02  0.37882559545E+03  0.00000000000E+00 0. -1.
          1    1    5    5  503    0  0.31901831283E+03 -0.14986442721E+03  0.43192216811E+02  0.35510223607E+03  0.00000000000E+00 0. -1.
         -2    1    5    5    0  503  0.56383030073E+02 -0.73871194658E+01 -0.19352471288E+02  0.60067743084E+02  0.00000000000E+00 0.  1.
         -1    1    6    6    0  502 -0.13953196610E+03 -0.32602306867E+01  0.67080494348E+02  0.15485345133E+03  0.00000000000E+00 0.  1.
<mgrwt>
<rscale>  0 0.13032157E+04</rscale>
<asrwt>0</asrwt>
<pdfrwt beam="1">  1        2 0.14522161E+00 0.13032157E+04</pdfrwt>
<pdfrwt beam="2">  1       -2 0.69201367E-01 0.13032157E+04</pdfrwt>
<totfact> 0.51197233E+01</totfact>
</mgrwt>
</event>
<event>
12    1  0.1980523E-007  0.1754375E+04  0.7818608E-02  0.8730946E-01
          1   -1    0    0  501    0  0.00000000000E+00  0.00000000000E+00  0.19690574818E+04  0.19690574818E+04  0.00000000000E+00 0.  1.
         -1   -1    0    0    0  501 -0.00000000000E+00 -0.00000000000E+00 -0.39077487232E+03  0.39077487232E+03  0.00000000000E+00 0. -1.
         23    2    1    2    0    0 -0.28093888064E+03  0.14753680854E+03  0.13368480899E+04  0.13770378314E+04  0.91523816783E+02 0.  0.
        254    2    1    2    0    0  0.28093888064E+03 -0.14753680854E+03  0.24143451958E+03  0.98279452274E+03  0.89827650652E+03 0.  0.
        -24    2    4    4    0    0 -0.27577249038E+03 -0.18234780102E+03  0.24484478789E+03  0.41926927348E+03  0.80849035471E+02 0.  0.
         24    2    4    4    0    0  0.55671137102E+03  0.34810992489E+02 -0.34102683135E+01  0.56352524927E+03  0.80060732018E+02 0.  0.
         13    1    3    3    0    0 -0.21470726868E+03  0.15177440241E+03  0.10230409262E+04  0.10562894571E+04  0.00000000000E+00 0. -1.
        -13    1    3    3    0    0 -0.66231611955E+02 -0.42375938778E+01  0.31380716373E+03  0.32074837432E+03  0.00000000000E+00 0.  1.
          2    1    6    6  502    0  0.71538655680E+02 -0.17509876675E+02  0.15126244853E+02  0.75187620797E+02  0.00000000000E+00 0. -1.
          3    1    5    5  503    0 -0.11812594182E+03 -0.42388625289E+02  0.12326951086E+03  0.17591448489E+03  0.00000000000E+00 0. -1.
         -4    1    5    5    0  503 -0.15764654856E+03 -0.13995917574E+03  0.12157527703E+03  0.24335478859E+03  0.00000000000E+00 0.  1.
         -1    1    6    6    0  502  0.48517271534E+03  0.52320869165E+02 -0.18536513167E+02  0.48833762847E+03  0.00000000000E+00 0.  1.
<mgrwt>
<rscale>  0 0.17543753E+04</rscale>
<asrwt>0</asrwt>
<pdfrwt beam="1">  1        1 0.30293191E+00 0.17543753E+04</pdfrwt>
<pdfrwt beam="2">  1       -1 0.60119212E-01 0.17543753E+04</pdfrwt>
<totfact> 0.83130346E+00</totfact>
</mgrwt>
</event>
<event>
12    1  0.1980523E-007  0.1560650E+04  0.7818608E-02  0.8845093E-01
          1   -1    0    0  501    0  0.00000000000E+00  0.00000000000E+00  0.85028421816E+03  0.85028421816E+03  0.00000000000E+00 0. -1.
         -1   -1    0    0    0  501 -0.00000000000E+00 -0.00000000000E+00 -0.71612218141E+03  0.71612218141E+03  0.00000000000E+00 0.  1.
         23    2    1    2    0    0  0.44991759098E+02  0.14323499305E+03 -0.45098325942E+03  0.48384637827E+03  0.90448304920E+02 0.  0.
        254    2    1    2    0    0 -0.44991759098E+02 -0.14323499305E+03  0.58514529617E+03  0.10825600213E+04  0.89833215487E+03 0.  0.
        -24    2    4    4    0    0 -0.36682169965E+03  0.15513576013E+03  0.47350904347E+03  0.62274494711E+03  0.70535037404E+02 0.  0.
         24    2    4    4    0    0  0.32182994055E+03 -0.29837075318E+03  0.11163625270E+03  0.45981507419E+03  0.79797446982E+02 0.  0.
         11    1    3    3    0    0  0.43949310635E+02  0.50410283250E+02 -0.29363984538E+03  0.30115958785E+03  0.00000000000E+00 0.  1.
        -11    1    3    3    0    0  0.10424484626E+01  0.92824709804E+02 -0.15734341404E+03  0.18268679041E+03  0.00000000000E+00 0. -1.
          2    1    6    6  502    0  0.18971237604E+03 -0.21749729629E+03  0.95837984598E+02  0.30410652543E+03  0.00000000000E+00 0. -1.
          1    1    5    5  503    0 -0.30627329396E+03  0.15470688648E+03  0.41580743718E+03  0.53910423494E+03  0.00000000000E+00 0. -1.
         -2    1    5    5    0  503 -0.60548405694E+02  0.42887365365E+00  0.57701606291E+02  0.83640712175E+02  0.00000000000E+00 0.  1.
         -1    1    6    6    0  502  0.13211756451E+03 -0.80873456890E+02  0.15798268107E+02  0.15570854876E+03  0.00000000000E+00 0.  1.
<mgrwt>
<rscale>  0 0.15606504E+04</rscale>
<asrwt>0</asrwt>
<pdfrwt beam="1">  1        1 0.13081296E+00 0.15606504E+04</pdfrwt>
<pdfrwt beam="2">  1       -1 0.11017264E+00 0.15606504E+04</pdfrwt>
<totfact> 0.14655240E+01</totfact>
</mgrwt>
</event>
<event>
12    1  0.1980523E-007  0.4522711E+04  0.7818608E-02  0.7906673E-01
          2   -1    0    0  501    0  0.00000000000E+00  0.00000000000E+00  0.23610341739E+04  0.23610341739E+04  0.00000000000E+00 0. -1.
         -2   -1    0    0    0  501 -0.00000000000E+00 -0.00000000000E+00 -0.21658849121E+04  0.21658849121E+04  0.00000000000E+00 0.  1.
         23    2    1    2    0    0 -0.20178410178E+04  0.38223970201E+03 -0.60966793222E+03  0.21442670900E+04  0.91634071393E+02 0.  0.
        254    2    1    2    0    0  0.20178410178E+04 -0.38223970201E+03  0.80481719398E+03  0.23826519959E+04  0.90083863990E+03 0.  0.
        -24    2    4    4    0    0  0.91972394767E+03 -0.60689179229E+03  0.53225965254E+03  0.12263506246E+04  0.80160647123E+02 0.  0.
         24    2    4    4    0    0  0.10981170701E+04  0.22465209028E+03  0.27255754144E+03  0.11563013713E+04  0.80097356604E+02 0.  0.
         11    1    3    3    0    0 -0.92565915233E+03  0.13267799203E+03 -0.29616405602E+03  0.98089829439E+03  0.00000000000E+00 0.  1.
        -11    1    3    3    0    0 -0.10921818654E+04  0.24956170998E+03 -0.31350387620E+03  0.11633687957E+04  0.00000000000E+00 0. -1.
          2    1    6    6  502    0  0.10067591023E+04  0.20138667012E+03  0.27160976446E+03  0.10620227611E+04  0.00000000000E+00 0. -1.
          3    1    5    5  503    0  0.71303566621E+03 -0.42957345744E+03  0.39558366435E+03  0.92165050433E+03  0.00000000000E+00 0. -1.
         -4    1    5    5    0  503  0.20668828146E+03 -0.17731833484E+03  0.13667598819E+03  0.30470012030E+03  0.00000000000E+00 0.  1.
         -1    1    6    6    0  502  0.91357967834E+02  0.23265420161E+02  0.94777698021E+00  0.94278610210E+02  0.00000000000E+00 0.  1.
<mgrwt>
<rscale>  0 0.45227108E+04</rscale>
<asrwt>0</asrwt>
<pdfrwt beam="1">  1        2 0.36323603E+00 0.45227108E+04</pdfrwt>
<pdfrwt beam="2">  1       -2 0.33321306E+00 0.45227108E+04</pdfrwt>
<totfact> 0.62747719E-02</totfact>
</mgrwt>
</event>
<event>
12    1  0.1980523E-007  0.1974627E+04  0.7818608E-02  0.8618576E-01
          2   -1    0    0  501    0  0.00000000000E+00  0.00000000000E+00  0.11380487627E+04  0.11380487627E+04  0.00000000000E+00 0. -1.
         -2   -1    0    0    0  501 -0.00000000000E+00 -0.00000000000E+00 -0.85654296569E+03  0.85654296569E+03  0.00000000000E+00 0.  1.
         23    2    1    2    0    0 -0.35208177619E+03 -0.24265661955E+03 -0.55296046739E+03  0.70463986417E+03  0.88928328140E+02 0.  0.
        254    2    1    2    0    0  0.35208177619E+03  0.24265661955E+03  0.83446626436E+03  0.12899518642E+04  0.88588828493E+03 0.  0.
        -24    2    4    4    0    0  0.49797291339E+03  0.17526920947E+03  0.94067307614E+03  0.10817506268E+04  0.81377294749E+02 0.  0.
         24    2    4    4    0    0 -0.14589113720E+03  0.67387410074E+02 -0.10620681178E+03  0.20820123739E+03  0.79010008457E+02 0.  0.
         11    1    3    3    0    0 -0.20391028179E+03 -0.16084220694E+03 -0.39749911275E+03  0.47482119075E+03  0.00000000000E+00 0.  1.
        -11    1    3    3    0    0 -0.14817149441E+03 -0.81814412611E+02 -0.15546135464E+03  0.22981867342E+03  0.00000000000E+00 0. -1.
          4    1    6    6  502    0 -0.24532477460E+02  0.39236524654E+02 -0.29100908666E+01  0.46366107731E+02  0.00000000000E+00 0. -1.
          3    1    5    5  503    0  0.40622382104E+02  0.22429111356E+02  0.45661605747E+02  0.65101652847E+02  0.00000000000E+00 0. -1.
         -2    1    5    5    0  503  0.45735053128E+03  0.15284009812E+03  0.89501147039E+03  0.10166489739E+04  0.00000000000E+00 0.  1.
         -3    1    6    6    0  502 -0.12135865974E+03  0.28150885420E+02 -0.10329672091E+03  0.16183512966E+03  0.00000000000E+00 0.  1.
<mgrwt>
<rscale>  0 0.19746267E+04</rscale>
<asrwt>0</asrwt>
<pdfrwt beam="1">  1        2 0.17508443E+00 0.19746267E+04</pdfrwt>
<pdfrwt beam="2">  1       -2 0.13177584E+00 0.19746267E+04</pdfrwt>
<totfact> 0.80655304E+00</totfact>
</mgrwt>
</event>
<event>
12    1  0.1980523E-007  0.2399925E+04  0.7818608E-02  0.8439532E-01
          2   -1    0    0  501    0  0.00000000000E+00  0.00000000000E+00  0.23439162964E+04  0.23439162964E+04  0.00000000000E+00 0.  1.
         -2   -1    0    0    0  501 -0.00000000000E+00 -0.00000000000E+00 -0.61431795129E+03  0.61431795129E+03  0.00000000000E+00 0. -1.
         23    2    1    2    0    0  0.74097918602E+03 -0.61951203876E+03  0.32447050363E+03  0.10230677739E+04  0.92418840587E+02 0.  0.
        254    2    1    2    0    0 -0.74097918602E+03  0.61951203876E+03  0.14051278415E+04  0.19351664738E+04  0.91522658940E+03 0.  0.
        -24    2    4    4    0    0 -0.65835737264E+03  0.81847802328E+03  0.13228262546E+04  0.16910390198E+04  0.80018509301E+02 0.  0.
         24    2    4    4    0    0 -0.82621813374E+02 -0.19896598453E+03  0.82301586938E+02  0.24412745402E+03  0.80067693532E+02 0.  0.
         11    1    3    3    0    0  0.29830162052E+03 -0.26480834792E+03  0.18053950258E+03  0.43783767532E+03  0.00000000000E+00 0.  1.
        -11    1    3    3    0    0  0.44267756549E+03 -0.35470369084E+03  0.14393100105E+03  0.58523009863E+03  0.00000000000E+00 0. -1.
          4    1    6    6  502    0 -0.91148355627E+02 -0.19912759381E+03  0.85392103412E+02  0.23505665844E+03  0.00000000000E+00 0. -1.
          1    1    5    5  503    0 -0.61706255097E+03  0.76817419596E+03  0.12687674580E+04  0.16064335186E+04  0.00000000000E+00 0. -1.
         -2    1    5    5    0  503 -0.41294821675E+02  0.50303827318E+02  0.54058796532E+02  0.84605501136E+02  0.00000000000E+00 0.  1.
         -3    1    6    6    0  502  0.85265422533E+01  0.16160928292E+00 -0.30905164747E+01  0.90707955791E+01  0.00000000000E+00 0.  1.
<mgrwt>
<rscale>  0 0.23999249E+04</rscale>
<asrwt>0</asrwt>
<pdfrwt beam="1">  1        2 0.36060250E+00 0.23999249E+04</pdfrwt>
<pdfrwt beam="2">  1       -2 0.94510455E-01 0.23999249E+04</pdfrwt>
<totfact> 0.36302270E+00</totfact>
</mgrwt>
</event>
<event>
12    1  0.1980523E-007  0.1268028E+04  0.7818608E-02  0.9055311E-01
         -2   -1    0    0    0  501 -0.00000000000E+00  0.00000000000E+00  0.90850130755E+03  0.90850130755E+03  0.00000000000E+00 0.  1.
          2   -1    0    0  501    0  0.00000000000E+00 -0.00000000000E+00 -0.44245786914E+03  0.44245786914E+03  0.00000000000E+00 0. -1.
         23    2    1    2    0    0 -0.46344722310E+00 -0.42355410053E+01 -0.20561396717E+03  0.22540023936E+03  0.92249714444E+02 0.  0.
        254    2    1    2    0    0  0.46344722310E+00  0.42355410053E+01  0.67165740557E+03  0.11255589373E+04  0.90318386631E+03 0.  0.
        -24    2    4    4    0    0 -0.42762589288E+03  0.40542538005E+02  0.47870515213E+03  0.64836452585E+03  0.81916628704E+02 0.  0.
         24    2    4    4    0    0  0.42808934010E+03 -0.36306997000E+02  0.19295225344E+03  0.47719441148E+03  0.76845644627E+02 0.  0.
         11    1    3    3    0    0 -0.79140212652E+01  0.15786881566E+02  0.99708760158E+00  0.17687609953E+02  0.00000000000E+00 0.  1.
        -11    1    3    3    0    0  0.74505740421E+01 -0.20022422571E+02 -0.20661105477E+03  0.20771262940E+03  0.00000000000E+00 0. -1.
          4    1    6    6  502    0  0.17661179682E+03 -0.52509724885E+02  0.74495971077E+02  0.19874266701E+03  0.00000000000E+00 0. -1.
          3    1    5    5  503    0 -0.27130790791E+03  0.43505948322E+02  0.35547704434E+03  0.44929353154E+03  0.00000000000E+00 0. -1.
         -4    1    5    5    0  503 -0.15631798497E+03 -0.29634103170E+01  0.12322810779E+03  0.19907099431E+03  0.00000000000E+00 0.  1.
         -3    1    6    6    0  502  0.25147754328E+03  0.16202727885E+02  0.11845628236E+03  0.27845174447E+03  0.00000000000E+00 0.  1.
<mgrwt>
<rscale>  0 0.12680277E+04</rscale>
<asrwt>0</asrwt>
<pdfrwt beam="1">  1        2 0.68070442E-01 0.12680277E+04</pdfrwt>
<pdfrwt beam="2">  1       -2 0.13976943E+00 0.12680277E+04</pdfrwt>
<totfact> 0.25103261E+01</totfact>
</mgrwt>
</event>
<event>
12    1  0.1980523E-007  0.2089707E+04  0.7818608E-02  0.8565791E-01
         -1   -1    0    0    0  501 -0.00000000000E+00  0.00000000000E+00  0.39011371356E+04  0.39011371356E+04  0.00000000000E+00 0.  1.
          1   -1    0    0  501    0  0.00000000000E+00 -0.00000000000E+00 -0.27984642182E+03  0.27984642182E+03  0.00000000000E+00 0. -1.
         23    2    1    2    0    0 -0.48442817673E+03  0.66456575694E+03  0.18966701296E+04  0.20691912803E+04  0.88750607866E+02 0.  0.
        254    2    1    2    0    0  0.48442817673E+03 -0.66456575694E+03  0.17246205842E+04  0.21117922771E+04  0.89946214958E+03 0.  0.
        -24    2    4    4    0    0  0.18962602524E+03  0.49111753971E+02 -0.62082496093E+01  0.21475222837E+03  0.87806511166E+02 0.  0.
         24    2    4    4    0    0  0.29480215149E+03 -0.71367751091E+03  0.17308288338E+04  0.18970400488E+04  0.82149841531E+02 0.  0.
         11    1    3    3    0    0 -0.35855968508E+03  0.47273120888E+03  0.14589112560E+04  0.15749482203E+04  0.00000000000E+00 0. -1.
        -11    1    3    3    0    0 -0.12586849164E+03  0.19183454806E+03  0.43775887360E+03  0.49424306007E+03  0.00000000000E+00 0.  1.
          2    1    6    6  502    0  0.28198696542E+03 -0.62026518307E+03  0.15485390128E+04  0.16918092742E+04  0.00000000000E+00 0. -1.
          3    1    5    5  503    0  0.14631663106E+03  0.29361852814E+02 -0.42189938479E+02  0.15508277092E+03  0.00000000000E+00 0. -1.
         -4    1    5    5    0  503  0.43309394175E+02  0.19749901157E+02  0.35981688869E+02  0.59669457458E+02  0.00000000000E+00 0.  1.
         -1    1    6    6    0  502  0.12815186069E+02 -0.93412327839E+02  0.18228982099E+03  0.20523077456E+03  0.00000000000E+00 0.  1.
<mgrwt>
<rscale>  0 0.20897074E+04</rscale>
<asrwt>0</asrwt>
<pdfrwt beam="1">  1        1 0.43053298E-01 0.20897074E+04</pdfrwt>
<pdfrwt beam="2">  1       -1 0.60017491E+00 0.20897074E+04</pdfrwt>
<totfact> 0.38062537E-02</totfact>
</mgrwt>
</event>
<event>
12    1  0.1980523E-007  0.1975050E+04  0.7818608E-02  0.8618375E-01
          2   -1    0    0  501    0  0.00000000000E+00  0.00000000000E+00  0.22176784510E+04  0.22176784510E+04  0.00000000000E+00 0. -1.
         -2   -1    0    0    0  501 -0.00000000000E+00 -0.00000000000E+00 -0.43974173699E+03  0.43974173699E+03  0.00000000000E+00 0.  1.
         23    2    1    2    0    0 -0.49081266139E+03  0.60433397241E+03  0.67130641426E+03  0.10320936845E+04  0.91915465877E+02 0.  0.
        254    2    1    2    0    0  0.49081266139E+03 -0.60433397241E+03  0.11066302997E+04  0.16253265035E+04  0.90052151776E+03 0.  0.
        -24    2    4    4    0    0  0.64275807987E+02 -0.56174309198E+03  0.10368780134E+04  0.11837071816E+04  0.79749583204E+02 0.  0.
         24    2    4    4    0    0  0.42653685341E+03 -0.42590880430E+02  0.69752286287E+02  0.44161932196E+03  0.80091033662E+02 0.  0.
         11    1    3    3    0    0 -0.14192907654E+03  0.14889804585E+03  0.13009323391E+03  0.24339009909E+03  0.00000000000E+00 0.  1.
        -11    1    3    3    0    0 -0.34888358486E+03  0.45543592657E+03  0.54121318035E+03  0.78870358537E+03  0.00000000000E+00 0. -1.
          2    1    6    6  502    0  0.33261150648E+03 -0.21360925940E+02  0.21703640328E+02  0.33400262186E+03  0.00000000000E+00 0. -1.
          3    1    5    5  503    0  0.54353998453E+02 -0.49300675977E+03  0.84715769772E+03  0.98167519431E+03  0.00000000000E+00 0. -1.
         -4    1    5    5    0  503  0.99218095340E+01 -0.68736332217E+02  0.18972031573E+03  0.20203198724E+03  0.00000000000E+00 0.  1.
         -1    1    6    6    0  502  0.93925346923E+02 -0.21229954490E+02  0.48048645959E+02  0.10761670010E+03  0.00000000000E+00 0.  1.
<mgrwt>
<rscale>  0 0.19750502E+04</rscale>
<asrwt>0</asrwt>
<pdfrwt beam="1">  1        2 0.34118129E+00 0.19750502E+04</pdfrwt>
<pdfrwt beam="2">  1       -2 0.67652576E-01 0.19750502E+04</pdfrwt>
<totfact> 0.94079919E+00</totfact>
</mgrwt>
</event>
<event>
12    1  0.1980523E-007  0.2545435E+04  0.7818608E-02  0.8386976E-01
          1   -1    0    0  501    0  0.00000000000E+00  0.00000000000E+00  0.14914211294E+04  0.14914211294E+04  0.00000000000E+00 0. -1.
         -1   -1    0    0    0  501 -0.00000000000E+00 -0.00000000000E+00 -0.10860847391E+04  0.10860847391E+04  0.00000000000E+00 0.  1.
         23    2    1    2    0    0  0.26362305716E+03 -0.10629051580E+04  0.36979448881E+03  0.11597582658E+04  0.95009366746E+02 0.  0.
        254    2    1    2    0    0 -0.26362305716E+03  0.10629051580E+04  0.35541901487E+02  0.14177476027E+04  0.89971136875E+03 0.  0.
        -24    2    4    4    0    0  0.10347413632E+03  0.63416867550E+03  0.37992674203E+03  0.75067695783E+03  0.79339522563E+02 0.  0.
         24    2    4    4    0    0 -0.36709719348E+03  0.42873648254E+03 -0.34438484054E+03  0.66707064491E+03  0.88357263362E+02 0.  0.
         13    1    3    3    0    0  0.48693815624E+02 -0.11012205609E+03  0.63549911158E+02  0.13614898503E+03  0.00000000000E+00 0. -1.
        -13    1    3    3    0    0  0.21492924154E+03 -0.95278310195E+03  0.30624457765E+03  0.10236092807E+04  0.00000000000E+00 0.  1.
          2    1    6    6  502    0 -0.29100535295E+03  0.30392421567E+03 -0.21833492664E+03  0.47405082481E+03  0.00000000000E+00 0. -1.
          3    1    5    5  503    0  0.21629263770E+02  0.76056785391E+02  0.20052950308E+02  0.81575611989E+02  0.00000000000E+00 0. -1.
         -4    1    5    5    0  503  0.81844872547E+02  0.55811189010E+03  0.35987379172E+03  0.66910134584E+03  0.00000000000E+00 0.  1.
         -3    1    6    6    0  502 -0.76091840528E+02  0.12481226687E+03 -0.12604991390E+03  0.19301982010E+03  0.00000000000E+00 0.  1.
<mgrwt>
<rscale>  0 0.25454349E+04</rscale>
<asrwt>0</asrwt>
<pdfrwt beam="1">  1        1 0.22944940E+00 0.25454349E+04</pdfrwt>
<pdfrwt beam="2">  1       -1 0.16708996E+00 0.25454349E+04</pdfrwt>
<totfact> 0.15174791E+00</totfact>
</mgrwt>
</event>
<event>
12    1  0.1980523E-007  0.1704314E+04  0.7818608E-02  0.8758908E-01
          1   -1    0    0  501    0  0.00000000000E+00  0.00000000000E+00  0.10524125803E+04  0.10524125803E+04  0.00000000000E+00 0. -1.
         -1   -1    0    0    0  501 -0.00000000000E+00 -0.00000000000E+00 -0.69000637673E+03  0.69000637673E+03  0.00000000000E+00 0.  1.
         23    2    1    2    0    0  0.49369657002E+03  0.35013465746E+03  0.21780513775E+03  0.65025381099E+03  0.95185918479E+02 0.  0.
        254    2    1    2    0    0 -0.49369657002E+03 -0.35013465746E+03  0.14460106577E+03  0.10921651460E+04  0.89754367933E+03 0.  0.
        -24    2    4    4    0    0 -0.55529864228E+03  0.14196641739E+03  0.10608599794E+03  0.58833846645E+03  0.79855283913E+02 0.  0.
         24    2    4    4    0    0  0.61602072259E+02 -0.49210107485E+03  0.38515067829E+02  0.50382667954E+03  0.79997683712E+02 0.  0.
         11    1    3    3    0    0  0.27829348121E+03  0.25258421145E+03  0.12219387197E+03  0.39519284900E+03  0.00000000000E+00 0.  1.
        -11    1    3    3    0    0  0.21540308881E+03  0.97550446006E+02  0.95611265777E+02  0.25506096198E+03  0.00000000000E+00 0. -1.
          4    1    6    6  502    0  0.29952632172E+02 -0.12248394539E+03  0.41804640330E+02  0.13284240666E+03  0.00000000000E+00 0. -1.
          1    1    5    5  503    0 -0.16599189907E+03  0.70543010229E+02  0.58888778419E+02  0.18973011114E+03  0.00000000000E+00 0. -1.
         -2    1    5    5    0  503 -0.38930674320E+03  0.71423407159E+02  0.47197219525E+02  0.39860835531E+03  0.00000000000E+00 0.  1.
         -3    1    6    6    0  502  0.31649440088E+02 -0.36961712945E+03 -0.32895725016E+01  0.37098427289E+03  0.00000000000E+00 0.  1.
<mgrwt>
<rscale>  0 0.17043138E+04</rscale>
<asrwt>0</asrwt>
<pdfrwt beam="1">  1        1 0.16190963E+00 0.17043138E+04</pdfrwt>
<pdfrwt beam="2">  1       -1 0.10615483E+00 0.17043138E+04</pdfrwt>
<totfact> 0.10880717E+01</totfact>
</mgrwt>
</event>
<event>
12    1  0.1980523E-007  0.1395534E+04  0.7818608E-02  0.8957058E-01
          1   -1    0    0  501    0  0.00000000000E+00  0.00000000000E+00  0.25837669691E+04  0.25837669691E+04  0.00000000000E+00 0. -1.
         -1   -1    0    0    0  501 -0.00000000000E+00 -0.00000000000E+00 -0.18843749545E+03  0.18843749545E+03  0.00000000000E+00 0.  1.
         23    2    1    2    0    0 -0.24908072668E+03  0.15616558058E+03  0.16759270640E+03  0.35084508413E+03  0.92607023802E+02 0.  0.
        254    2    1    2    0    0  0.24908072668E+03 -0.15616558058E+03  0.22277367673E+04  0.24213593804E+04  0.90207607663E+03 0.  0.
        -24    2    4    4    0    0 -0.78893998099E+02 -0.45027612761E+03  0.14678677780E+04  0.15394937051E+04  0.80200999412E+02 0.  0.
         24    2    4    4    0    0  0.32797472478E+03  0.29411054703E+03  0.75986898929E+03  0.88186567536E+03  0.78852739511E+02 0.  0.
         11    1    3    3    0    0 -0.61380844355E+02  0.90361340130E+02  0.63502898690E+02  0.12635425591E+03  0.00000000000E+00 0. -1.
        -11    1    3    3    0    0 -0.18769988233E+03  0.65804240445E+02  0.10408980771E+03  0.22449082822E+03  0.00000000000E+00 0.  1.
          4    1    6    6  502    0  0.28723495066E+03  0.26867614762E+03  0.71552806733E+03  0.81649935965E+03  0.00000000000E+00 0. -1.
          1    1    5    5  503    0 -0.94531738838E+02 -0.34925592277E+03  0.11555523153E+04  0.12108745197E+04  0.00000000000E+00 0. -1.
         -2    1    5    5    0  503  0.15637740739E+02 -0.10102020483E+03  0.31231546270E+03  0.32861918532E+03  0.00000000000E+00 0.  1.
         -3    1    6    6    0  502  0.40739774123E+02  0.25434399412E+02  0.44340921959E+02  0.65366315708E+02  0.00000000000E+00 0.  1.
<mgrwt>
<rscale>  0 0.13955337E+04</rscale>
<asrwt>0</asrwt>
<pdfrwt beam="1">  1        1 0.39750259E+00 0.13955337E+04</pdfrwt>
<pdfrwt beam="2">  1       -1 0.28990386E-01 0.13955337E+04</pdfrwt>
<totfact> 0.12570175E+01</totfact>
</mgrwt>
</event>
<event>
12    1  0.1980523E-007  0.3283138E+04  0.7818608E-02  0.8167199E-01
         -2   -1    0    0    0  501 -0.00000000000E+00  0.00000000000E+00  0.95648394322E+03  0.95648394322E+03  0.00000000000E+00 0.  1.
          2   -1    0    0  501    0  0.00000000000E+00 -0.00000000000E+00 -0.28173491163E+04  0.28173491163E+04  0.00000000000E+00 0. -1.
         23    2    1    2    0    0  0.13946422126E+04 -0.28139654212E+03 -0.14648663861E+04  0.20440922976E+04  0.90933366147E+02 0.  0.
        254    2    1    2    0    0 -0.13946422126E+04  0.28139654212E+03 -0.39599878703E+03  0.17297407619E+04  0.90054269695E+03 0.  0.
        -24    2    4    4    0    0 -0.13717146113E+03 -0.94501644700E+02 -0.36966612932E+03  0.41466902515E+03  0.86895239556E+02 0.  0.
         24    2    4    4    0    0 -0.12574707515E+04  0.37589818682E+03 -0.26332657720E+02  0.13150717368E+04  0.78664644681E+02 0.  0.
         13    1    3    3    0    0  0.35251872023E+03 -0.69798665011E+02 -0.42812866005E+03  0.55895925729E+03  0.00000000000E+00 0. -1.
        -13    1    3    3    0    0  0.10421234924E+04 -0.21159787711E+03 -0.10367377260E+04  0.14851330404E+04  0.00000000000E+00 0.  1.
          4    1    6    6  502    0 -0.10830409881E+04  0.33500596400E+03 -0.47515279577E+02  0.11346649195E+04  0.00000000000E+00 0. -1.
          3    1    5    5  503    0 -0.38156443320E+02 -0.59459328553E+02 -0.22543787417E+03  0.23624893868E+03  0.00000000000E+00 0. -1.
         -4    1    5    5    0  503 -0.99015017811E+02 -0.35042316147E+02 -0.14422825514E+03  0.17842008647E+03  0.00000000000E+00 0.  1.
         -3    1    6    6    0  502 -0.17442976337E+03  0.40892222821E+02  0.21182621858E+02  0.18040681723E+03  0.00000000000E+00 0.  1.
<mgrwt>
<rscale>  0 0.32831383E+04</rscale>
<asrwt>0</asrwt>
<pdfrwt beam="1">  1        2 0.43343833E+00 0.32831383E+04</pdfrwt>
<pdfrwt beam="2">  1       -2 0.14715138E+00 0.32831383E+04</pdfrwt>
<totfact> 0.59473017E-01</totfact>
</mgrwt>
</event>
<event>
12    1  0.1980523E-007  0.2317768E+04  0.7818608E-02  0.8470948E-01
          2   -1    0    0  501    0  0.00000000000E+00  0.00000000000E+00  0.22654811302E+04  0.22654811302E+04  0.00000000000E+00 0. -1.
         -2   -1    0    0    0  501 -0.00000000000E+00 -0.00000000000E+00 -0.59281556950E+03  0.59281556950E+03  0.00000000000E+00 0.  1.
         23    2    1    2    0    0  0.82369256336E+03 -0.37960700210E+02  0.54756452813E+02  0.83156689546E+03  0.92708029920E+02 0.  0.
        254    2    1    2    0    0 -0.82369256336E+03  0.37960700210E+02  0.16179091079E+04  0.20267298043E+04  0.90005186759E+03 0.  0.
        -24    2    4    4    0    0 -0.61195831076E+03 -0.37214432164E+03  0.74622654245E+03  0.10373782054E+04  0.79467717339E+02 0.  0.
         24    2    4    4    0    0 -0.21173425259E+03  0.41010502185E+03  0.87168256546E+03  0.98935159889E+03  0.77256511878E+02 0.  0.
         13    1    3    3    0    0  0.29059019053E+03 -0.96172836718E+01  0.63661777571E+02  0.29763731772E+03  0.00000000000E+00 0. -1.
        -13    1    3    3    0    0  0.53310237283E+03 -0.28343416538E+02 -0.89053247579E+01  0.53392957774E+03  0.00000000000E+00 0.  1.
          2    1    6    6  502    0 -0.17462652652E+03  0.36406051064E+03  0.80238307503E+03  0.89825000878E+03  0.00000000000E+00 0. -1.
          1    1    5    5  503    0 -0.58119425569E+02 -0.25113605567E+02  0.38840132610E+02  0.74277296089E+02  0.00000000000E+00 0. -1.
         -2    1    5    5    0  503 -0.55383888519E+03 -0.34703071607E+03  0.70738640984E+03  0.96310090929E+03  0.00000000000E+00 0.  1.
         -1    1    6    6    0  502 -0.37107726075E+02  0.46044511207E+02  0.69299490424E+02  0.91101590106E+02  0.00000000000E+00 0.  1.
<mgrwt>
<rscale>  0 0.23177683E+04</rscale>
<asrwt>0</asrwt>
<pdfrwt beam="1">  1        2 0.34853555E+00 0.23177683E+04</pdfrwt>
<pdfrwt beam="2">  1       -2 0.91202397E-01 0.23177683E+04</pdfrwt>
<totfact> 0.43995614E+00</totfact>
</mgrwt>
</event>
<event>
12    1  0.1980523E-007  0.1581805E+04  0.7818608E-02  0.8831804E-01
          2   -1    0    0  501    0  0.00000000000E+00  0.00000000000E+00  0.50049264761E+03  0.50049264761E+03  0.00000000000E+00 0. -1.
         -2   -1    0    0    0  501 -0.00000000000E+00 -0.00000000000E+00 -0.12498227498E+04  0.12498227498E+04  0.00000000000E+00 0.  1.
         23    2    1    2    0    0 -0.36387917862E+03 -0.77382748976E+01  0.17129226407E+03  0.41256012165E+03  0.91634473384E+02 0.  0.
        254    2    1    2    0    0  0.36387917862E+03  0.77382748976E+01 -0.92062236629E+03  0.13377552758E+04  0.89976424638E+03 0.  0.
        -24    2    4    4    0    0 -0.26207573910E+03 -0.41455907212E+02 -0.92019420452E+02  0.29495286932E+03  0.90151739390E+02 0.  0.
         24    2    4    4    0    0  0.62595491772E+03  0.49194182110E+02 -0.82860294584E+03  0.10428024065E+04  0.81328903255E+02 0.  0.
         13    1    3    3    0    0 -0.18487354318E+03  0.30217235191E+01  0.13665418477E+03  0.22991677624E+03  0.00000000000E+00 0. -1.
        -13    1    3    3    0    0 -0.17900563544E+03 -0.10759998417E+02  0.34638079302E+02  0.18264334541E+03  0.00000000000E+00 0.  1.
          4    1    6    6  502    0  0.18064756846E+02  0.14139051932E+02 -0.44249005519E+02  0.49841977478E+02  0.00000000000E+00 0. -1.
          1    1    5    5  503    0 -0.42745066358E+02 -0.42970669410E+02 -0.14495105795E+02  0.62319557279E+02  0.00000000000E+00 0. -1.
         -2    1    5    5    0  503 -0.21933067274E+03  0.15147621982E+01 -0.77524314657E+02  0.23263331204E+03  0.00000000000E+00 0.  1.
         -3    1    6    6    0  502  0.60789016087E+03  0.35055130178E+02 -0.78435394032E+03  0.99296042899E+03  0.00000000000E+00 0.  1.
<mgrwt>
<rscale>  0 0.15818054E+04</rscale>
<asrwt>0</asrwt>
<pdfrwt beam="1">  1        2 0.76998871E-01 0.15818054E+04</pdfrwt>
<pdfrwt beam="2">  1       -2 0.19228042E+00 0.15818054E+04</pdfrwt>
<totfact> 0.88293976E+00</totfact>
</mgrwt>
</event>
<event>
12    1  0.1980523E-007  0.1296579E+04  0.7818608E-02  0.9032282E-01
          1   -1    0    0  501    0  0.00000000000E+00  0.00000000000E+00  0.11709952832E+04  0.11709952832E+04  0.00000000000E+00 0. -1.
         -1   -1    0    0    0  501 -0.00000000000E+00 -0.00000000000E+00 -0.35890781064E+03  0.35890781064E+03  0.00000000000E+00 0.  1.
         23    2    1    2    0    0  0.10653238580E+03  0.30546713361E+03  0.20903665236E+03  0.39622682301E+03  0.92951892398E+02 0.  0.
        254    2    1    2    0    0 -0.10653238580E+03 -0.30546713361E+03  0.60305082023E+03  0.11336762709E+04  0.90382093159E+03 0.  0.
        -24    2    4    4    0    0  0.24472628280E+03  0.15196976091E+03  0.43620979105E+03  0.52869106950E+03  0.79053800963E+02 0.  0.
         24    2    4    4    0    0 -0.35125866860E+03 -0.45743689452E+03  0.16684102918E+03  0.60498520135E+03  0.74431176960E+02 0.  0.
         11    1    3    3    0    0  0.37304992528E+02  0.30141915743E+02  0.55930336710E+02  0.73677677194E+02  0.00000000000E+00 0. -1.
        -11    1    3    3    0    0  0.69227393271E+02  0.27532521787E+03  0.15310631565E+03  0.32254914582E+03  0.00000000000E+00 0.  1.
          2    1    6    6  502    0 -0.17903172915E+03 -0.26435758075E+03  0.12509380641E+03  0.34290778781E+03  0.00000000000E+00 0. -1.
          3    1    5    5  503    0  0.16589282526E+02  0.27966133797E+02  0.20150461577E+02  0.38253758456E+02  0.00000000000E+00 0. -1.
         -4    1    5    5    0  503  0.22813700028E+03  0.12400362711E+03  0.41605932947E+03  0.49043731105E+03  0.00000000000E+00 0.  1.
         -1    1    6    6    0  502 -0.17222693945E+03 -0.19307931377E+03  0.41747222777E+02  0.26207741354E+03  0.00000000000E+00 0.  1.
<mgrwt>
<rscale>  0 0.12965791E+04</rscale>
<asrwt>0</asrwt>
<pdfrwt beam="1">  1        1 0.18015312E+00 0.12965791E+04</pdfrwt>
<pdfrwt beam="2">  1       -1 0.55216587E-01 0.12965791E+04</pdfrwt>
<totfact> 0.36567220E+01</totfact>
</mgrwt>
</event>
<event>
12    1  0.1980523E-007  0.1482475E+04  0.7818608E-02  0.8896191E-01
          1   -1    0    0  501    0  0.00000000000E+00  0.00000000000E+00  0.15035164485E+04  0.15035164485E+04  0.00000000000E+00 0. -1.
         -1   -1    0    0    0  501 -0.00000000000E+00 -0.00000000000E+00 -0.36543188298E+03  0.36543188298E+03  0.00000000000E+00 0.  1.
         23    2    1    2    0    0 -0.14480675211E+03  0.37891282514E+03  0.81861684842E+02  0.42378184062E+03  0.91355287103E+02 0.  0.
        254    2    1    2    0    0  0.14480675211E+03 -0.37891282514E+03  0.10562228807E+04  0.14451664909E+04  0.89908591811E+03 0.  0.
        -24    2    4    4    0    0  0.35846224531E+03 -0.27804997220E+03  0.12193558290E+03  0.47818366329E+03  0.89355252295E+02 0.  0.
         24    2    4    4    0    0 -0.21365549320E+03 -0.10086285294E+03  0.93428729781E+03  0.96698282760E+03  0.79630704798E+02 0.  0.
         11    1    3    3    0    0 -0.10684598632E+02  0.15066090276E+03  0.31737381607E+02  0.15433771302E+03  0.00000000000E+00 0. -1.
        -11    1    3    3    0    0 -0.13412215348E+03  0.22825192238E+03  0.50124303236E+02  0.26944412760E+03  0.00000000000E+00 0.  1.
          2    1    6    6  502    0 -0.18473304158E+03 -0.11288466279E+03  0.84757141370E+03  0.87478371331E+03  0.00000000000E+00 0. -1.
          1    1    5    5  503    0  0.14480488186E+03 -0.10050701257E+03  0.37916882030E+01  0.17630794164E+03  0.00000000000E+00 0. -1.
         -2    1    5    5    0  503  0.21365736345E+03 -0.17754295962E+03  0.11814389470E+03  0.30187572166E+03  0.00000000000E+00 0.  1.
         -3    1    6    6    0  502 -0.28922451613E+02  0.12021809847E+02  0.86715884103E+02  0.92199114286E+02  0.00000000000E+00 0.  1.
<mgrwt>
<rscale>  0 0.14824748E+04</rscale>
<asrwt>0</asrwt>
<pdfrwt beam="1">  1        1 0.23131022E+00 0.14824748E+04</pdfrwt>
<pdfrwt beam="2">  1       -1 0.56220291E-01 0.14824748E+04</pdfrwt>
<totfact> 0.20171622E+01</totfact>
</mgrwt>
</event>
<event>
12    1  0.2236182E-007  0.1334091E+04  0.7818608E-02  0.9002959E-01
          2   -1    0    0  501    0  0.00000000000E+00  0.00000000000E+00  0.15571060727E+04  0.15571060727E+04  0.00000000000E+00 0. -1.
         -2   -1    0    0    0  501 -0.00000000000E+00 -0.00000000000E+00 -0.28575423528E+03  0.28575423528E+03  0.00000000000E+00 0.  1.
         23    2    1    2    0    0  0.83236682166E+02 -0.31068155002E+03  0.55852496734E+03  0.65091490829E+03  0.91042341283E+02 0.  0.
        254    2    1    2    0    0 -0.83236682166E+02  0.31068155002E+03  0.71282687012E+03  0.11919453997E+04  0.89953338927E+03 0.  0.
        -24    2    4    4    0    0  0.46848729674E+02  0.60681007365E+03  0.38700109122E+03  0.72566591100E+03  0.80049365000E+02 0.  0.
         24    2    4    4    0    0 -0.13008541184E+03 -0.29612852363E+03  0.32582577890E+03  0.46627948874E+03  0.81485008094E+02 0.  0.
         13    1    3    3    0    0 -0.59476484105E+01 -0.15085345585E+03  0.26570978270E+03  0.30560403840E+03  0.00000000000E+00 0. -1.
        -13    1    3    3    0    0  0.89184330576E+02 -0.15982809417E+03  0.29281518465E+03  0.34531086989E+03  0.00000000000E+00 0.  1.
          2    1    6    6  502    0 -0.13974983725E+03 -0.28743863965E+03  0.31913541533E+03  0.45166182249E+03  0.00000000000E+00 0. -1.
          1    1    5    5  503    0  0.49146413704E+02  0.60499533201E+03  0.38999505973E+03  0.72147825217E+03  0.00000000000E+00 0. -1.
         -2    1    5    5    0  503 -0.22976840300E+01  0.18147416319E+01 -0.29939685086E+01  0.41876588355E+01  0.00000000000E+00 0.  1.
         -1    1    6    6    0  502  0.96644254076E+01 -0.86898839728E+01  0.66903635752E+01  0.14617666253E+02  0.00000000000E+00 0.  1.
<mgrwt>
<rscale>  0 0.13340909E+04</rscale>
<asrwt>0</asrwt>
<pdfrwt beam="1">  1        2 0.23955477E+00 0.13340909E+04</pdfrwt>
<pdfrwt beam="2">  1       -2 0.43962191E-01 0.13340909E+04</pdfrwt>
<totfact> 0.56539559E+01</totfact>
</mgrwt>
</event>
<event>
12    1  0.1980523E-007  0.1863494E+04  0.7818608E-02  0.8673244E-01
         -2   -1    0    0    0  501 -0.00000000000E+00  0.00000000000E+00  0.65711471500E+03  0.65711471500E+03  0.00000000000E+00 0.  1.
          2   -1    0    0  501    0  0.00000000000E+00 -0.00000000000E+00 -0.13211579462E+04  0.13211579462E+04  0.00000000000E+00 0. -1.
         23    2    1    2    0    0 -0.13895879038E+02 -0.63699397248E+03 -0.57710632326E+03  0.86488767280E+03  0.94997693519E+02 0.  0.
        254    2    1    2    0    0  0.13895879038E+02  0.63699397248E+03 -0.86936907946E+02  0.11133849884E+04  0.90890796566E+03 0.  0.
        -24    2    4    4    0    0  0.37287993694E+03  0.12649294776E+02  0.14865334469E+02  0.38179557650E+03  0.79670772817E+02 0.  0.
         24    2    4    4    0    0 -0.35898405790E+03  0.62434467770E+03 -0.10180224241E+03  0.73158941191E+03  0.78635492339E+02 0.  0.
         13    1    3    3    0    0 -0.48920861667E+02 -0.45459444494E+03 -0.43422451758E+03  0.63055554215E+03  0.00000000000E+00 0.  1.
        -13    1    3    3    0    0  0.35024982629E+02 -0.18239952754E+03 -0.14288180569E+03  0.23433213064E+03  0.00000000000E+00 0. -1.
          2    1    6    6  502    0 -0.30346109231E+03  0.54013832844E+03 -0.11414267917E+03  0.62997349119E+03  0.00000000000E+00 0. -1.
          3    1    5    5  503    0  0.25680230858E+03 -0.28324358068E+02  0.71919094665E+01  0.25845970385E+03  0.00000000000E+00 0. -1.
         -4    1    5    5    0  503  0.11607762835E+03  0.40973652844E+02  0.76734250020E+01  0.12333587265E+03  0.00000000000E+00 0.  1.
         -1    1    6    6    0  502 -0.55522965591E+02  0.84206349263E+02  0.12340436755E+02  0.10161592072E+03  0.00000000000E+00 0.  1.
<mgrwt>
<rscale>  0 0.18634938E+04</rscale>
<asrwt>0</asrwt>
<pdfrwt beam="1">  1        2 0.20325507E+00 0.18634938E+04</pdfrwt>
<pdfrwt beam="2">  1       -2 0.10109457E+00 0.18634938E+04</pdfrwt>
<totfact> 0.12150343E+01</totfact>
</mgrwt>
</event>
<event>
12    1  0.1980523E-007  0.2973045E+04  0.7818608E-02  0.8251470E-01
         -2   -1    0    0    0  501 -0.00000000000E+00  0.00000000000E+00  0.11726968520E+04  0.11726968520E+04  0.00000000000E+00 0.  1.
          2   -1    0    0  501    0  0.00000000000E+00 -0.00000000000E+00 -0.18843304994E+04  0.18843304994E+04  0.00000000000E+00 0. -1.
         23    2    1    2    0    0  0.68341964065E+03 -0.10613494626E+04  0.15684418948E+03  0.12750849247E+04  0.87842919954E+02 0.  0.
        254    2    1    2    0    0 -0.68341964065E+03  0.10613494626E+04 -0.86847783693E+03  0.17819424266E+04  0.90969224011E+03 0.  0.
        -24    2    4    4    0    0  0.11568908476E+03  0.20084439906E+03  0.93405016185E+02  0.26198955154E+03  0.78686664087E+02 0.  0.
         24    2    4    4    0    0 -0.79910872540E+03  0.86050506350E+03 -0.96188285312E+03  0.15199528751E+04  0.77423511051E+02 0.  0.
         11    1    3    3    0    0  0.68878765583E+02 -0.14130216980E+03  0.42118629141E+02  0.16274079531E+03  0.00000000000E+00 0. -1.
        -11    1    3    3    0    0  0.61454087506E+03 -0.92004729275E+03  0.11472556034E+03  0.11123441294E+04  0.00000000000E+00 0.  1.
          2    1    6    6  502    0 -0.67377989324E+03  0.75119865185E+03 -0.85151865822E+03  0.13203646407E+04  0.00000000000E+00 0. -1.
          3    1    5    5  503    0  0.71371969949E+02  0.12383247589E+03  0.15402285998E+02  0.14375559326E+03  0.00000000000E+00 0. -1.
         -4    1    5    5    0  503  0.44317114807E+02  0.77011923163E+02  0.78002730187E+02  0.11823395828E+03  0.00000000000E+00 0.  1.
         -1    1    6    6    0  502 -0.12532883216E+03  0.10930641164E+03 -0.11036419490E+03  0.19958823440E+03  0.00000000000E+00 0.  1.
<mgrwt>
<rscale>  0 0.29730445E+04</rscale>
<asrwt>0</asrwt>
<pdfrwt beam="1">  1        2 0.28989700E+00 0.29730445E+04</pdfrwt>
<pdfrwt beam="2">  1       -2 0.18041490E+00 0.29730445E+04</pdfrwt>
<totfact> 0.11973692E+00</totfact>
</mgrwt>
</event>
<event>
12    1  0.1980523E-007  0.3628397E+04  0.7818608E-02  0.8084018E-01
         -2   -1    0    0    0  501 -0.00000000000E+00  0.00000000000E+00  0.12405422446E+04  0.12405422446E+04  0.00000000000E+00 0. -1.
          2   -1    0    0  501    0  0.00000000000E+00 -0.00000000000E+00 -0.26531264236E+04  0.26531264236E+04  0.00000000000E+00 0.  1.
         23    2    1    2    0    0 -0.13207380951E+04 -0.58516253509E+03 -0.16285856314E+04  0.21789688565E+04  0.94073433119E+02 0.  0.
        254    2    1    2    0    0  0.13207380951E+04  0.58516253509E+03  0.21600145235E+03  0.17146998117E+04  0.89820627294E+03 0.  0.
        -24    2    4    4    0    0  0.86832452141E+02  0.40073250405E+03  0.20252188757E+03  0.46445275328E+03  0.81085328754E+02 0.  0.
         24    2    4    4    0    0  0.12339056429E+04  0.18443003104E+03  0.13479564781E+02  0.12502470585E+04  0.79990227811E+02 0.  0.
         13    1    3    3    0    0 -0.62477266441E+03 -0.28072765826E+03 -0.70186657698E+03  0.98069648321E+03  0.00000000000E+00 0. -1.
        -13    1    3    3    0    0 -0.69596543065E+03 -0.30443487682E+03 -0.92671905437E+03  0.11982723733E+04  0.00000000000E+00 0.  1.
          2    1    6    6  502    0  0.11147367441E+04  0.14780500182E+03 -0.29673033112E+01  0.11244968351E+04  0.00000000000E+00 0. -1.
          3    1    5    5  503    0  0.72681834043E+02  0.35783263380E+03  0.14888312743E+03  0.39432604332E+03  0.00000000000E+00 0. -1.
         -4    1    5    5    0  503  0.14150618099E+02  0.42899870252E+02  0.53638760137E+02  0.70126709956E+02  0.00000000000E+00 0.  1.
         -1    1    6    6    0  502  0.11916889884E+03  0.36625029218E+02  0.16446868093E+02  0.12575022340E+03  0.00000000000E+00 0.  1.
<mgrwt>
<rscale>  0 0.36283966E+04</rscale>
<asrwt>0</asrwt>
<pdfrwt beam="1">  1        2 0.40817330E+00 0.36283966E+04</pdfrwt>
<pdfrwt beam="2">  1       -2 0.19085265E+00 0.36283966E+04</pdfrwt>
<totfact> 0.35211582E-01</totfact>
</mgrwt>
</event>
<event>
12    1  0.1980523E-007  0.2515861E+04  0.7818608E-02  0.8397357E-01
          4   -1    0    0  501    0  0.00000000000E+00  0.00000000000E+00  0.95060939199E+03  0.95060939199E+03  0.00000000000E+00 0. -1.
         -4   -1    0    0    0  501 -0.00000000000E+00 -0.00000000000E+00 -0.16646044090E+04  0.16646044090E+04  0.00000000000E+00 0.  1.
         23    2    1    2    0    0 -0.32353326137E+03  0.93115544226E+03 -0.80753430352E+03  0.12775607003E+04  0.91243973233E+02 0.  0.
        254    2    1    2    0    0  0.32353326137E+03 -0.93115544226E+03  0.93539286466E+02  0.13376531008E+04  0.89935643157E+03 0.  0.
        -24    2    4    4    0    0  0.20462943083E+03 -0.43226998301E+03  0.48548156514E+03  0.68727149723E+03  0.88989991789E+02 0.  0.
         24    2    4    4    0    0  0.11890383054E+03 -0.49888545925E+03 -0.39194227867E+03  0.65038160353E+03  0.79703563513E+02 0.  0.
         13    1    3    3    0    0 -0.24535902530E+03  0.80394795508E+03 -0.67881922851E+03  0.10804299657E+04  0.00000000000E+00 0.  1.
        -13    1    3    3    0    0 -0.78174236074E+02  0.12720748718E+03 -0.12871507501E+03  0.19713073457E+03  0.00000000000E+00 0. -1.
          4    1    6    6  502    0  0.17474311633E+02 -0.11106043104E+03 -0.48234934553E+02  0.12233715634E+03  0.00000000000E+00 0. -1.
          1    1    5    5  503    0 -0.28201873114E+01 -0.52681806399E+02  0.68300771713E+02  0.86303659242E+02  0.00000000000E+00 0. -1.
         -2    1    5    5    0  503  0.20744961814E+03 -0.37958817661E+03  0.41718079342E+03  0.60096783798E+03  0.00000000000E+00 0.  1.
         -3    1    6    6    0  502  0.10142951891E+03 -0.38782502821E+03 -0.34370734412E+03  0.52804444719E+03  0.00000000000E+00 0.  1.
<mgrwt>
<rscale>  0 0.25158606E+04</rscale>
<asrwt>0</asrwt>
<pdfrwt beam="1">  1        4 0.14624760E+00 0.25158606E+04</pdfrwt>
<pdfrwt beam="2">  1       -4 0.25609299E+00 0.25158606E+04</pdfrwt>
<totfact> 0.32758122E-02</totfact>
</mgrwt>
</event>
<event>
12    1  0.1980523E-007  0.1600645E+04  0.7818608E-02  0.8820152E-01
          2   -1    0    0  501    0  0.00000000000E+00  0.00000000000E+00  0.13782105187E+04  0.13782105187E+04  0.00000000000E+00 0. -1.
         -2   -1    0    0    0  501 -0.00000000000E+00 -0.00000000000E+00 -0.46474488364E+03  0.46474488364E+03  0.00000000000E+00 0.  1.
         23    2    1    2    0    0  0.23874305766E+03  0.26763121073E+03 -0.15385465674E+03  0.40092323573E+03  0.91888372535E+02 0.  0.
        254    2    1    2    0    0 -0.23874305766E+03 -0.26763121073E+03  0.10673202918E+04  0.14420321666E+04  0.90092144590E+03 0.  0.
        -24    2    4    4    0    0 -0.27699867662E+03  0.77502808888E+02  0.10433276817E+04  0.10851618413E+04  0.79426809930E+02 0.  0.
         24    2    4    4    0    0  0.38255618952E+02 -0.34513401962E+03  0.23992610039E+02  0.35687032527E+03  0.78738807714E+02 0.  0.
         13    1    3    3    0    0  0.39302723658E+02  0.56813025922E+02  0.64512235691E+01  0.69383299770E+02  0.00000000000E+00 0. -1.
        -13    1    3    3    0    0  0.19944033401E+03  0.21081818481E+03 -0.16030588031E+03  0.33153993596E+03  0.00000000000E+00 0.  1.
          2    1    6    6  502    0  0.35958721401E+02 -0.56624798915E+02 -0.26085756364E+01  0.67128251607E+02  0.00000000000E+00 0. -1.
          1    1    5    5  503    0 -0.10662310992E+03 -0.80027450628E+01  0.41504517481E+03  0.42859658028E+03  0.00000000000E+00 0. -1.
         -2    1    5    5    0  503 -0.17037556670E+03  0.85505553951E+02  0.62828250692E+03  0.65656526102E+03  0.00000000000E+00 0.  1.
         -1    1    6    6    0  502  0.22968975509E+01 -0.28850922071E+03  0.26601185675E+02  0.28974207366E+03  0.00000000000E+00 0.  1.
<mgrwt>
<rscale>  0 0.16006452E+04</rscale>
<asrwt>0</asrwt>
<pdfrwt beam="1">  1        2 0.21203239E+00 0.16006452E+04</pdfrwt>
<pdfrwt beam="2">  1       -2 0.71499214E-01 0.16006452E+04</pdfrwt>
<totfact> 0.25342554E+01</totfact>
</mgrwt>
</event>
<event>
12    1  0.1980523E-007  0.3845912E+04  0.7818608E-02  0.8036373E-01
         -1   -1    0    0    0  501 -0.00000000000E+00  0.00000000000E+00  0.10263677206E+04  0.10263677206E+04  0.00000000000E+00 0.  1.
          1   -1    0    0  501    0  0.00000000000E+00 -0.00000000000E+00 -0.36027638747E+04  0.36027638747E+04  0.00000000000E+00 0. -1.
         23    2    1    2    0    0 -0.52996324408E+03  0.17372256209E+04 -0.11984206378E+04  0.21779741751E+04  0.92442329197E+02 0.  0.
        254    2    1    2    0    0  0.52996324408E+03 -0.17372256209E+04 -0.13779755163E+04  0.24511574202E+04  0.90030121452E+03 0.  0.
        -24    2    4    4    0    0 -0.16446627026E+03 -0.14407173934E+03 -0.37940597847E+03  0.44517374327E+03  0.80155755055E+02 0.  0.
         24    2    4    4    0    0  0.69442951434E+03 -0.15931538816E+04 -0.99856953786E+03  0.20059836769E+04  0.80360122772E+02 0.  0.
         13    1    3    3    0    0 -0.88604242040E+02  0.34299564475E+03 -0.27433127690E+03  0.44805621691E+03  0.00000000000E+00 0. -1.
        -13    1    3    3    0    0 -0.44135900204E+03  0.13942299762E+04 -0.92408936088E+03  0.17299179582E+04  0.00000000000E+00 0.  1.
          4    1    6    6  502    0  0.68144559385E+03 -0.15808237184E+04 -0.99256690151E+03  0.19870985833E+04  0.00000000000E+00 0. -1.
          3    1    5    5  503    0 -0.16625015265E+03 -0.15149174369E+03 -0.36224136136E+03  0.42638910110E+03  0.00000000000E+00 0. -1.
         -4    1    5    5    0  503  0.17838823832E+01  0.74200043445E+01 -0.17164617115E+02  0.18784642172E+02  0.00000000000E+00 0.  1.
         -3    1    6    6    0  502  0.12983920495E+02 -0.12330163191E+02 -0.60026363525E+01  0.18885093564E+02  0.00000000000E+00 0.  1.
<mgrwt>
<rscale>  0 0.38459124E+04</rscale>
<asrwt>0</asrwt>
<pdfrwt beam="1">  1        1 0.55427136E+00 0.38459124E+04</pdfrwt>
<pdfrwt beam="2">  1       -1 0.15790273E+00 0.38459124E+04</pdfrwt>
<totfact> 0.49640758E-02</totfact>
</mgrwt>
</event>
<event>
12    1  0.1980523E-007  0.2310141E+04  0.7818608E-02  0.8473933E-01
         -2   -1    0    0    0  501 -0.00000000000E+00  0.00000000000E+00  0.89948948462E+03  0.89948948462E+03  0.00000000000E+00 0.  1.
          2   -1    0    0  501    0  0.00000000000E+00 -0.00000000000E+00 -0.14832725085E+04  0.14832725085E+04  0.00000000000E+00 0. -1.
         23    2    1    2    0    0  0.97031304883E+03 -0.88214024642E+02 -0.32755312914E+03  0.10315453388E+04  0.86634904919E+02 0.  0.
        254    2    1    2    0    0 -0.97031304883E+03  0.88214024642E+02 -0.25622989477E+03  0.13512166543E+04  0.90046852311E+03 0.  0.
        -24    2    4    4    0    0 -0.87413728134E+03  0.37354328826E+03 -0.79287847883E+01  0.95408770344E+03  0.81054952965E+02 0.  0.
         24    2    4    4    0    0 -0.96175767487E+02 -0.28532926361E+03 -0.24830110998E+03  0.39712895089E+03  0.73453355909E+02 0.  0.
         11    1    3    3    0    0  0.64560243010E+03 -0.71869538729E+02 -0.25872280941E+03  0.69921757734E+03  0.00000000000E+00 0. -1.
        -11    1    3    3    0    0  0.32471061872E+03 -0.16344485912E+02 -0.68830319731E+02  0.33232776147E+03  0.00000000000E+00 0.  1.
          4    1    6    6  502    0 -0.10058573409E+03 -0.22092540741E+03 -0.17379605923E+03  0.29854747653E+03  0.00000000000E+00 0. -1.
          3    1    5    5  503    0 -0.76503376529E+02  0.20232012317E+02 -0.20005576879E+02  0.81623060767E+02  0.00000000000E+00 0. -1.
         -4    1    5    5    0  503 -0.79763390481E+03  0.35331127594E+03  0.12076792090E+02  0.87246464267E+03  0.00000000000E+00 0.  1.
         -3    1    6    6    0  502  0.44099666044E+01 -0.64403856206E+02 -0.74505050749E+02  0.98581474359E+02  0.00000000000E+00 0.  1.
<mgrwt>
<rscale>  0 0.23101411E+04</rscale>
<asrwt>0</asrwt>
<pdfrwt beam="1">  1        2 0.22819577E+00 0.23101411E+04</pdfrwt>
<pdfrwt beam="2">  1       -2 0.13838300E+00 0.23101411E+04</pdfrwt>
<totfact> 0.43509750E+00</totfact>
</mgrwt>
</event>
<event>
12    1  0.1980523E-007  0.1914426E+04  0.7818608E-02  0.8647709E-01
         -1   -1    0    0    0  501 -0.00000000000E+00  0.00000000000E+00  0.53005983299E+03  0.53005983299E+03  0.00000000000E+00 0.  1.
          1   -1    0    0  501    0  0.00000000000E+00 -0.00000000000E+00 -0.17285919972E+04  0.17285919972E+04  0.00000000000E+00 0. -1.
         23    2    1    2    0    0  0.28523986672E+03 -0.63831820090E+03 -0.73459399632E+03  0.10180284089E+04  0.89115625139E+02 0.  0.
        254    2    1    2    0    0 -0.28523986672E+03  0.63831820090E+03 -0.46393816794E+03  0.12406234214E+04  0.91383584021E+03 0.  0.
        -24    2    4    4    0    0 -0.35797533534E+03  0.98272126191E+02  0.15656061826E+03  0.41051356764E+03  0.78780775100E+02 0.  0.
         24    2    4    4    0    0  0.72735468620E+02  0.54004607471E+03 -0.62049878619E+03  0.83010985375E+03  0.84400322384E+02 0.  0.
         13    1    3    3    0    0  0.65158889007E+02 -0.73595398807E+02 -0.11501287774E+03  0.15129416905E+03  0.00000000000E+00 0. -1.
        -13    1    3    3    0    0  0.22008097771E+03 -0.56472280209E+03 -0.61958111858E+03  0.86673423981E+03  0.00000000000E+00 0.  1.
          2    1    6    6  502    0 -0.16868301879E+02  0.11852367963E+03 -0.11739277642E+03  0.16767070763E+03  0.00000000000E+00 0. -1.
          3    1    5    5  503    0 -0.17880638942E+03  0.16621007729E+02  0.10052064908E+03  0.20579694771E+03  0.00000000000E+00 0. -1.
         -4    1    5    5    0  503 -0.17916894593E+03  0.81651118462E+02  0.56039969179E+02  0.20471661993E+03  0.00000000000E+00 0.  1.
         -1    1    6    6    0  502  0.89603770499E+02  0.42152239508E+03 -0.50310600977E+03  0.66243914612E+03  0.00000000000E+00 0.  1.
<mgrwt>
<rscale>  0 0.19144265E+04</rscale>
<asrwt>0</asrwt>
<pdfrwt beam="1">  1        1 0.26593723E+00 0.19144265E+04</pdfrwt>
<pdfrwt beam="2">  1       -1 0.81547667E-01 0.19144265E+04</pdfrwt>
<totfact> 0.63747737E+00</totfact>
</mgrwt>
</event>
<event>
12    1  0.1980523E-007  0.1378448E+04  0.7818608E-02  0.8969568E-01
         -1   -1    0    0    0  501 -0.00000000000E+00  0.00000000000E+00  0.53632667537E+03  0.53632667537E+03  0.00000000000E+00 0.  1.
          1   -1    0    0  501    0  0.00000000000E+00 -0.00000000000E+00 -0.88570956435E+03  0.88570956435E+03  0.00000000000E+00 0. -1.
         23    2    1    2    0    0 -0.34148457649E+03 -0.36521319233E+02  0.84093276016E+02  0.36569452664E+03  0.93355690817E+02 0.  0.
        254    2    1    2    0    0  0.34148457649E+03  0.36521319233E+02 -0.43347616500E+03  0.10563417131E+04  0.90000594800E+03 0.  0.
        -24    2    4    4    0    0  0.42037023248E+02  0.42415425903E+03 -0.34305357227E+03  0.55277558396E+03  0.78747355457E+02 0.  0.
         24    2    4    4    0    0  0.29944755324E+03 -0.38763293980E+03 -0.90422592727E+02  0.50356612912E+03  0.73989647700E+02 0.  0.
         13    1    3    3    0    0 -0.29846126016E+03 -0.29891983475E+02  0.38095232044E+02  0.30236385564E+03  0.00000000000E+00 0. -1.
        -13    1    3    3    0    0 -0.43023316326E+02 -0.66293357580E+01  0.45998043973E+02  0.63330671002E+02  0.00000000000E+00 0.  1.
          4    1    6    6  502    0  0.21635500788E+03 -0.32102991299E+03 -0.53257850342E+02  0.39077626987E+03  0.00000000000E+00 0. -1.
          3    1    5    5  503    0  0.32865528267E+02  0.40339580580E+03 -0.34229281396E+03  0.53006857063E+03  0.00000000000E+00 0. -1.
         -4    1    5    5    0  503  0.91714949801E+01  0.20758453236E+02 -0.76075831066E+00  0.22707013325E+02  0.00000000000E+00 0.  1.
         -3    1    6    6    0  502  0.83092545359E+02 -0.66603026812E+02 -0.37164742385E+02  0.11278985926E+03  0.00000000000E+00 0.  1.
<mgrwt>
<rscale>  0 0.13784479E+04</rscale>
<asrwt>0</asrwt>
<pdfrwt beam="1">  1        1 0.13626301E+00 0.13784479E+04</pdfrwt>
<pdfrwt beam="2">  1       -1 0.82511797E-01 0.13784479E+04</pdfrwt>
<totfact> 0.26669125E+01</totfact>
</mgrwt>
</event>
<event>
12    1  0.1980523E-007  0.2445878E+04  0.7818608E-02  0.8422525E-01
          2   -1    0    0  501    0  0.00000000000E+00  0.00000000000E+00  0.19772597940E+04  0.19772597940E+04  0.00000000000E+00 0. -1.
         -2   -1    0    0    0  501 -0.00000000000E+00 -0.00000000000E+00 -0.75639001244E+03  0.75639001244E+03  0.00000000000E+00 0.  1.
         23    2    1    2    0    0 -0.64669242149E+03 -0.60484817756E+03  0.11694610402E+04  0.14699207157E+04  0.94738482228E+02 0.  0.
        254    2    1    2    0    0  0.64669242149E+03  0.60484817756E+03  0.51408741371E+02  0.12637290908E+04  0.90017551078E+03 0.  0.
        -24    2    4    4    0    0 -0.16103537783E+03  0.37336819852E+03 -0.33392814661E+02  0.41551674493E+03  0.78758368855E+02 0.  0.
         24    2    4    4    0    0  0.80772779932E+03  0.23147997904E+03  0.84801556031E+02  0.84821234582E+03  0.79156182377E+02 0.  0.
         11    1    3    3    0    0 -0.57163463504E+03 -0.48784380611E+03  0.98467681738E+03  0.12386872768E+04  0.00000000000E+00 0. -1.
        -11    1    3    3    0    0 -0.75057786452E+02 -0.11700437144E+03  0.18478422283E+03  0.23123343887E+03  0.00000000000E+00 0.  1.
          2    1    6    6  502    0  0.41379881153E+03  0.15956900438E+03  0.47784492253E+02  0.44606622970E+03  0.00000000000E+00 0. -1.
          1    1    5    5  503    0 -0.89469041555E+02  0.12545679292E+03  0.74431453151E+01  0.15427091981E+03  0.00000000000E+00 0. -1.
         -2    1    5    5    0  503 -0.71566336278E+02  0.24791140560E+03 -0.40835959976E+02  0.26124582512E+03  0.00000000000E+00 0.  1.
         -1    1    6    6    0  502  0.39392898779E+03  0.71910974659E+02  0.37017063779E+02  0.40214611612E+03  0.00000000000E+00 0.  1.
<mgrwt>
<rscale>  0 0.24458778E+04</rscale>
<asrwt>0</asrwt>
<pdfrwt beam="1">  1        2 0.30419381E+00 0.24458778E+04</pdfrwt>
<pdfrwt beam="2">  1       -2 0.11636769E+00 0.24458778E+04</pdfrwt>
<totfact> 0.35300110E+00</totfact>
</mgrwt>
</event>
<event>
12    1  0.1980523E-007  0.1653437E+04  0.7818608E-02  0.8788376E-01
         -1   -1    0    0    0  501 -0.00000000000E+00  0.00000000000E+00  0.10273617953E+04  0.10273617953E+04  0.00000000000E+00 0.  1.
          1   -1    0    0  501    0  0.00000000000E+00 -0.00000000000E+00 -0.66526051635E+03  0.66526051635E+03  0.00000000000E+00 0. -1.
         23    2    1    2    0    0  0.16920413626E+03 -0.36335222328E+03  0.55147253777E+03  0.68774450707E+03  0.90640328803E+02 0.  0.
        254    2    1    2    0    0 -0.16920413626E+03  0.36335222328E+03 -0.18937125881E+03  0.10048778046E+04  0.90181098386E+03 0.  0.
        -24    2    4    4    0    0 -0.14582143087E+02 -0.28150008514E+03 -0.16524562027E+03  0.33659554013E+03  0.80842475140E+02 0.  0.
         24    2    4    4    0    0 -0.15462199317E+03  0.64485230842E+03 -0.24125638546E+02  0.66828226447E+03  0.79225489087E+02 0.  0.
         11    1    3    3    0    0  0.12822471883E+03 -0.20226631849E+03  0.37811733040E+03  0.44757787888E+03  0.00000000000E+00 0. -1.
        -11    1    3    3    0    0  0.40979417427E+02 -0.16108590479E+03  0.17335520737E+03  0.24016662819E+03  0.00000000000E+00 0.  1.
          2    1    6    6  502    0 -0.16104892464E+03  0.58094500706E+03 -0.12344776480E+02  0.60298113641E+03  0.00000000000E+00 0. -1.
          1    1    5    5  503    0 -0.26289659417E+02 -0.22018989023E+03 -0.91261758153E+02  0.23979875407E+03  0.00000000000E+00 0. -1.
         -4    1    5    5    0  503  0.11707516330E+02 -0.61310194911E+02 -0.73983862113E+02  0.96796786061E+02  0.00000000000E+00 0.  1.
         -1    1    6    6    0  502  0.64269314676E+01  0.63907301356E+02 -0.11780862066E+02  0.65301128058E+02  0.00000000000E+00 0.  1.
<mgrwt>
<rscale>  0 0.16534367E+04</rscale>
<asrwt>0</asrwt>
<pdfrwt beam="1">  1        1 0.10234777E+00 0.16534367E+04</pdfrwt>
<pdfrwt beam="2">  1       -1 0.15805566E+00 0.16534367E+04</pdfrwt>
<totfact> 0.84983734E+00</totfact>
</mgrwt>
</event>
<event>
12    1  0.1980523E-007  0.2086306E+04  0.7818608E-02  0.8567300E-01
         -2   -1    0    0    0  501 -0.00000000000E+00  0.00000000000E+00  0.67806422808E+03  0.67806422808E+03  0.00000000000E+00 0.  1.
          2   -1    0    0  501    0  0.00000000000E+00 -0.00000000000E+00 -0.16048156173E+04  0.16048156173E+04  0.00000000000E+00 0. -1.
         23    2    1    2    0    0 -0.31409691741E+03  0.78600416703E+03 -0.35475316594E+03  0.92231449029E+03  0.91404519309E+02 0.  0.
        254    2    1    2    0    0  0.31409691741E+03 -0.78600416703E+03 -0.57199822329E+03  0.13605653551E+04  0.89860819823E+03 0.  0.
        -24    2    4    4    0    0  0.49899356824E+02  0.18255754051E+03 -0.52073335365E+01  0.20482590364E+03  0.78162222773E+02 0.  0.
         24    2    4    4    0    0  0.26419756058E+03 -0.96856170754E+03 -0.56679088975E+03  0.11557394515E+04  0.81053282516E+02 0.  0.
         13    1    3    3    0    0 -0.12353101576E+02  0.62635375496E+02 -0.51080149480E+02  0.81761672273E+02  0.00000000000E+00 0. -1.
        -13    1    3    3    0    0 -0.30174381583E+03  0.72336879153E+03 -0.30367301646E+03  0.84055281802E+03  0.00000000000E+00 0.  1.
          2    1    6    6  502    0  0.21889942558E+03 -0.81489053272E+03 -0.50905902950E+03  0.98544641374E+03  0.00000000000E+00 0. -1.
          1    1    5    5  503    0  0.27395706952E+02  0.14776351727E+03  0.26562805474E+02  0.15261115435E+03  0.00000000000E+00 0. -1.
         -2    1    5    5    0  503  0.22503649872E+02  0.34794023239E+02 -0.31770139010E+02  0.52214749290E+02  0.00000000000E+00 0.  1.
         -1    1    6    6    0  502  0.45298134999E+02 -0.15367117483E+03 -0.57731860252E+02  0.17029303772E+03  0.00000000000E+00 0.  1.
<mgrwt>
<rscale>  0 0.20863059E+04</rscale>
<asrwt>0</asrwt>
<pdfrwt beam="1">  1        2 0.24689471E+00 0.20863059E+04</pdfrwt>
<pdfrwt beam="2">  1       -2 0.10431758E+00 0.20863059E+04</pdfrwt>
<totfact> 0.76354117E+00</totfact>
</mgrwt>
</event>
<event>
12    1  0.1980523E-007  0.5697031E+04  0.7818608E-02  0.7729145E-01
         -1   -1    0    0    0  501 -0.00000000000E+00  0.00000000000E+00  0.27289342433E+04  0.27289342433E+04  0.00000000000E+00 0.  1.
          1   -1    0    0  501    0  0.00000000000E+00 -0.00000000000E+00 -0.29733366043E+04  0.29733366043E+04  0.00000000000E+00 0. -1.
         23    2    1    2    0    0 -0.12908456342E+04 -0.22547508604E+04 -0.10999082156E+04  0.28228572718E+04  0.92418615136E+02 0.  0.
        254    2    1    2    0    0  0.12908456342E+04  0.22547508604E+04  0.85550585459E+03  0.28794135758E+04  0.89941557677E+03 0.  0.
        -24    2    4    4    0    0  0.36856600453E+03  0.41869284283E+03 -0.16049936454E+03  0.58588097673E+03  0.79698660887E+02 0.  0.
         24    2    4    4    0    0  0.92227962968E+03  0.18360580175E+04  0.10160052191E+04  0.22935325991E+04  0.79475900332E+02 0.  0.
         13    1    3    3    0    0 -0.68937097621E+03 -0.12647475459E+04 -0.64726063642E+03  0.15791659283E+04  0.00000000000E+00 0. -1.
        -13    1    3    3    0    0 -0.60147465800E+03 -0.99000331448E+03 -0.45264757920E+03  0.12436913435E+04  0.00000000000E+00 0.  1.
          4    1    6    6  502    0  0.43073682431E+03  0.84985342526E+03  0.42714349995E+03  0.10441439679E+04  0.00000000000E+00 0. -1.
          3    1    5    5  503    0  0.26818869655E+03  0.27295926270E+03 -0.14115944765E+03  0.40786998629E+03  0.00000000000E+00 0. -1.
         -4    1    5    5    0  503  0.10037730798E+03  0.14573358013E+03 -0.19339916890E+02  0.17801099045E+03  0.00000000000E+00 0.  1.
         -3    1    6    6    0  502  0.49154280537E+03  0.98620459229E+03  0.58886171918E+03  0.12493886312E+04  0.00000000000E+00 0.  1.
<mgrwt>
<rscale>  0 0.56970308E+04</rscale>
<asrwt>0</asrwt>
<pdfrwt beam="1">  1        1 0.45743640E+00 0.56970308E+04</pdfrwt>
<pdfrwt beam="2">  1       -1 0.41983604E+00 0.56970308E+04</pdfrwt>
<totfact> 0.22371597E-03</totfact>
</mgrwt>
</event>
<event>
12    1  0.1980523E-007  0.1237526E+04  0.7818608E-02  0.9080630E-01
         -2   -1    0    0    0  501 -0.00000000000E+00  0.00000000000E+00  0.43322502734E+03  0.43322502734E+03  0.00000000000E+00 0.  1.
          2   -1    0    0  501    0  0.00000000000E+00 -0.00000000000E+00 -0.88376095818E+03  0.88376095818E+03  0.00000000000E+00 0. -1.
         23    2    1    2    0    0 -0.16992461560E+02 -0.12507526293E+03 -0.37418979186E+03  0.40590446154E+03  0.93850234006E+02 0.  0.
        254    2    1    2    0    0  0.16992461560E+02  0.12507526293E+03 -0.76346138981E+02  0.91108152397E+03  0.89905964499E+03 0.  0.
        -24    2    4    4    0    0  0.17042306798E+03  0.38672153539E+03  0.21562848075E+03  0.48120607863E+03  0.80411941649E+02 0.  0.
         24    2    4    4    0    0 -0.15343060642E+03 -0.26164627246E+03 -0.29197461973E+03  0.42987544535E+03  0.86856186099E+02 0.  0.
         13    1    3    3    0    0 -0.21324597017E+02 -0.33556004328E+02 -0.30216037843E+02  0.49937488997E+02  0.00000000000E+00 0.  1.
        -13    1    3    3    0    0  0.43321354564E+01 -0.91519258600E+02 -0.34397375401E+03  0.35596697254E+03  0.00000000000E+00 0. -1.
          4    1    6    6  502    0  0.58756976876E+01 -0.37003612159E+00 -0.18696445418E+02  0.19601474978E+02  0.00000000000E+00 0. -1.
          3    1    5    5  503    0  0.15875846667E+03  0.27974441582E+03  0.14766137805E+03  0.35392805977E+03  0.00000000000E+00 0. -1.
         -4    1    5    5    0  503  0.11664601312E+02  0.10697711957E+03  0.67967102699E+02  0.12727801886E+03  0.00000000000E+00 0.  1.
         -3    1    6    6    0  502 -0.15930630411E+03 -0.26127623634E+03 -0.27327817432E+03  0.41027397037E+03  0.00000000000E+00 0.  1.
<mgrwt>
<rscale>  0 0.12375255E+04</rscale>
<asrwt>0</asrwt>
<pdfrwt beam="1">  1        2 0.13596322E+00 0.12375255E+04</pdfrwt>
<pdfrwt beam="2">  1       -2 0.66650005E-01 0.12375255E+04</pdfrwt>
<totfact> 0.61250789E+01</totfact>
</mgrwt>
</event>
<event>
12    1  0.1980523E-007  0.3343367E+04  0.7818608E-02  0.8151948E-01
          2   -1    0    0  501    0  0.00000000000E+00  0.00000000000E+00  0.15939971707E+04  0.15939971707E+04  0.00000000000E+00 0. -1.
         -2   -1    0    0    0  501 -0.00000000000E+00 -0.00000000000E+00 -0.17531558547E+04  0.17531558547E+04  0.00000000000E+00 0.  1.
         23    2    1    2    0    0  0.76859815776E+02 -0.98348322111E+03  0.11215566527E+04  0.14965402916E+04  0.92719154637E+02 0.  0.
        254    2    1    2    0    0 -0.76859815776E+02  0.98348322111E+03 -0.12807153367E+04  0.18506127338E+04  0.90077135787E+03 0.  0.
        -24    2    4    4    0    0 -0.46472431951E+03  0.35258727309E+03 -0.51532665730E+03  0.78264548923E+03  0.81767473992E+02 0.  0.
         24    2    4    4    0    0  0.38786450373E+03  0.63089594802E+03 -0.76538867942E+03  0.10679672445E+04  0.79155759904E+02 0.  0.
         11    1    3    3    0    0  0.63464593182E+02 -0.50951216822E+03  0.64317074422E+03  0.82298178010E+03  0.00000000000E+00 0. -1.
        -11    1    3    3    0    0  0.13395222593E+02 -0.47397105288E+03  0.47838590848E+03  0.67355851149E+03  0.00000000000E+00 0.  1.
          2    1    6    6  502    0  0.21705035350E+02  0.49238605774E+02 -0.86687582635E+02  0.10203080829E+03  0.00000000000E+00 0. -1.
          3    1    5    5  503    0 -0.17521152537E+02 -0.18041198424E+01 -0.23268556362E+02  0.29183408811E+02  0.00000000000E+00 0. -1.
         -4    1    5    5    0  503 -0.44720316697E+03  0.35439139293E+03 -0.49205810094E+03  0.75346208042E+03  0.00000000000E+00 0.  1.
         -1    1    6    6    0  502  0.36615946838E+03  0.58165734224E+03 -0.67870109679E+03  0.96593643624E+03  0.00000000000E+00 0.  1.
<mgrwt>
<rscale>  0 0.33433668E+04</rscale>
<asrwt>0</asrwt>
<pdfrwt beam="1">  1        2 0.24523033E+00 0.33433668E+04</pdfrwt>
<pdfrwt beam="2">  1       -2 0.26971629E+00 0.33433668E+04</pdfrwt>
<totfact> 0.45514531E-01</totfact>
</mgrwt>
</event>
<event>
12    1  0.1980523E-007  0.1798832E+04  0.7818608E-02  0.8706921E-01
         -2   -1    0    0    0  501 -0.00000000000E+00  0.00000000000E+00  0.29641169518E+03  0.29641169518E+03  0.00000000000E+00 0.  1.
          2   -1    0    0  501    0  0.00000000000E+00 -0.00000000000E+00 -0.27291402716E+04  0.27291402716E+04  0.00000000000E+00 0. -1.
         23    2    1    2    0    0  0.26666921320E+03  0.52528372612E+03 -0.14345946316E+04  0.15533224139E+04  0.87825408708E+02 0.  0.
        254    2    1    2    0    0 -0.26666921320E+03 -0.52528372612E+03 -0.99813394486E+03  0.14722295529E+04  0.90782874062E+03 0.  0.
        -24    2    4    4    0    0 -0.82332824219E+02 -0.37320703081E+03 -0.11245298104E+04  0.11903898453E+04  0.79990671928E+02 0.  0.
         24    2    4    4    0    0 -0.18433638898E+03 -0.15207669531E+03  0.12639586555E+03  0.28183970755E+03  0.79689901275E+02 0.  0.
         11    1    3    3    0    0  0.12107647099E+03  0.24181693422E+03 -0.54576198893E+03  0.60909037922E+03  0.00000000000E+00 0.  1.
        -11    1    3    3    0    0  0.14559274221E+03  0.28346679190E+03 -0.88883264266E+03  0.94423203469E+03  0.00000000000E+00 0. -1.
          2    1    6    6  502    0 -0.36492124884E+02  0.41696891651E+01  0.16082222160E+02  0.40096126445E+02  0.00000000000E+00 0. -1.
          1    1    5    5  503    0 -0.36934958497E+02 -0.77187697455E+02 -0.17588436566E+03  0.19559509677E+03  0.00000000000E+00 0. -1.
         -2    1    5    5    0  503 -0.45397865722E+02 -0.29601933335E+03 -0.94864544474E+03  0.99479474856E+03  0.00000000000E+00 0.  1.
         -1    1    6    6    0  502 -0.14784426409E+03 -0.15624638447E+03  0.11031364339E+03  0.24174358110E+03  0.00000000000E+00 0.  1.
<mgrwt>
<rscale>  0 0.17988319E+04</rscale>
<asrwt>0</asrwt>
<pdfrwt beam="1">  1        2 0.41986772E+00 0.17988319E+04</pdfrwt>
<pdfrwt beam="2">  1       -2 0.45601801E-01 0.17988319E+04</pdfrwt>
<totfact> 0.11008216E+01</totfact>
</mgrwt>
</event>
<event>
12    1  0.1980523E-007  0.2223174E+04  0.7818608E-02  0.8508844E-01
          1   -1    0    0  501    0  0.00000000000E+00  0.00000000000E+00  0.18716464166E+04  0.18716464166E+04  0.00000000000E+00 0. -1.
         -1   -1    0    0    0  501 -0.00000000000E+00 -0.00000000000E+00 -0.66018110620E+03  0.66018110620E+03  0.00000000000E+00 0.  1.
         23    2    1    2    0    0 -0.59585392084E+03  0.70954558285E+03  0.46169502732E+03  0.10392297367E+04  0.91319868244E+02 0.  0.
        254    2    1    2    0    0  0.59585392084E+03 -0.70954558285E+03  0.74977028311E+03  0.14925977861E+04  0.89844078519E+03 0.  0.
        -24    2    4    4    0    0  0.51524280565E+03  0.48660963526E+02  0.33150196134E+03  0.61961400157E+03  0.78644277776E+02 0.  0.
         24    2    4    4    0    0  0.80611115199E+02 -0.75820654637E+03  0.41826832177E+03  0.87298378452E+03  0.76006448358E+02 0.  0.
         11    1    3    3    0    0 -0.48825968751E+03  0.52620212393E+03  0.37200777750E+03  0.80850230934E+03  0.00000000000E+00 0. -1.
        -11    1    3    3    0    0 -0.10759423333E+03  0.18334345892E+03  0.89687249816E+02  0.23072742740E+03  0.00000000000E+00 0.  1.
          2    1    6    6  502    0  0.84021359046E+02 -0.60030960450E+03  0.30453622562E+03  0.67836090892E+03  0.00000000000E+00 0. -1.
          3    1    5    5  503    0  0.48008549429E+03  0.41956096615E+02  0.32945175584E+03  0.58376438337E+03  0.00000000000E+00 0. -1.
         -4    1    5    5    0  503  0.35157311357E+02  0.67048669115E+01  0.20502055004E+01  0.35849618196E+02  0.00000000000E+00 0.  1.
         -1    1    6    6    0  502 -0.34102438472E+01 -0.15789694187E+03  0.11373209614E+03  0.19462287560E+03  0.00000000000E+00 0.  1.
<mgrwt>
<rscale>  0 0.22231739E+04</rscale>
<asrwt>0</asrwt>
<pdfrwt beam="1">  1        1 0.28794560E+00 0.22231739E+04</pdfrwt>
<pdfrwt beam="2">  1       -1 0.10156632E+00 0.22231739E+04</pdfrwt>
<totfact> 0.30470217E+00</totfact>
</mgrwt>
</event>
<event>
12    1  0.1980523E-007  0.3876505E+04  0.7818608E-02  0.8029933E-01
         -1   -1    0    0    0  501 -0.00000000000E+00  0.00000000000E+00  0.17896183043E+04  0.17896183043E+04  0.00000000000E+00 0.  1.
          1   -1    0    0  501    0  0.00000000000E+00 -0.00000000000E+00 -0.20992315888E+04  0.20992315888E+04  0.00000000000E+00 0. -1.
         23    2    1    2    0    0 -0.21231303456E+03 -0.17846872962E+04  0.21667866970E+03  0.18112239618E+04  0.58283996932E+02 0.  0.
        254    2    1    2    0    0  0.21231303456E+03  0.17846872962E+04 -0.52629195423E+03  0.20776259313E+04  0.89964477398E+03 0.  0.
        -24    2    4    4    0    0  0.14400824586E+03  0.17164095988E+04 -0.70231617012E+03  0.18618193011E+04  0.79516170490E+02 0.  0.
         24    2    4    4    0    0  0.68304788703E+02  0.68277697413E+02  0.17602421589E+03  0.21580663019E+03  0.79123883446E+02 0.  0.
         13    1    3    3    0    0 -0.10318339473E+03 -0.10033104991E+04  0.97338832920E+02  0.10132885171E+04  0.00000000000E+00 0.  1.
        -13    1    3    3    0    0 -0.10912963983E+03 -0.78137679711E+03  0.11933983678E+03  0.79793544475E+03  0.00000000000E+00 0. -1.
          4    1    6    6  502    0  0.69405129508E+01  0.61410550202E+02  0.72501478123E+02  0.95267469402E+02  0.00000000000E+00 0. -1.
          1    1    5    5  503    0  0.10636322131E+02  0.55923074833E+02 -0.37813399996E+02  0.68340140960E+02  0.00000000000E+00 0. -1.
         -2    1    5    5    0  503  0.13337192373E+03  0.16604865239E+04 -0.66450277013E+03  0.17934791601E+04  0.00000000000E+00 0.  1.
         -3    1    6    6    0  502  0.61364275752E+02  0.68671472106E+01  0.10352273777E+03  0.12053916079E+03  0.00000000000E+00 0.  1.
<mgrwt>
<rscale>  0 0.38765053E+04</rscale>
<asrwt>0</asrwt>
<pdfrwt beam="1">  1        1 0.32295870E+00 0.38765053E+04</pdfrwt>
<pdfrwt beam="2">  1       -1 0.27532589E+00 0.38765053E+04</pdfrwt>
<totfact> 0.96269618E-02</totfact>
</mgrwt>
</event>
<event>
12    1  0.1980523E-007  0.1337392E+04  0.7818608E-02  0.9000428E-01
         -1   -1    0    0    0  501 -0.00000000000E+00  0.00000000000E+00  0.20556819590E+03  0.20556819590E+03  0.00000000000E+00 0.  1.
          1   -1    0    0  501    0  0.00000000000E+00 -0.00000000000E+00 -0.21752112100E+04  0.21752112100E+04  0.00000000000E+00 0. -1.
         23    2    1    2    0    0 -0.20744444944E+03  0.27736865624E+03 -0.67722162441E+03  0.76616592391E+03  0.91730710918E+02 0.  0.
        254    2    1    2    0    0  0.20744444944E+03 -0.27736865624E+03 -0.12924213896E+04  0.16146134819E+04  0.90369080808E+03 0.  0.
        -24    2    4    4    0    0  0.31279260925E+03 -0.55149633747E+03 -0.69518959041E+03  0.94433746959E+03  0.80605602827E+02 0.  0.
         24    2    4    4    0    0 -0.10534815981E+03  0.27412768123E+03 -0.59723179923E+03  0.67027601236E+03  0.79623428358E+02 0.  0.
         11    1    3    3    0    0 -0.49978968191E+02  0.52885971509E+02 -0.75213629957E+02  0.10465138974E+03  0.00000000000E+00 0.  1.
        -11    1    3    3    0    0 -0.15746548125E+03  0.22448268473E+03 -0.60200799445E+03  0.66151453417E+03  0.00000000000E+00 0. -1.
          4    1    6    6  502    0 -0.11160100013E+03  0.20335621160E+03 -0.43000218046E+03  0.48857999061E+03  0.00000000000E+00 0. -1.
          1    1    5    5  503    0  0.39517906899E+02 -0.50211961356E+02 -0.10696996964E+03  0.12460128584E+03  0.00000000000E+00 0. -1.
         -4    1    5    5    0  503  0.27327470235E+03 -0.50128437611E+03 -0.58821962077E+03  0.81973618374E+03  0.00000000000E+00 0.  1.
         -3    1    6    6    0  502  0.62528403181E+01  0.70771469633E+02 -0.16722961877E+03  0.18169602175E+03  0.00000000000E+00 0.  1.
<mgrwt>
<rscale>  0 0.13373919E+04</rscale>
<asrwt>0</asrwt>
<pdfrwt beam="1">  1        1 0.33464787E+00 0.13373919E+04</pdfrwt>
<pdfrwt beam="2">  1       -1 0.31625877E-01 0.13373919E+04</pdfrwt>
<totfact> 0.20672441E+01</totfact>
</mgrwt>
</event>
<event>
12    1  0.1980523E-007  0.1951951E+04  0.7818608E-02  0.8629420E-01
          1   -1    0    0  501    0  0.00000000000E+00  0.00000000000E+00  0.14498232651E+04  0.14498232651E+04  0.00000000000E+00 0. -1.
         -1   -1    0    0    0  501 -0.00000000000E+00 -0.00000000000E+00 -0.65699620077E+03  0.65699620077E+03  0.00000000000E+00 0.  1.
         23    2    1    2    0    0 -0.40104818118E+03 -0.35053904570E+03 -0.28015303784E+03  0.60877783982E+03  0.91692243185E+02 0.  0.
        254    2    1    2    0    0  0.40104818118E+03  0.35053904570E+03  0.10729801022E+04  0.14980416260E+04  0.89951383954E+03 0.  0.
        -24    2    4    4    0    0  0.37614443246E+03  0.46680625769E+03  0.23820115375E+03  0.65027653981E+03  0.82018731314E+02 0.  0.
         24    2    4    4    0    0  0.24903748719E+02 -0.11626721199E+03  0.83477894841E+03  0.84776508622E+03  0.87815075171E+02 0.  0.
         13    1    3    3    0    0 -0.28227028572E+03 -0.23775479534E+03 -0.14536504354E+03  0.39665457616E+03  0.00000000000E+00 0. -1.
        -13    1    3    3    0    0 -0.11877789547E+03 -0.11278425036E+03 -0.13478799429E+03  0.21212326366E+03  0.00000000000E+00 0.  1.
          4    1    6    6  502    0 -0.15637541250E+02  0.41188298472E+00  0.32915249856E+02  0.36443326097E+02  0.00000000000E+00 0. -1.
          1    1    5    5  503    0  0.51058662170E+02  0.87343682064E+02  0.70101224363E+02  0.12308569144E+03  0.00000000000E+00 0. -1.
         -2    1    5    5    0  503  0.32508577029E+03  0.37946257563E+03  0.16809992938E+03  0.52719084837E+03  0.00000000000E+00 0.  1.
         -3    1    6    6    0  502  0.40541289968E+02 -0.11667909498E+03  0.80186369855E+03  0.81132176013E+03  0.00000000000E+00 0.  1.
<mgrwt>
<rscale>  0 0.19519512E+04</rscale>
<asrwt>0</asrwt>
<pdfrwt beam="1">  1        1 0.22304973E+00 0.19519512E+04</pdfrwt>
<pdfrwt beam="2">  1       -1 0.10107634E+00 0.19519512E+04</pdfrwt>
<totfact> 0.61410076E+00</totfact>
</mgrwt>
</event>
<event>
12    1  0.1980523E-007  0.2320639E+04  0.7818608E-02  0.8469828E-01
         -2   -1    0    0    0  501 -0.00000000000E+00  0.00000000000E+00  0.63251790944E+03  0.63251790944E+03  0.00000000000E+00 0.  1.
          2   -1    0    0  501    0  0.00000000000E+00 -0.00000000000E+00 -0.21285422822E+04  0.21285422822E+04  0.00000000000E+00 0. -1.
         23    2    1    2    0    0 -0.48459816181E+03 -0.59997461079E+03  0.89183243783E+02  0.78164641621E+03  0.90623159179E+02 0.  0.
        254    2    1    2    0    0  0.48459816181E+03  0.59997461079E+03 -0.15852076166E+04  0.19794137754E+04  0.90021708206E+03 0.  0.
        -24    2    4    4    0    0  0.23620096992E+02  0.63626429203E+03 -0.55932115720E+03  0.85114023700E+03  0.78799669158E+02 0.  0.
         24    2    4    4    0    0  0.46097806481E+03 -0.36289681240E+02 -0.10258864594E+04  0.11282735384E+04  0.82100139200E+02 0.  0.
         13    1    3    3    0    0 -0.19991130129E+03 -0.20653503454E+03 -0.24112155067E+01  0.28744923523E+03  0.00000000000E+00 0. -1.
        -13    1    3    3    0    0 -0.28468686052E+03 -0.39343957625E+03  0.91594459290E+02  0.49419718098E+03  0.00000000000E+00 0.  1.
          4    1    6    6  502    0  0.39254269222E+03 -0.33741779106E+01 -0.88692351212E+03  0.96991466978E+03  0.00000000000E+00 0. -1.
          3    1    5    5  503    0 -0.13879401178E+02  0.31202203997E+03 -0.23366145709E+03  0.39006162043E+03  0.00000000000E+00 0. -1.
         -4    1    5    5    0  503  0.37499498170E+02  0.32424225206E+03 -0.32565970011E+03  0.46107861658E+03  0.00000000000E+00 0.  1.
         -3    1    6    6    0  502  0.68435372593E+02 -0.32915503330E+02 -0.13896294723E+03  0.15835886866E+03  0.00000000000E+00 0.  1.
<mgrwt>
<rscale>  0 0.23206388E+04</rscale>
<asrwt>0</asrwt>
<pdfrwt beam="1">  1        2 0.32746804E+00 0.23206388E+04</pdfrwt>
<pdfrwt beam="2">  1       -2 0.97310448E-01 0.23206388E+04</pdfrwt>
<totfact> 0.45152063E+00</totfact>
</mgrwt>
</event>
<event>
12    1  0.1980523E-007  0.3239870E+04  0.7818608E-02  0.8178366E-01
         -2   -1    0    0    0  501 -0.00000000000E+00  0.00000000000E+00  0.15329448873E+04  0.15329448873E+04  0.00000000000E+00 0.  1.
          2   -1    0    0  501    0  0.00000000000E+00 -0.00000000000E+00 -0.17118619884E+04  0.17118619884E+04  0.00000000000E+00 0. -1.
         23    2    1    2    0    0 -0.90553262317E+03  0.25082272904E+03 -0.12454638114E+04  0.15628623904E+04  0.91963974748E+02 0.  0.
        254    2    1    2    0    0  0.90553262317E+03 -0.25082272904E+03  0.10665467104E+04  0.16819444853E+04  0.89917406175E+03 0.  0.
        -24    2    4    4    0    0  0.86241627171E+03  0.15077902246E+03  0.62967003096E+03  0.10814040758E+04  0.80338583673E+02 0.  0.
         24    2    4    4    0    0  0.43116351463E+02 -0.40160175150E+03  0.43687667940E+03  0.60054040950E+03  0.81514194205E+02 0.  0.
         13    1    3    3    0    0 -0.30885993389E+03  0.42629810540E+02 -0.43245503788E+03  0.53313142779E+03  0.00000000000E+00 0.  1.
        -13    1    3    3    0    0 -0.59667268928E+03  0.20819291850E+03 -0.81300877356E+03  0.10297309626E+04  0.00000000000E+00 0. -1.
          4    1    6    6  502    0  0.39006410558E+02 -0.21583562997E+03  0.18133484005E+03  0.28458538867E+03  0.00000000000E+00 0. -1.
          3    1    5    5  503    0  0.18095050635E+03  0.44558234297E+02  0.17257791025E+03  0.25399145084E+03  0.00000000000E+00 0. -1.
         -4    1    5    5    0  503  0.68146576536E+03  0.10622078816E+03  0.45709212070E+03  0.82741262500E+03  0.00000000000E+00 0.  1.
         -3    1    6    6    0  502  0.41099409047E+01 -0.18576612153E+03  0.25554183936E+03  0.31595502083E+03  0.00000000000E+00 0.  1.
<mgrwt>
<rscale>  0 0.32398704E+04</rscale>
<asrwt>0</asrwt>
<pdfrwt beam="1">  1        2 0.26336338E+00 0.32398704E+04</pdfrwt>
<pdfrwt beam="2">  1       -2 0.23583768E+00 0.32398704E+04</pdfrwt>
<totfact> 0.63737336E-01</totfact>
</mgrwt>
</event>
<event>
12    1  0.1980523E-007  0.3464378E+04  0.7818608E-02  0.8122284E-01
          2   -1    0    0  501    0  0.00000000000E+00  0.00000000000E+00  0.25651521156E+04  0.25651521156E+04  0.00000000000E+00 0. -1.
         -2   -1    0    0    0  501 -0.00000000000E+00 -0.00000000000E+00 -0.11697082016E+04  0.11697082016E+04  0.00000000000E+00 0.  1.
         23    2    1    2    0    0 -0.73062047133E+03  0.10396144972E+04 -0.42137360960E+03  0.13421030295E+04  0.95290330549E+02 0.  0.
        254    2    1    2    0    0  0.73062047133E+03 -0.10396144972E+04  0.18168175236E+04  0.23927572876E+04  0.89992052296E+03 0.  0.
        -24    2    4    4    0    0 -0.49904231957E+01 -0.50091922110E+03  0.22204787097E+03  0.55381775473E+03  0.80398246655E+02 0.  0.
         24    2    4    4    0    0  0.73561089453E+03 -0.53869527606E+03  0.15947696526E+04  0.18389395329E+04  0.84216222415E+02 0.  0.
         13    1    3    3    0    0 -0.13284423325E+03  0.21737307563E+03 -0.12138000826E+03  0.28219098271E+03  0.00000000000E+00 0. -1.
        -13    1    3    3    0    0 -0.59777623808E+03  0.82224142152E+03 -0.29999360134E+03  0.10599120468E+04  0.00000000000E+00 0.  1.
          2    1    6    6  502    0  0.12964831492E+03 -0.66291773342E+02  0.21518334930E+03  0.25982139749E+03  0.00000000000E+00 0. -1.
          3    1    5    5  503    0 -0.22705966460E+02 -0.46251928217E+02  0.32398666749E+02  0.60864401614E+02  0.00000000000E+00 0. -1.
         -4    1    5    5    0  503  0.17715543265E+02 -0.45466729288E+03  0.18964920422E+03  0.49295335312E+03  0.00000000000E+00 0.  1.
         -1    1    6    6    0  502  0.60596257960E+03 -0.47240350271E+03  0.13795863033E+04  0.15791181354E+04  0.00000000000E+00 0.  1.
<mgrwt>
<rscale>  0 0.34643784E+04</rscale>
<asrwt>0</asrwt>
<pdfrwt beam="1">  1        2 0.39463879E+00 0.34643784E+04</pdfrwt>
<pdfrwt beam="2">  1       -2 0.17995511E+00 0.34643784E+04</pdfrwt>
<totfact> 0.47691850E-01</totfact>
</mgrwt>
</event>
<event>
12    1  0.1980523E-007  0.2088975E+04  0.7818608E-02  0.8566116E-01
         -2   -1    0    0    0  501 -0.00000000000E+00  0.00000000000E+00  0.42176476919E+03  0.42176476919E+03  0.00000000000E+00 0.  1.
          2   -1    0    0  501    0  0.00000000000E+00 -0.00000000000E+00 -0.25866400557E+04  0.25866400557E+04  0.00000000000E+00 0. -1.
         23    2    1    2    0    0 -0.46038266319E+03 -0.29734007017E+03  0.46983825883E+02  0.55745292637E+03  0.90459777431E+02 0.  0.
        254    2    1    2    0    0  0.46038266319E+03  0.29734007017E+03 -0.22118591124E+04  0.24509518985E+04  0.90248610064E+03 0.  0.
        -24    2    4    4    0    0  0.67722176179E+03  0.37183597672E+03 -0.19209222856E+04  0.20719708257E+04  0.78926339423E+02 0.  0.
         24    2    4    4    0    0 -0.21683909860E+03 -0.74495906542E+02 -0.29093682677E+03  0.37898107278E+03  0.80084839899E+02 0.  0.
         11    1    3    3    0    0 -0.22298262878E+03 -0.10632116192E+03  0.53133467022E+02  0.25268282001E+03  0.00000000000E+00 0.  1.
        -11    1    3    3    0    0 -0.23740003440E+03 -0.19101890825E+03 -0.61496411386E+01  0.30477010636E+03  0.00000000000E+00 0. -1.
          4    1    6    6  502    0 -0.12483202144E+03 -0.28524183014E+02 -0.10140070221E+03  0.16333635542E+03  0.00000000000E+00 0. -1.
          3    1    5    5  503    0  0.33036357293E+03  0.13693826987E+03 -0.89911014342E+03  0.96762142911E+03  0.00000000000E+00 0. -1.
         -4    1    5    5    0  503  0.34685818886E+03  0.23489770685E+03 -0.10218121422E+04  0.11043493966E+04  0.00000000000E+00 0.  1.
         -3    1    6    6    0  502 -0.92007077164E+02 -0.45971723528E+02 -0.18953612457E+03  0.21564471737E+03  0.00000000000E+00 0.  1.
<mgrwt>
<rscale>  0 0.20889745E+04</rscale>
<asrwt>0</asrwt>
<pdfrwt beam="1">  1        2 0.39794463E+00 0.20889745E+04</pdfrwt>
<pdfrwt beam="2">  1       -2 0.64886887E-01 0.20889745E+04</pdfrwt>
<totfact> 0.62664588E+00</totfact>
</mgrwt>
</event>
<event>
12    1  0.1980523E-007  0.1892724E+04  0.7818608E-02  0.8658487E-01
          2   -1    0    0  501    0  0.00000000000E+00  0.00000000000E+00  0.17797712652E+04  0.17797712652E+04  0.00000000000E+00 0. -1.
         -2   -1    0    0    0  501 -0.00000000000E+00 -0.00000000000E+00 -0.50321105050E+03  0.50321105050E+03  0.00000000000E+00 0.  1.
         23    2    1    2    0    0 -0.60123176904E+03 -0.42837824695E+01  0.99021351868E+03  0.11609092688E+04  0.75428953422E+02 0.  0.
        254    2    1    2    0    0  0.60123176904E+03  0.42837824695E+01  0.28634669604E+03  0.11220730469E+04  0.90308111555E+03 0.  0.
        -24    2    4    4    0    0  0.37864927482E+03  0.15603071210E+02  0.60908717666E+03  0.72177875064E+03  0.79741124594E+02 0.  0.
         24    2    4    4    0    0  0.22258249422E+03 -0.11319288741E+02 -0.32274048062E+03  0.40029429623E+03  0.80018827344E+02 0.  0.
         11    1    3    3    0    0 -0.54159609991E+03  0.18575887270E+02  0.89424470025E+03  0.10456313801E+04  0.00000000000E+00 0. -1.
        -11    1    3    3    0    0 -0.59635669139E+02 -0.22859669740E+02  0.95968818433E+02  0.11527788880E+03  0.00000000000E+00 0.  1.
          4    1    6    6  502    0 -0.41470879781E+01 -0.89786389836E+01 -0.16726402794E+02  0.19431594045E+02  0.00000000000E+00 0. -1.
          3    1    5    5  503    0  0.21757758261E+02 -0.88239844954E+00  0.83260976482E+02  0.86061425019E+02  0.00000000000E+00 0. -1.
         -4    1    5    5    0  503  0.35689151656E+03  0.16485469660E+02  0.52582620017E+03  0.63571732562E+03  0.00000000000E+00 0.  1.
         -3    1    6    6    0  502  0.22672958220E+03 -0.23406497572E+01 -0.30601407783E+03  0.38086270218E+03  0.00000000000E+00 0.  1.
<mgrwt>
<rscale>  0 0.18927235E+04</rscale>
<asrwt>0</asrwt>
<pdfrwt beam="1">  1        2 0.27381096E+00 0.18927235E+04</pdfrwt>
<pdfrwt beam="2">  1       -2 0.77417085E-01 0.18927235E+04</pdfrwt>
<totfact> 0.12345439E+01</totfact>
</mgrwt>
</event>
<event>
12    1  0.1980523E-007  0.1773382E+04  0.7818608E-02  0.8720584E-01
         -2   -1    0    0    0  501 -0.00000000000E+00  0.00000000000E+00  0.22634682261E+03  0.22634682261E+03  0.00000000000E+00 0. -1.
          2   -1    0    0  501    0  0.00000000000E+00 -0.00000000000E+00 -0.34735244566E+04  0.34735244566E+04  0.00000000000E+00 0.  1.
         23    2    1    2    0    0 -0.20197465692E+03 -0.37140762123E+03 -0.22500898790E+04  0.22910098860E+04  0.84169180989E+02 0.  0.
        254    2    1    2    0    0  0.20197465692E+03  0.37140762123E+03 -0.99708775500E+03  0.14088613932E+04  0.90109325322E+03 0.  0.
        -24    2    4    4    0    0 -0.61166944671E+02  0.52770039878E+03 -0.94751280131E+03  0.10890407149E+04  0.77589072089E+02 0.  0.
         24    2    4    4    0    0  0.26314160159E+03 -0.15629277755E+03 -0.49574953684E+02  0.31982067830E+03  0.78464357741E+02 0.  0.
         11    1    3    3    0    0 -0.11044248424E+03 -0.26615838603E+03 -0.16452613236E+04  0.16703061551E+04  0.00000000000E+00 0.  1.
        -11    1    3    3    0    0 -0.91532172677E+02 -0.10524923519E+03 -0.60482855536E+03  0.62070373088E+03  0.00000000000E+00 0. -1.
          2    1    6    6  502    0  0.24001292407E+03 -0.14436964316E+03 -0.67645856678E+02  0.28814017337E+03  0.00000000000E+00 0. -1.
          3    1    5    5  503    0 -0.77212206663E+02  0.38565886461E+03 -0.71744454612E+03  0.81818161888E+03  0.00000000000E+00 0. -1.
         -4    1    5    5    0  503  0.16045261992E+02  0.14204153417E+03 -0.23006825519E+03  0.27085909604E+03  0.00000000000E+00 0.  1.
         -1    1    6    6    0  502  0.23128677523E+02 -0.11923134390E+02  0.18070902994E+02  0.31680504930E+02  0.00000000000E+00 0.  1.
<mgrwt>
<rscale>  0 0.17733823E+04</rscale>
<asrwt>0</asrwt>
<pdfrwt beam="1">  1        2 0.53438838E+00 0.17733823E+04</pdfrwt>
<pdfrwt beam="2">  1       -2 0.34822588E-01 0.17733823E+04</pdfrwt>
<totfact> 0.62608887E+00</totfact>
</mgrwt>
</event>
<event>
12    1  0.1980523E-007  0.3211303E+04  0.7818608E-02  0.8185839E-01
         -1   -1    0    0    0  501 -0.00000000000E+00  0.00000000000E+00  0.11290141702E+04  0.11290141702E+04  0.00000000000E+00 0.  1.
          1   -1    0    0  501    0  0.00000000000E+00 -0.00000000000E+00 -0.22835109815E+04  0.22835109815E+04  0.00000000000E+00 0. -1.
         23    2    1    2    0    0  0.71769842382E+03 -0.12424293843E+04 -0.90799674985E+03  0.17004219769E+04  0.90857026221E+02 0.  0.
        254    2    1    2    0    0 -0.71769842382E+03  0.12424293843E+04 -0.24650006146E+03  0.17121031749E+04  0.90100676942E+03 0.  0.
        -24    2    4    4    0    0 -0.79051727308E+03  0.92804924016E+03 -0.47435294078E+03  0.13106481120E+04  0.81208433830E+02 0.  0.
         24    2    4    4    0    0  0.72818849263E+02  0.31438014416E+03  0.22785287932E+03  0.40145506293E+03  0.71496664855E+02 0.  0.
         11    1    3    3    0    0  0.13015005211E+03 -0.16423300491E+03 -0.12117936703E+03  0.24206601364E+03  0.00000000000E+00 0. -1.
        -11    1    3    3    0    0  0.58754837172E+03 -0.10781963794E+04 -0.78681738282E+03  0.14583559633E+04  0.00000000000E+00 0.  1.
          2    1    6    6  502    0  0.57608236416E+02  0.11016180837E+03  0.68224886779E+02  0.14180609332E+03  0.00000000000E+00 0. -1.
          3    1    5    5  503    0 -0.34266864582E+02  0.28242480696E+02 -0.32130092242E+02  0.54810569707E+02  0.00000000000E+00 0. -1.
         -4    1    5    5    0  503 -0.75625040850E+03  0.89980675947E+03 -0.44222284854E+03  0.12558375422E+04  0.00000000000E+00 0.  1.
         -1    1    6    6    0  502  0.15210612847E+02  0.20421833579E+03  0.15962799254E+03  0.25964896961E+03  0.00000000000E+00 0.  1.
<mgrwt>
<rscale>  0 0.32113027E+04</rscale>
<asrwt>0</asrwt>
<pdfrwt beam="1">  1        1 0.35130938E+00 0.32113027E+04</pdfrwt>
<pdfrwt beam="2">  1       -1 0.17369449E+00 0.32113027E+04</pdfrwt>
<totfact> 0.36910043E-01</totfact>
</mgrwt>
</event>
<event>
12    1  0.2538664E-007  0.2683908E+04  0.7818608E-02  0.8340245E-01
          1   -1    0    0  501    0  0.00000000000E+00  0.00000000000E+00  0.11129226375E+04  0.11129226375E+04  0.00000000000E+00 0. -1.
         -1   -1    0    0    0  501 -0.00000000000E+00 -0.00000000000E+00 -0.16181178425E+04  0.16181178425E+04  0.00000000000E+00 0.  1.
         23    2    1    2    0    0  0.74615749471E+03  0.86056059890E+03 -0.54936183173E+03  0.12673683391E+04  0.84312119530E+02 0.  0.
        254    2    1    2    0    0 -0.74615749471E+03 -0.86056059890E+03  0.44166626751E+02  0.14636721408E+04  0.91818837590E+03 0.  0.
        -24    2    4    4    0    0 -0.86760662403E+02 -0.54365575773E+03 -0.32010016311E+03  0.64192024485E+03  0.80675218425E+02 0.  0.
         24    2    4    4    0    0 -0.65939683230E+03 -0.31690484116E+03  0.36426678987E+03  0.82175189598E+03  0.85749772800E+02 0.  0.
         11    1    3    3    0    0  0.29796071624E+03  0.40453833197E+03 -0.22770369309E+03  0.55161655369E+03  0.00000000000E+00 0. -1.
        -11    1    3    3    0    0  0.44819677847E+03  0.45602226692E+03 -0.32165813864E+03  0.71575178541E+03  0.00000000000E+00 0.  1.
          4    1    6    6  502    0 -0.75776150925E+02 -0.98752512145E+01  0.49312707394E+02  0.90946625809E+02  0.00000000000E+00 0. -1.
          3    1    5    5  503    0 -0.60700138358E+02 -0.23899422242E+03 -0.10467187757E+03  0.26787860515E+03  0.00000000000E+00 0. -1.
         -4    1    5    5    0  503 -0.26060524044E+02 -0.30466153532E+03 -0.21542828555E+03  0.37404163970E+03  0.00000000000E+00 0.  1.
         -3    1    6    6    0  502 -0.58362068138E+03 -0.30702958995E+03  0.31495408247E+03  0.73080527017E+03  0.00000000000E+00 0.  1.
<mgrwt>
<rscale>  0 0.26839076E+04</rscale>
<asrwt>0</asrwt>
<pdfrwt beam="1">  1        1 0.17121887E+00 0.26839076E+04</pdfrwt>
<pdfrwt beam="2">  1       -1 0.24894121E+00 0.26839076E+04</pdfrwt>
<totfact> 0.76788404E-01</totfact>
</mgrwt>
</event>
<event>
12    1  0.1980523E-007  0.1516480E+04  0.7818608E-02  0.8873567E-01
         -2   -1    0    0    0  501 -0.00000000000E+00  0.00000000000E+00  0.51038790182E+03  0.51038790182E+03  0.00000000000E+00 0.  1.
          2   -1    0    0  501    0  0.00000000000E+00 -0.00000000000E+00 -0.11264528239E+04  0.11264528239E+04  0.00000000000E+00 0. -1.
         23    2    1    2    0    0 -0.62005638410E+02 -0.45102217331E+03 -0.17575136250E+02  0.46496535510E+03  0.92834239482E+02 0.  0.
        254    2    1    2    0    0  0.62005638410E+02  0.45102217331E+03 -0.59848978580E+03  0.11718753706E+04  0.89879706300E+03 0.  0.
        -24    2    4    4    0    0  0.29108831987E+03  0.55505740741E+03 -0.64665158526E+03  0.90376516618E+03  0.76236916204E+02 0.  0.
         24    2    4    4    0    0 -0.22908268146E+03 -0.10403523410E+03  0.48161799464E+02  0.26811020440E+03  0.79128489798E+02 0.  0.
         11    1    3    3    0    0 -0.66659459677E+02 -0.17811803168E+03  0.11178980884E+02  0.19051111881E+03  0.00000000000E+00 0. -1.
        -11    1    3    3    0    0  0.46538212664E+01 -0.27290414162E+03 -0.28754117134E+02  0.27445423630E+03  0.00000000000E+00 0.  1.
          4    1    6    6  502    0 -0.23016647848E+03 -0.86776981271E+02  0.48930782124E+02  0.25080086469E+03  0.00000000000E+00 0. -1.
          3    1    5    5  503    0  0.17425918502E+03  0.34389366344E+03 -0.44919727936E+03  0.59195211893E+03  0.00000000000E+00 0. -1.
         -4    1    5    5    0  503  0.11682913485E+03  0.21116374397E+03 -0.19745430590E+03  0.31181304725E+03  0.00000000000E+00 0.  1.
         -3    1    6    6    0  502  0.10837970163E+01 -0.17258252832E+02 -0.76898266035E+00  0.17309339708E+02  0.00000000000E+00 0.  1.
<mgrwt>
<rscale>  0 0.15164800E+04</rscale>
<asrwt>0</asrwt>
<pdfrwt beam="1">  1        2 0.17330043E+00 0.15164800E+04</pdfrwt>
<pdfrwt beam="2">  1       -2 0.78521216E-01 0.15164800E+04</pdfrwt>
<totfact> 0.29195522E+01</totfact>
</mgrwt>
</event>
<event>
12    1  0.1980523E-007  0.1377786E+04  0.7818608E-02  0.8970057E-01
          2   -1    0    0  501    0  0.00000000000E+00  0.00000000000E+00  0.72407675686E+03  0.72407675686E+03  0.00000000000E+00 0. -1.
         -2   -1    0    0    0  501 -0.00000000000E+00 -0.00000000000E+00 -0.65541889868E+03  0.65541889868E+03  0.00000000000E+00 0.  1.
         23    2    1    2    0    0  0.57137738891E+01 -0.20948897988E+02  0.40677249655E+03  0.41728129536E+03  0.90489292015E+02 0.  0.
        254    2    1    2    0    0 -0.57137738891E+01  0.20948897988E+02 -0.33811463837E+03  0.96221436018E+03  0.90059061882E+03 0.  0.
        -24    2    4    4    0    0  0.22185438763E+03 -0.99884512745E+02  0.22199321042E+03  0.33971903907E+03  0.83257160874E+02 0.  0.
         24    2    4    4    0    0 -0.22756816152E+03  0.12083341073E+03 -0.56010784880E+03  0.62249532111E+03  0.85974654588E+02 0.  0.
         11    1    3    3    0    0  0.22758783668E+02  0.88613869734E+01  0.35056171546E+03  0.35141144370E+03  0.00000000000E+00 0. -1.
        -11    1    3    3    0    0 -0.17045009779E+02 -0.29810284962E+02  0.56210781094E+02  0.65869851670E+02  0.00000000000E+00 0.  1.
          2    1    6    6  502    0 -0.17250695499E+03  0.11495215332E+03 -0.49722107038E+03  0.53870348050E+03  0.00000000000E+00 0. -1.
          1    1    5    5  503    0  0.17439171157E+03 -0.83192807557E+02  0.21476517208E+03  0.28889027577E+03  0.00000000000E+00 0. -1.
         -2    1    5    5    0  503  0.47462676056E+02 -0.16691705189E+02  0.72280383403E+01  0.50828763301E+02  0.00000000000E+00 0.  1.
         -1    1    6    6    0  502 -0.55061206526E+02  0.58812574149E+01 -0.62886778420E+02  0.83791840610E+02  0.00000000000E+00 0.  1.
<mgrwt>
<rscale>  0 0.13777860E+04</rscale>
<asrwt>0</asrwt>
<pdfrwt beam="1">  1        2 0.11139643E+00 0.13777860E+04</pdfrwt>
<pdfrwt beam="2">  1       -2 0.10083368E+00 0.13777860E+04</pdfrwt>
<totfact> 0.30988703E+01</totfact>
</mgrwt>
</event>
<event>
12    1  0.1980523E-007  0.1516905E+04  0.7818608E-02  0.8873288E-01
          1   -1    0    0  501    0  0.00000000000E+00  0.00000000000E+00  0.17408974858E+04  0.17408974858E+04  0.00000000000E+00 0. -1.
         -1   -1    0    0    0  501 -0.00000000000E+00 -0.00000000000E+00 -0.33043315621E+03  0.33043315621E+03  0.00000000000E+00 0.  1.
         23    2    1    2    0    0 -0.93440135066E+02  0.66996242962E+02  0.11029769620E+04  0.11127747329E+04  0.92140501701E+02 0.  0.
        254    2    1    2    0    0  0.93440135066E+02 -0.66996242962E+02  0.30748736758E+03  0.95855590910E+03  0.90058947042E+03 0.  0.
        -24    2    4    4    0    0  0.41489142309E+03 -0.18829492689E+03 -0.38776424765E+02  0.46429341810E+03  0.80466729335E+02 0.  0.
         24    2    4    4    0    0 -0.32145128802E+03  0.12129868393E+03  0.34626379235E+03  0.49426249100E+03  0.79702539645E+02 0.  0.
         13    1    3    3    0    0 -0.36601112187E+02  0.79492703216E+02  0.57911503243E+03  0.58569015022E+03  0.00000000000E+00 0.  1.
        -13    1    3    3    0    0 -0.56839022879E+02 -0.12496460254E+02  0.52386192961E+03  0.52708458271E+03  0.00000000000E+00 0. -1.
          4    1    6    6  502    0 -0.16360930388E+03  0.69739560016E+02  0.12396123157E+03  0.21679021537E+03  0.00000000000E+00 0. -1.
          3    1    5    5  503    0  0.24806322047E+03 -0.13701858029E+03  0.83502966787E+01  0.28351222222E+03  0.00000000000E+00 0. -1.
         -4    1    5    5    0  503  0.16682820262E+03 -0.51276346599E+02 -0.47126721444E+02  0.18078119588E+03  0.00000000000E+00 0.  1.
         -3    1    6    6    0  502 -0.15784198414E+03  0.51559123910E+02  0.22230256077E+03  0.27747227563E+03  0.00000000000E+00 0.  1.
<mgrwt>
<rscale>  0 0.15169051E+04</rscale>
<asrwt>0</asrwt>
<pdfrwt beam="1">  1        1 0.26783038E+00 0.15169051E+04</pdfrwt>
<pdfrwt beam="2">  1       -1 0.50835871E-01 0.15169051E+04</pdfrwt>
<totfact> 0.16791960E+01</totfact>
</mgrwt>
</event>
<event>
12    1  0.1980523E-007  0.3098483E+04  0.7818608E-02  0.8216154E-01
         -2   -1    0    0    0  501 -0.00000000000E+00  0.00000000000E+00  0.10260679216E+04  0.10260679216E+04  0.00000000000E+00 0.  1.
          2   -1    0    0  501    0  0.00000000000E+00 -0.00000000000E+00 -0.23391722203E+04  0.23391722203E+04  0.00000000000E+00 0. -1.
         23    2    1    2    0    0 -0.42612098261E+03 -0.10065760755E+04 -0.15795940267E+04  0.19230965015E+04  0.91697204609E+02 0.  0.
        254    2    1    2    0    0  0.42612098261E+03  0.10065760755E+04  0.26648972802E+03  0.14421436404E+04  0.90221229033E+03 0.  0.
        -24    2    4    4    0    0  0.53253928766E+03  0.11194339562E+04  0.26336004202E+03  0.12698353065E+04  0.79954478770E+02 0.  0.
         24    2    4    4    0    0 -0.10641830504E+03 -0.11285788069E+03  0.31296860014E+01  0.17230833393E+03  0.74957388734E+02 0.  0.
         13    1    3    3    0    0 -0.26589138742E+02 -0.13173141249E+03 -0.21782623225E+03  0.25594611697E+03  0.00000000000E+00 0. -1.
        -13    1    3    3    0    0 -0.39953184387E+03 -0.87484466302E+03 -0.13617677945E+04  0.16671503846E+04  0.00000000000E+00 0.  1.
          2    1    6    6  502    0 -0.10149187228E+03 -0.12313318522E+03 -0.25203650727E+01  0.15958926556E+03  0.00000000000E+00 0. -1.
          1    1    5    5  503    0  0.52903496247E+03  0.10913215032E+04  0.26519350086E+03  0.12414460148E+04  0.00000000000E+00 0. -1.
         -2    1    5    5    0  503  0.35043251868E+01  0.28112453018E+02 -0.18334588463E+01  0.28389291662E+02  0.00000000000E+00 0.  1.
         -3    1    6    6    0  502 -0.49264327620E+01  0.10275304535E+02  0.56500510741E+01  0.12719068369E+02  0.00000000000E+00 0.  1.
<mgrwt>
<rscale>  0 0.30984832E+04</rscale>
<asrwt>0</asrwt>
<pdfrwt beam="1">  1        2 0.35987264E+00 0.30984832E+04</pdfrwt>
<pdfrwt beam="2">  1       -2 0.15785661E+00 0.30984832E+04</pdfrwt>
<totfact> 0.95551058E-01</totfact>
</mgrwt>
</event>
<event>
12    1  0.1980523E-007  0.1050387E+04  0.7818608E-02  0.9254945E-01
         -2   -1    0    0    0  501 -0.00000000000E+00  0.00000000000E+00  0.85541070090E+02  0.85541070090E+02  0.00000000000E+00 0. -1.
          2   -1    0    0  501    0  0.00000000000E+00 -0.00000000000E+00 -0.32245106292E+04  0.32245106292E+04  0.00000000000E+00 0.  1.
         23    2    1    2    0    0 -0.85332525427E+02 -0.82941189899E+02 -0.39609780621E+03  0.42301499638E+03  0.88810664917E+02 0.  0.
        254    2    1    2    0    0  0.85332525427E+02  0.82941189899E+02 -0.27428717529E+04  0.28870367029E+04  0.89301432810E+03 0.  0.
        -24    2    4    4    0    0 -0.20194661894E+03  0.24056762514E+03 -0.23357919233E+04  0.23581385857E+04  0.78983928143E+02 0.  0.
         24    2    4    4    0    0  0.28727914437E+03 -0.15762643524E+03 -0.40707982953E+03  0.52889811721E+03  0.81509698226E+02 0.  0.
         11    1    3    3    0    0 -0.42026029923E+02  0.11172150769E+02 -0.92116887898E+02  0.10186523048E+03  0.00000000000E+00 0. -1.
        -11    1    3    3    0    0 -0.43306495505E+02 -0.94113340667E+02 -0.30398091831E+03  0.32114976591E+03  0.00000000000E+00 0.  1.
          4    1    6    6  502    0  0.13779585173E+02 -0.80655076936E+01  0.26053814149E+00  0.15968633693E+02  0.00000000000E+00 0. -1.
          3    1    5    5  503    0 -0.28298585599E+02  0.26322134736E+01 -0.26059488141E+03  0.26214009749E+03  0.00000000000E+00 0. -1.
         -4    1    5    5    0  503 -0.17364803334E+03  0.23793541167E+03 -0.20751970419E+04  0.20959984882E+04  0.00000000000E+00 0.  1.
         -3    1    6    6    0  502  0.27349955919E+03 -0.14956092755E+03 -0.40734036767E+03  0.51292948352E+03  0.00000000000E+00 0.  1.
<mgrwt>
<rscale>  0 0.10503868E+04</rscale>
<asrwt>0</asrwt>
<pdfrwt beam="1">  1        2 0.49607853E+00 0.10503868E+04</pdfrwt>
<pdfrwt beam="2">  1       -2 0.13160166E-01 0.10503868E+04</pdfrwt>
<totfact> 0.55954945E+01</totfact>
</mgrwt>
</event>
<event>
12    1  0.1980523E-007  0.2219131E+04  0.7818608E-02  0.8510507E-01
          2   -1    0    0  501    0  0.00000000000E+00  0.00000000000E+00  0.18707709674E+04  0.18707709674E+04  0.00000000000E+00 0. -1.
         -2   -1    0    0    0  501 -0.00000000000E+00 -0.00000000000E+00 -0.65809008342E+03  0.65809008342E+03  0.00000000000E+00 0.  1.
         23    2    1    2    0    0  0.36211032685E+03 -0.34255613640E+03  0.13954917366E+04  0.14845792128E+04  0.90053632404E+02 0.  0.
        254    2    1    2    0    0 -0.36211032685E+03  0.34255613640E+03 -0.18281085270E+03  0.10442818380E+04  0.89924198848E+03 0.  0.
        -24    2    4    4    0    0 -0.50961414745E+03  0.21194331164E+02 -0.37118368141E+03  0.63567965459E+03  0.78457115403E+02 0.  0.
         24    2    4    4    0    0  0.14750382060E+03  0.32136180524E+03  0.18837282872E+03  0.40860218337E+03  0.80253565042E+02 0.  0.
         11    1    3    3    0    0  0.21470932727E+03 -0.17349007350E+03  0.88327273454E+03  0.92540241214E+03  0.00000000000E+00 0. -1.
        -11    1    3    3    0    0  0.14740099959E+03 -0.16906606290E+03  0.51221900210E+03  0.55917680068E+03  0.00000000000E+00 0.  1.
          4    1    6    6  502    0  0.65079770628E+01  0.53551785676E+02  0.37462012235E+01  0.54075701920E+02  0.00000000000E+00 0. -1.
          3    1    5    5  503    0 -0.21775419453E+03  0.46897110096E+02 -0.14930963730E+03  0.26815964641E+03  0.00000000000E+00 0. -1.
         -4    1    5    5    0  503 -0.29185995292E+03 -0.25702778932E+02 -0.22187404411E+03  0.36752000818E+03  0.00000000000E+00 0.  1.
         -3    1    6    6    0  502  0.14099584354E+03  0.26781001956E+03  0.18462662750E+03  0.35452648145E+03  0.00000000000E+00 0.  1.
<mgrwt>
<rscale>  0 0.22191312E+04</rscale>
<asrwt>0</asrwt>
<pdfrwt beam="1">  1        2 0.28781092E+00 0.22191312E+04</pdfrwt>
<pdfrwt beam="2">  1       -2 0.10124463E+00 0.22191312E+04</pdfrwt>
<totfact> 0.57695230E+00</totfact>
</mgrwt>
</event>
<event>
12    1  0.1980523E-007  0.3229147E+04  0.7818608E-02  0.8181162E-01
          2   -1    0    0  501    0  0.00000000000E+00  0.00000000000E+00  0.17663435832E+04  0.17663435832E+04  0.00000000000E+00 0. -1.
         -2   -1    0    0    0  501 -0.00000000000E+00 -0.00000000000E+00 -0.14758438710E+04  0.14758438710E+04  0.00000000000E+00 0.  1.
         23    2    1    2    0    0  0.41150712403E+02  0.13350742056E+04 -0.52601223348E+03  0.14385959171E+04  0.93556546242E+02 0.  0.
        254    2    1    2    0    0 -0.41150712403E+02 -0.13350742056E+04  0.81651194565E+03  0.18035915371E+04  0.89561942803E+03 0.  0.
        -24    2    4    4    0    0 -0.30278792960E+03 -0.12792287164E+04  0.59471934543E+03  0.14450417591E+04  0.79674002269E+02 0.  0.
         24    2    4    4    0    0  0.26163721720E+03 -0.55845489240E+02  0.22179260022E+03  0.35854977804E+03  0.88279293878E+02 0.  0.
         13    1    3    3    0    0 -0.10792511896E+02  0.29136741857E+03 -0.79585658259E+02  0.30223389604E+03  0.00000000000E+00 0. -1.
        -13    1    3    3    0    0  0.51943224299E+02  0.10437067870E+04 -0.44642657522E+03  0.11363620211E+04  0.00000000000E+00 0.  1.
          2    1    6    6  502    0  0.67949882342E+01 -0.93707554370E+01 -0.64905711096E+01  0.13270660718E+02  0.00000000000E+00 0. -1.
          1    1    5    5  503    0 -0.19220961018E+03 -0.72789960887E+03  0.30266205139E+03  0.81141031063E+03  0.00000000000E+00 0. -1.
         -2    1    5    5    0  503 -0.11057831942E+03 -0.55132910750E+03  0.29205729404E+03  0.63363144848E+03  0.00000000000E+00 0.  1.
         -1    1    6    6    0  502  0.25484222897E+03 -0.46474733803E+02  0.22828317133E+03  0.34527911732E+03  0.00000000000E+00 0.  1.
<mgrwt>
<rscale>  0 0.32291469E+04</rscale>
<asrwt>0</asrwt>
<pdfrwt beam="1">  1        2 0.27174517E+00 0.32291469E+04</pdfrwt>
<pdfrwt beam="2">  1       -2 0.22705290E+00 0.32291469E+04</pdfrwt>
<totfact> 0.67516669E-01</totfact>
</mgrwt>
</event>
<event>
12    1  0.1980523E-007  0.2205705E+04  0.7818608E-02  0.8516057E-01
         -2   -1    0    0    0  501 -0.00000000000E+00  0.00000000000E+00  0.53418758787E+03  0.53418758787E+03  0.00000000000E+00 0. -1.
          2   -1    0    0  501    0  0.00000000000E+00 -0.00000000000E+00 -0.22768851141E+04  0.22768851141E+04  0.00000000000E+00 0.  1.
         23    2    1    2    0    0 -0.46994736762E+03 -0.44978975564E+03 -0.15507672167E+04  0.16841544587E+04  0.91301301467E+02 0.  0.
        254    2    1    2    0    0  0.46994736762E+03  0.44978975564E+03 -0.19193030953E+03  0.11269182433E+04  0.89997007214E+03 0.  0.
        -24    2    4    4    0    0  0.72270484604E+03  0.23235469799E+03 -0.17644856207E+03  0.78355658111E+03  0.80844422001E+02 0.  0.
         24    2    4    4    0    0 -0.25275747842E+03  0.21743505765E+03 -0.15481747454E+02  0.34336166219E+03  0.80580390690E+02 0.  0.
         13    1    3    3    0    0 -0.28268122960E+03 -0.30227059736E+03 -0.88478065578E+03  0.97678708040E+03  0.00000000000E+00 0. -1.
        -13    1    3    3    0    0 -0.18726613802E+03 -0.14751915827E+03 -0.66598656096E+03  0.70736737831E+03  0.00000000000E+00 0.  1.
          4    1    6    6  502    0 -0.15636716759E+03  0.18267058207E+03 -0.72878519064E+01  0.24056671724E+03  0.00000000000E+00 0. -1.
          1    1    5    5  503    0  0.59339722101E+03  0.16542870318E+03 -0.16366626239E+03  0.63739592341E+03  0.00000000000E+00 0. -1.
         -2    1    5    5    0  503  0.12930762503E+03  0.66925994809E+02 -0.12782299685E+02  0.14616065769E+03  0.00000000000E+00 0.  1.
         -1    1    6    6    0  502 -0.96390310829E+02  0.34764475576E+02 -0.81938955478E+01  0.10279494495E+03  0.00000000000E+00 0.  1.
<mgrwt>
<rscale>  0 0.22057051E+04</rscale>
<asrwt>0</asrwt>
<pdfrwt beam="1">  1        2 0.35029002E+00 0.22057051E+04</pdfrwt>
<pdfrwt beam="2">  1       -2 0.82182706E-01 0.22057051E+04</pdfrwt>
<totfact> 0.55523966E+00</totfact>
</mgrwt>
</event>
<event>
12    1  0.1980523E-007  0.1590663E+04  0.7818608E-02  0.8826305E-01
          2   -1    0    0  501    0  0.00000000000E+00  0.00000000000E+00  0.91788478626E+03  0.91788478626E+03  0.00000000000E+00 0. -1.
         -2   -1    0    0    0  501 -0.00000000000E+00 -0.00000000000E+00 -0.68914112802E+03  0.68914112802E+03  0.00000000000E+00 0.  1.
         23    2    1    2    0    0  0.38404803704E+02  0.42329297794E+03  0.41302765774E+03  0.59979328008E+03  0.92240222496E+02 0.  0.
        254    2    1    2    0    0 -0.38404803704E+02 -0.42329297794E+03 -0.18428399951E+03  0.10072326342E+04  0.89437414588E+03 0.  0.
        -24    2    4    4    0    0 -0.52073961205E+02 -0.35508196433E+03 -0.52984629307E+03  0.64482845605E+03  0.79194347140E+02 0.  0.
         24    2    4    4    0    0  0.13669157502E+02 -0.68211013608E+02  0.34556229357E+03  0.36240417816E+03  0.84165915708E+02 0.  0.
         13    1    3    3    0    0  0.37209915089E+01  0.21983902180E+03  0.27232638818E+03  0.35000671848E+03  0.00000000000E+00 0. -1.
        -13    1    3    3    0    0  0.34683812195E+02  0.20345395614E+03  0.14070126956E+03  0.24978656160E+03  0.00000000000E+00 0.  1.
          2    1    6    6  502    0 -0.25545706737E+01 -0.22504093977E+02  0.27967499458E+03  0.28059056055E+03  0.00000000000E+00 0. -1.
          3    1    5    5  503    0 -0.49723540056E+02 -0.33778997895E+03 -0.52577609795E+03  0.62690908870E+03  0.00000000000E+00 0. -1.
         -4    1    5    5    0  503 -0.23504211497E+01 -0.17291985378E+02 -0.40701951219E+01  0.17919367350E+02  0.00000000000E+00 0.  1.
         -1    1    6    6    0  502  0.16223728175E+02 -0.45706919631E+02  0.65887298985E+02  0.81813617605E+02  0.00000000000E+00 0.  1.
<mgrwt>
<rscale>  0 0.15906630E+04</rscale>
<asrwt>0</asrwt>
<pdfrwt beam="1">  1        2 0.14121304E+00 0.15906630E+04</pdfrwt>
<pdfrwt beam="2">  1       -2 0.10602171E+00 0.15906630E+04</pdfrwt>
<totfact> 0.19656841E+01</totfact>
</mgrwt>
</event>
<event>
12    1  0.1980523E-007  0.2054340E+04  0.7818608E-02  0.8581628E-01
          2   -1    0    0  501    0  0.00000000000E+00  0.00000000000E+00  0.16455017280E+04  0.16455017280E+04  0.00000000000E+00 0. -1.
         -2   -1    0    0    0  501 -0.00000000000E+00 -0.00000000000E+00 -0.64118963196E+03  0.64118963196E+03  0.00000000000E+00 0.  1.
         23    2    1    2    0    0  0.56118009547E+03  0.14365414817E+03 -0.25178861416E+03  0.63778982710E+03  0.88423659110E+02 0.  0.
        254    2    1    2    0    0 -0.56118009547E+03 -0.14365414817E+03  0.12561007102E+04  0.16489015329E+04  0.89751192590E+03 0.  0.
        -24    2    4    4    0    0 -0.40138645591E+01 -0.35396176010E+03  0.84873824177E+03  0.92301481953E+03  0.79339241980E+02 0.  0.
         24    2    4    4    0    0 -0.55716623091E+03  0.21030761193E+03  0.40736246848E+03  0.72588671338E+03  0.79396721784E+02 0.  0.
         13    1    3    3    0    0  0.18089543250E+03  0.35692130295E+02 -0.12453645332E+03  0.22250036825E+03  0.00000000000E+00 0. -1.
        -13    1    3    3    0    0  0.38028466297E+03  0.10796201787E+03 -0.12725216084E+03  0.41528945885E+03  0.00000000000E+00 0.  1.
          4    1    6    6  502    0 -0.51165507387E+03  0.21386311142E+03  0.36738908243E+03  0.66520905205E+03  0.00000000000E+00 0. -1.
          3    1    5    5  503    0 -0.27790713189E+02 -0.30129082603E+03  0.66963585240E+03  0.73482015515E+03  0.00000000000E+00 0. -1.
         -4    1    5    5    0  503  0.23776848630E+02 -0.52670934067E+02  0.17910238937E+03  0.18819466438E+03  0.00000000000E+00 0.  1.
         -3    1    6    6    0  502 -0.45511157048E+02 -0.35554994891E+01  0.39973386047E+02  0.60677661330E+02  0.00000000000E+00 0.  1.
<mgrwt>
<rscale>  0 0.20543404E+04</rscale>
<asrwt>0</asrwt>
<pdfrwt beam="1">  1        2 0.25315411E+00 0.20543404E+04</pdfrwt>
<pdfrwt beam="2">  1       -2 0.98644560E-01 0.20543404E+04</pdfrwt>
<totfact> 0.82998455E+00</totfact>
</mgrwt>
</event>
<event>
12    1  0.1980523E-007  0.1233943E+04  0.7818608E-02  0.9083654E-01
          1   -1    0    0  501    0  0.00000000000E+00  0.00000000000E+00  0.20845836891E+04  0.20845836891E+04  0.00000000000E+00 0. -1.
         -1   -1    0    0    0  501 -0.00000000000E+00 -0.00000000000E+00 -0.18260429183E+03  0.18260429183E+03  0.00000000000E+00 0.  1.
         23    2    1    2    0    0 -0.51842762764E+02  0.20899650479E+03  0.12958674442E+03  0.26751552044E+03  0.91676705244E+02 0.  0.
        254    2    1    2    0    0  0.51842762764E+02 -0.20899650479E+03  0.17723926529E+04  0.19996724605E+04  0.90052596980E+03 0.  0.
        -24    2    4    4    0    0 -0.12307377175E+03  0.37087023720E+02 -0.43084464463E+02  0.15777336311E+03  0.80706644141E+02 0.  0.
         24    2    4    4    0    0  0.17491653451E+03 -0.24608352851E+03  0.18154771173E+04  0.18418990974E+04  0.74042044670E+02 0.  0.
         11    1    3    3    0    0 -0.41472175314E+02  0.19116207077E+03  0.75580306397E+02  0.20970279288E+03  0.00000000000E+00 0.  1.
        -11    1    3    3    0    0 -0.10370587450E+02  0.17834434022E+02  0.54006438023E+02  0.57812727569E+02  0.00000000000E+00 0. -1.
          4    1    6    6  502    0  0.13996986944E+03 -0.15546405384E+03  0.10838043169E+04  0.11038081507E+04  0.00000000000E+00 0. -1.
          3    1    5    5  503    0 -0.97341529725E+02  0.31823194539E+02  0.54837441031E+01  0.10255808388E+03  0.00000000000E+00 0. -1.
         -4    1    5    5    0  503 -0.25732242023E+02  0.52638291809E+01 -0.48568208566E+02  0.55215279230E+02  0.00000000000E+00 0.  1.
         -3    1    6    6    0  502  0.34946665072E+02 -0.90619474665E+02  0.73167280046E+03  0.73809094665E+03  0.00000000000E+00 0.  1.
<mgrwt>
<rscale>  0 0.12339432E+04</rscale>
<asrwt>0</asrwt>
<pdfrwt beam="1">  1        1 0.32070517E+00 0.12339432E+04</pdfrwt>
<pdfrwt beam="2">  1       -1 0.28092969E-01 0.12339432E+04</pdfrwt>
<totfact> 0.29570452E+01</totfact>
</mgrwt>
</event>
<event>
12    1  0.1980523E-007  0.1282692E+04  0.7818608E-02  0.9043404E-01
         -2   -1    0    0    0  501 -0.00000000000E+00  0.00000000000E+00  0.16654451597E+03  0.16654451597E+03  0.00000000000E+00 0.  1.
          2   -1    0    0  501    0  0.00000000000E+00 -0.00000000000E+00 -0.24697594518E+04  0.24697594518E+04  0.00000000000E+00 0. -1.
         23    2    1    2    0    0 -0.23929399401E+03  0.17780310123E+03 -0.37472391084E+03  0.48746127901E+03  0.91241058737E+02 0.  0.
        254    2    1    2    0    0  0.23929399401E+03 -0.17780310123E+03 -0.19284910250E+04  0.21488426888E+04  0.89976202922E+03 0.  0.
        -24    2    4    4    0    0  0.51900030489E+03  0.11013231161E+03 -0.10147727428E+04  0.11478736757E+04  0.79748437196E+02 0.  0.
         24    2    4    4    0    0 -0.27970631088E+03 -0.28793541284E+03 -0.91371828219E+03  0.10009690131E+04  0.76911921380E+02 0.  0.
         11    1    3    3    0    0 -0.18295478501E+02  0.54849713137E+02 -0.54928449645E+02  0.79751803398E+02  0.00000000000E+00 0.  1.
        -11    1    3    3    0    0 -0.22099851551E+03  0.12295338810E+03 -0.31979546120E+03  0.40770947561E+03  0.00000000000E+00 0. -1.
          2    1    6    6  502    0 -0.17135121030E+02 -0.55049974309E+02 -0.12126286779E+03  0.13427134895E+03  0.00000000000E+00 0. -1.
          1    1    5    5  503    0  0.16529286642E+02 -0.18271047683E+01 -0.11449064552E+02  0.20190015053E+02  0.00000000000E+00 0. -1.
         -2    1    5    5    0  503  0.50247101825E+03  0.11195941638E+03 -0.10033236782E+04  0.11276836606E+04  0.00000000000E+00 0.  1.
         -1    1    6    6    0  502 -0.26257118985E+03 -0.23288543853E+03 -0.79245541440E+03  0.86669766415E+03  0.00000000000E+00 0.  1.
<mgrwt>
<rscale>  0 0.12826923E+04</rscale>
<asrwt>0</asrwt>
<pdfrwt beam="1">  1        2 0.37996299E+00 0.12826923E+04</pdfrwt>
<pdfrwt beam="2">  1       -2 0.25622234E-01 0.12826923E+04</pdfrwt>
<totfact> 0.49022107E+01</totfact>
</mgrwt>
</event>
<event>
12    1  0.1980523E-007  0.1498484E+04  0.7818608E-02  0.8885462E-01
          2   -1    0    0  501    0  0.00000000000E+00  0.00000000000E+00  0.78118964150E+03  0.78118964150E+03  0.00000000000E+00 0. -1.
         -2   -1    0    0    0  501 -0.00000000000E+00 -0.00000000000E+00 -0.71860071376E+03  0.71860071376E+03  0.00000000000E+00 0.  1.
         23    2    1    2    0    0  0.37867964815E+03  0.86232842691E+02  0.29042099657E+03  0.49354315613E+03  0.91684854992E+02 0.  0.
        254    2    1    2    0    0 -0.37867964815E+03 -0.86232842691E+02 -0.22783206883E+03  0.10062471991E+04  0.89988421204E+03 0.  0.
        -24    2    4    4    0    0 -0.46712944197E+03  0.56183351641E+02  0.21666842107E+03  0.52451341248E+03  0.82478061538E+02 0.  0.
         24    2    4    4    0    0  0.88449793813E+02 -0.14241619433E+03 -0.44450048990E+03  0.48173378664E+03  0.79881269645E+02 0.  0.
         13    1    3    3    0    0  0.63132917313E+02 -0.14767963739E+02  0.26857307195E+02  0.70179576454E+02  0.00000000000E+00 0.  1.
        -13    1    3    3    0    0  0.31554673084E+03  0.10100080643E+03  0.26356368938E+03  0.42336357968E+03  0.00000000000E+00 0. -1.
          2    1    6    6  502    0 -0.48048418377E+01  0.76300422256E+01 -0.19944099825E+02  0.21887694426E+02  0.00000000000E+00 0. -1.
          3    1    5    5  503    0 -0.44490988715E+02  0.70069460691E+01  0.50657970804E+02  0.67784772450E+02  0.00000000000E+00 0. -1.
         -4    1    5    5    0  503 -0.42263845325E+03  0.49176405572E+02  0.16601045026E+03  0.45672864003E+03  0.00000000000E+00 0.  1.
         -1    1    6    6    0  502  0.93254635651E+02 -0.15004623656E+03 -0.42455639007E+03  0.45984609222E+03  0.00000000000E+00 0.  1.
<mgrwt>
<rscale>  0 0.14984838E+04</rscale>
<asrwt>0</asrwt>
<pdfrwt beam="1">  1        2 0.12018302E+00 0.14984838E+04</pdfrwt>
<pdfrwt beam="2">  1       -2 0.11055396E+00 0.14984838E+04</pdfrwt>
<totfact> 0.22299050E+01</totfact>
</mgrwt>
</event>
<event>
12    1  0.1980523E-007  0.1339036E+04  0.7818608E-02  0.8999170E-01
          3   -1    0    0  501    0  0.00000000000E+00  0.00000000000E+00  0.19441345748E+04  0.19441345748E+04  0.00000000000E+00 0. -1.
         -3   -1    0    0    0  501 -0.00000000000E+00 -0.00000000000E+00 -0.23056739424E+03  0.23056739424E+03  0.00000000000E+00 0.  1.
         23    2    1    2    0    0 -0.96968323459E+02  0.20128527963E+03  0.18648577717E+02  0.24276573892E+03  0.93106471290E+02 0.  0.
        254    2    1    2    0    0  0.96968323459E+02 -0.20128527963E+03  0.16949186029E+04  0.19319362302E+04  0.89983882305E+03 0.  0.
        -24    2    4    4    0    0  0.26625588300E+03  0.28976013021E+03  0.72040162426E+03  0.82475535281E+03  0.79935996042E+02 0.  0.
         24    2    4    4    0    0 -0.16928755954E+03 -0.49104540983E+03  0.97451697862E+03  0.11071808774E+04  0.79889180835E+02 0.  0.
         13    1    3    3    0    0 -0.43140253886E+02  0.22958455702E+02  0.27881620385E+02  0.56263282422E+02  0.00000000000E+00 0. -1.
        -13    1    3    3    0    0 -0.53828069573E+02  0.17832682392E+03 -0.92330426673E+01  0.18650245650E+03  0.00000000000E+00 0.  1.
          4    1    6    6  502    0 -0.14068276129E+03 -0.32969514249E+03  0.60998320181E+03  0.70750974042E+03  0.00000000000E+00 0. -1.
          1    1    5    5  503    0  0.28873579430E+02  0.62442261944E+02  0.17419266098E+03  0.18728535128E+03  0.00000000000E+00 0. -1.
         -2    1    5    5    0  503  0.23738230357E+03  0.22731786826E+03  0.54620896328E+03  0.63747000152E+03  0.00000000000E+00 0.  1.
         -3    1    6    6    0  502 -0.28604798252E+02 -0.16135026734E+03  0.36453377681E+03  0.39967113693E+03  0.00000000000E+00 0.  1.
<mgrwt>
<rscale>  0 0.13390355E+04</rscale>
<asrwt>0</asrwt>
<pdfrwt beam="1">  1        3 0.29909762E+00 0.13390355E+04</pdfrwt>
<pdfrwt beam="2">  1       -3 0.35471908E-01 0.13390355E+04</pdfrwt>
<totfact> 0.79391149E-01</totfact>
</mgrwt>
</event>
<event>
12    1  0.1980523E-007  0.3790583E+04  0.7818608E-02  0.8048179E-01
          1   -1    0    0  501    0  0.00000000000E+00  0.00000000000E+00  0.26914714501E+04  0.26914714501E+04  0.00000000000E+00 0.  1.
         -1   -1    0    0    0  501 -0.00000000000E+00 -0.00000000000E+00 -0.13346344802E+04  0.13346344802E+04  0.00000000000E+00 0. -1.
         23    2    1    2    0    0 -0.14519602720E+04 -0.37474088072E+03  0.16734272882E+04  0.22488516435E+04  0.91408240280E+02 0.  0.
        254    2    1    2    0    0  0.14519602720E+04  0.37474088072E+03 -0.31659031831E+03  0.17772542868E+04  0.89987999824E+03 0.  0.
        -24    2    4    4    0    0  0.10226263956E+04  0.27179580302E+03  0.21362142608E+03  0.10824645981E+04  0.80360369318E+02 0.  0.
         24    2    4    4    0    0  0.42933387640E+03  0.10294507770E+03 -0.53021174439E+03  0.69478968871E+03  0.81749319349E+02 0.  0.
         13    1    3    3    0    0 -0.13812226497E+03 -0.17736427852E+02  0.12665978945E+03  0.18824198048E+03  0.00000000000E+00 0. -1.
        -13    1    3    3    0    0 -0.13138380070E+04 -0.35700445287E+03  0.15467674988E+04  0.20606096630E+04  0.00000000000E+00 0.  1.
          2    1    6    6  502    0  0.36106865880E+03  0.55083162520E+02 -0.42012127124E+03  0.55669256660E+03  0.00000000000E+00 0. -1.
          1    1    5    5  503    0  0.94032356636E+03  0.25116318237E+03  0.21835888614E+03  0.99748281027E+03  0.00000000000E+00 0. -1.
         -2    1    5    5    0  503  0.82302829239E+02  0.20632620652E+02 -0.47374600628E+01  0.84981787835E+02  0.00000000000E+00 0.  1.
         -1    1    6    6    0  502  0.68265217597E+02  0.47861915181E+02 -0.11009047315E+03  0.13809712211E+03  0.00000000000E+00 0.  1.
<mgrwt>
<rscale>  0 0.37905834E+04</rscale>
<asrwt>0</asrwt>
<pdfrwt beam="1">  1        1 0.41407253E+00 0.37905834E+04</pdfrwt>
<pdfrwt beam="2">  1       -1 0.20532838E+00 0.37905834E+04</pdfrwt>
<totfact> 0.10959124E-01</totfact>
</mgrwt>
</event>
<event>
12    1  0.1980523E-007  0.2135875E+04  0.7818608E-02  0.8545603E-01
         -2   -1    0    0    0  501 -0.00000000000E+00  0.00000000000E+00  0.77645469373E+03  0.77645469373E+03  0.00000000000E+00 0.  1.
          2   -1    0    0  501    0  0.00000000000E+00 -0.00000000000E+00 -0.14688432558E+04  0.14688432558E+04  0.00000000000E+00 0. -1.
         23    2    1    2    0    0 -0.83494417945E+02 -0.61468374912E+03  0.36425108747E+03  0.72524568918E+03  0.92168463664E+02 0.  0.
        254    2    1    2    0    0  0.83494417945E+02  0.61468374912E+03 -0.10566396495E+04  0.15200522603E+04  0.89959107149E+03 0.  0.
        -24    2    4    4    0    0  0.13479196769E+03 -0.12801644799E+03  0.26151284868E+02  0.20362677838E+03  0.78885294353E+02 0.  0.
         24    2    4    4    0    0 -0.51297549741E+02  0.74270019711E+03 -0.10827909344E+04  0.13164254819E+04  0.79402899867E+02 0.  0.
         11    1    3    3    0    0 -0.11917842539E+01 -0.17883458927E+03  0.14620756734E+03  0.23099758314E+03  0.00000000000E+00 0. -1.
        -11    1    3    3    0    0 -0.82302633691E+02 -0.43584915985E+03  0.21804352013E+03  0.49424810604E+03  0.00000000000E+00 0.  1.
          2    1    6    6  502    0 -0.40876069448E+02  0.73345112165E+03 -0.10586088552E+04  0.12885162433E+04  0.00000000000E+00 0. -1.
          1    1    5    5  503    0  0.73524938048E+02 -0.11312710919E+03  0.36409760129E+02  0.13974737916E+03  0.00000000000E+00 0. -1.
         -2    1    5    5    0  503  0.61267029639E+02 -0.14889338799E+02 -0.10258475261E+02  0.63879399225E+02  0.00000000000E+00 0.  1.
         -1    1    6    6    0  502 -0.10421480293E+02  0.92490754589E+01 -0.24182079166E+02  0.27909238634E+02  0.00000000000E+00 0.  1.
<mgrwt>
<rscale>  0 0.21358748E+04</rscale>
<asrwt>0</asrwt>
<pdfrwt beam="1">  1        2 0.22597588E+00 0.21358748E+04</pdfrwt>
<pdfrwt beam="2">  1       -2 0.11945457E+00 0.21358748E+04</pdfrwt>
<totfact> 0.65249015E+00</totfact>
</mgrwt>
</event>
<event>
12    1  0.1980523E-007  0.1593010E+04  0.7818608E-02  0.8824854E-01
          2   -1    0    0  501    0  0.00000000000E+00  0.00000000000E+00  0.26257559745E+04  0.26257559745E+04  0.00000000000E+00 0. -1.
         -2   -1    0    0    0  501 -0.00000000000E+00 -0.00000000000E+00 -0.24161433361E+03  0.24161433361E+03  0.00000000000E+00 0.  1.
         23    2    1    2    0    0  0.24342611236E+03 -0.44093334940E+03  0.11529985381E+04  0.12614935752E+04  0.91005058224E+02 0.  0.
        254    2    1    2    0    0 -0.24342611236E+03  0.44093334940E+03  0.12311431028E+04  0.16058767329E+04  0.89969342055E+03 0.  0.
        -24    2    4    4    0    0 -0.15481541642E+02  0.10028567042E+02  0.10887830346E+04  0.10918577656E+04  0.79778652672E+02 0.  0.
         24    2    4    4    0    0 -0.22794457072E+03  0.43090478236E+03  0.14236006817E+03  0.51401896736E+03  0.79444641255E+02 0.  0.
         13    1    3    3    0    0  0.53353936793E+02 -0.17567595442E+03  0.46840712647E+03  0.50310428309E+03  0.00000000000E+00 0. -1.
        -13    1    3    3    0    0  0.19007217557E+03 -0.26525739497E+03  0.68459141163E+03  0.75838929211E+03  0.00000000000E+00 0.  1.
          4    1    6    6  502    0 -0.54005086672E+02  0.77768431013E+02  0.59248857504E+02  0.11169111587E+03  0.00000000000E+00 0. -1.
          3    1    5    5  503    0 -0.26106631275E+02 -0.22736684548E+02  0.25209384038E+03  0.25445985416E+03  0.00000000000E+00 0. -1.
         -4    1    5    5    0  503  0.10625089633E+02  0.32765251590E+02  0.83668919425E+03  0.83739791140E+03  0.00000000000E+00 0.  1.
         -3    1    6    6    0  502 -0.17393948405E+03  0.35313635134E+03  0.83111210663E+02  0.40232785149E+03  0.00000000000E+00 0.  1.
<mgrwt>
<rscale>  0 0.15930101E+04</rscale>
<asrwt>0</asrwt>
<pdfrwt beam="1">  1        2 0.40396244E+00 0.15930101E+04</pdfrwt>
<pdfrwt beam="2">  1       -2 0.37171438E-01 0.15930101E+04</pdfrwt>
<totfact> 0.19294141E+01</totfact>
</mgrwt>
</event>
<event>
12    1  0.1980523E-007  0.1344685E+04  0.7818608E-02  0.8994862E-01
         -2   -1    0    0    0  501 -0.00000000000E+00  0.00000000000E+00  0.53244980635E+03  0.53244980635E+03  0.00000000000E+00 0.  1.
          2   -1    0    0  501    0  0.00000000000E+00 -0.00000000000E+00 -0.84898930868E+03  0.84898930868E+03  0.00000000000E+00 0. -1.
         23    2    1    2    0    0  0.23981433698E+03  0.23418630011E+03 -0.24585696362E+03  0.42540415839E+03  0.90382033814E+02 0.  0.
        254    2    1    2    0    0 -0.23981433698E+03 -0.23418630011E+03 -0.70682538716E+02  0.95603495664E+03  0.89255401946E+03 0.  0.
        -24    2    4    4    0    0 -0.40411023373E+03 -0.44909238737E+03 -0.20632538657E+03  0.64328892012E+03  0.79129111006E+02 0.  0.
         24    2    4    4    0    0  0.16429589675E+03  0.21490608726E+03  0.13564284785E+03  0.31274603652E+03  0.78951460729E+02 0.  0.
         11    1    3    3    0    0  0.30438088184E+02  0.84228425410E+02 -0.67113612035E+02  0.11191577985E+03  0.00000000000E+00 0. -1.
        -11    1    3    3    0    0  0.20937624879E+03  0.14995787470E+03 -0.17874335158E+03  0.31348837854E+03  0.00000000000E+00 0.  1.
          4    1    6    6  502    0 -0.40488783786E+01  0.35631448184E+02  0.16247319508E+02  0.39369644487E+02  0.00000000000E+00 0. -1.
          1    1    5    5  503    0 -0.10440422831E+03 -0.80667017960E+02 -0.21585307452E+02  0.13369119706E+03  0.00000000000E+00 0. -1.
         -2    1    5    5    0  503 -0.29970600542E+03 -0.36842536941E+03 -0.18474007912E+03  0.50959772306E+03  0.00000000000E+00 0.  1.
         -3    1    6    6    0  502  0.16834477513E+03  0.17927463908E+03  0.11939552834E+03  0.27337639203E+03  0.00000000000E+00 0.  1.
<mgrwt>
<rscale>  0 0.13446846E+04</rscale>
<asrwt>0</asrwt>
<pdfrwt beam="1">  1        2 0.13061374E+00 0.13446846E+04</pdfrwt>
<pdfrwt beam="2">  1       -2 0.81915355E-01 0.13446846E+04</pdfrwt>
<totfact> 0.40721403E+01</totfact>
</mgrwt>
</event>
<event>
12    1  0.1980523E-007  0.1630647E+04  0.7818608E-02  0.8801939E-01
          1   -1    0    0  501    0  0.00000000000E+00  0.00000000000E+00  0.13500061681E+04  0.13500061681E+04  0.00000000000E+00 0. -1.
         -1   -1    0    0    0  501 -0.00000000000E+00 -0.00000000000E+00 -0.49240667186E+03  0.49240667186E+03  0.00000000000E+00 0.  1.
         23    2    1    2    0    0  0.43275477582E+03 -0.34633200005E+03  0.40663833491E+03  0.69400449714E+03  0.95210064551E+02 0.  0.
        254    2    1    2    0    0 -0.43275477582E+03  0.34633200005E+03  0.45096116130E+03  0.11484083428E+04  0.89902903320E+03 0.  0.
        -24    2    4    4    0    0 -0.67095631161E+03  0.40586230801E+03  0.40315799949E+03  0.88551046763E+03  0.81766928395E+02 0.  0.
         24    2    4    4    0    0  0.23820153579E+03 -0.59530307964E+02  0.47803161816E+02  0.26289787516E+03  0.80909339774E+02 0.  0.
         13    1    3    3    0    0  0.38595413798E+03 -0.26982400289E+03  0.36102894708E+03  0.59338645905E+03  0.00000000000E+00 0. -1.
        -13    1    3    3    0    0  0.46800637838E+02 -0.76507997159E+02  0.45609387824E+02  0.10061803809E+03  0.00000000000E+00 0.  1.
          2    1    6    6  502    0  0.92255758132E+02  0.15234837895E+02  0.61420399983E+01  0.93706722542E+02  0.00000000000E+00 0. -1.
          1    1    5    5  503    0 -0.26269128975E+03  0.12031873970E+03  0.17232203942E+03  0.33641967556E+03  0.00000000000E+00 0. -1.
         -2    1    5    5    0  503 -0.40826502186E+03  0.28554356831E+03  0.23083596007E+03  0.54909079207E+03  0.00000000000E+00 0.  1.
         -1    1    6    6    0  502  0.14594577766E+03 -0.74765145860E+02  0.41661121818E+02  0.16919115262E+03  0.00000000000E+00 0.  1.
<mgrwt>
<rscale>  0 0.16306466E+04</rscale>
<asrwt>0</asrwt>
<pdfrwt beam="1">  1        1 0.20769326E+00 0.16306466E+04</pdfrwt>
<pdfrwt beam="2">  1       -1 0.75754873E-01 0.16306466E+04</pdfrwt>
<totfact> 0.13963908E+01</totfact>
</mgrwt>
</event>
<event>
12    1  0.1980523E-007  0.2988582E+04  0.7818608E-02  0.8246999E-01
          1   -1    0    0  501    0  0.00000000000E+00  0.00000000000E+00  0.29435340697E+04  0.29435340697E+04  0.00000000000E+00 0. -1.
         -1   -1    0    0    0  501 -0.00000000000E+00 -0.00000000000E+00 -0.75857958369E+03  0.75857958369E+03  0.00000000000E+00 0.  1.
         23    2    1    2    0    0  0.11667788820E+04  0.23499187585E+03  0.18627850686E+03  0.12082593400E+04  0.92718980556E+02 0.  0.
        254    2    1    2    0    0 -0.11667788820E+04 -0.23499187585E+03  0.19986759792E+04  0.24938543134E+04  0.89889350081E+03 0.  0.
        -24    2    4    4    0    0 -0.83315719437E+03 -0.43254019482E+02  0.57351708718E+03  0.10155831901E+04  0.80408618689E+02 0.  0.
         24    2    4    4    0    0 -0.33362168760E+03 -0.19173785637E+03  0.14251588920E+04  0.14782711233E+04  0.78363325075E+02 0.  0.
         13    1    3    3    0    0  0.44190844136E+03  0.45166506450E+02  0.56481328111E+02  0.44778703004E+03  0.00000000000E+00 0.  1.
        -13    1    3    3    0    0  0.72487044062E+03  0.18982536940E+03  0.12979717875E+03  0.76047230993E+03  0.00000000000E+00 0. -1.
          2    1    6    6  502    0 -0.14063741692E+03 -0.10423937999E+03  0.52132241533E+03  0.54992889732E+03  0.00000000000E+00 0. -1.
          1    1    5    5  503    0 -0.47422622064E+03 -0.19193702604E+01  0.28558243702E+03  0.55358063610E+03  0.00000000000E+00 0. -1.
         -2    1    5    5    0  503 -0.35893097373E+03 -0.41334649221E+02  0.28793465016E+03  0.46200255399E+03  0.00000000000E+00 0.  1.
         -1    1    6    6    0  502 -0.19298427068E+03 -0.87498476378E+02  0.90383647665E+03  0.92834222603E+03  0.00000000000E+00 0.  1.
<mgrwt>
<rscale>  0 0.29885815E+04</rscale>
<asrwt>0</asrwt>
<pdfrwt beam="1">  1        1 0.45285139E+00 0.29885815E+04</pdfrwt>
<pdfrwt beam="2">  1       -1 0.11670455E+00 0.29885815E+04</pdfrwt>
<totfact> 0.37056921E-01</totfact>
</mgrwt>
</event>
<event>
12    1  0.1980523E-007  0.1231721E+04  0.7818608E-02  0.9085536E-01
          1   -1    0    0  501    0  0.00000000000E+00  0.00000000000E+00  0.10963491108E+04  0.10963491108E+04  0.00000000000E+00 0.  1.
         -1   -1    0    0    0  501 -0.00000000000E+00 -0.00000000000E+00 -0.34595173624E+03  0.34595173624E+03  0.00000000000E+00 0. -1.
         23    2    1    2    0    0 -0.20337835528E+03  0.18137715010E+03  0.23222507758E+03  0.36928821394E+03  0.90470284204E+02 0.  0.
        254    2    1    2    0    0  0.20337835528E+03 -0.18137715010E+03  0.51817229699E+03  0.10730126331E+04  0.89921808002E+03 0.  0.
        -24    2    4    4    0    0  0.34828523261E+03 -0.86621094383E+02 -0.13553059620E+03  0.39201967985E+03  0.80654011913E+02 0.  0.
         24    2    4    4    0    0 -0.14490687733E+03 -0.94756055719E+02  0.65370289319E+03  0.68099295324E+03  0.80294561468E+02 0.  0.
         13    1    3    3    0    0 -0.20057279857E+03  0.19068415798E+03  0.22845694308E+03  0.35886274601E+03  0.00000000000E+00 0. -1.
        -13    1    3    3    0    0 -0.28055567090E+01 -0.93070078748E+01  0.37681344933E+01  0.10425467931E+02  0.00000000000E+00 0.  1.
          2    1    6    6  502    0 -0.13614842688E+02 -0.43731907776E+02  0.10610291182E+03  0.11556674088E+03  0.00000000000E+00 0. -1.
          3    1    5    5  503    0  0.72449226581E+02 -0.37852213397E+02 -0.21472534098E+01  0.81769744946E+02  0.00000000000E+00 0. -1.
         -4    1    5    5    0  503  0.27583600603E+03 -0.48768880986E+02 -0.13338334279E+03  0.31024993491E+03  0.00000000000E+00 0.  1.
         -1    1    6    6    0  502 -0.13129203464E+03 -0.51024147943E+02  0.54759998137E+03  0.56542621236E+03  0.00000000000E+00 0.  1.
<mgrwt>
<rscale>  0 0.12317206E+04</rscale>
<asrwt>0</asrwt>
<pdfrwt beam="1">  1        1 0.16866909E+00 0.12317206E+04</pdfrwt>
<pdfrwt beam="2">  1       -1 0.53223345E-01 0.12317206E+04</pdfrwt>
<totfact> 0.44852256E+01</totfact>
</mgrwt>
</event>
<event>
12    1  0.2360029E-007  0.1767964E+04  0.7818608E-02  0.8723524E-01
          2   -1    0    0  501    0  0.00000000000E+00  0.00000000000E+00  0.12156527427E+04  0.12156527427E+04  0.00000000000E+00 0. -1.
         -2   -1    0    0    0  501 -0.00000000000E+00 -0.00000000000E+00 -0.64280242327E+03  0.64280242327E+03  0.00000000000E+00 0.  1.
         23    2    1    2    0    0  0.10850214220E+03 -0.63754613864E+03  0.27875872101E+03  0.71007132209E+03  0.90868389191E+02 0.  0.
        254    2    1    2    0    0 -0.10850214220E+03  0.63754613864E+03  0.29409159843E+03  0.11483838439E+04  0.90225151198E+03 0.  0.
        -24    2    4    4    0    0 -0.29849066889E+03  0.29139103803E+03  0.53184306734E+03  0.68073204661E+03  0.80831024606E+02 0.  0.
         24    2    4    4    0    0  0.18998852668E+03  0.34615510062E+03 -0.23775146892E+03  0.46765179728E+03  0.79078749192E+02 0.  0.
         11    1    3    3    0    0  0.10725798934E+03 -0.38444193626E+03  0.18799206452E+03  0.44118124955E+03  0.00000000000E+00 0. -1.
        -11    1    3    3    0    0  0.12441528671E+01 -0.25310420238E+03  0.90766656489E+02  0.26889007254E+03  0.00000000000E+00 0.  1.
          2    1    6    6  502    0  0.17032786956E+03  0.32862851582E+03 -0.24011576234E+03  0.44120727996E+03  0.00000000000E+00 0. -1.
          3    1    5    5  503    0 -0.29354508988E+03  0.26880988382E+03  0.51972835040E+03  0.65463350941E+03  0.00000000000E+00 0. -1.
         -4    1    5    5    0  503 -0.49455790076E+01  0.22581154210E+02  0.12114716941E+02  0.26098537195E+02  0.00000000000E+00 0.  1.
         -1    1    6    6    0  502  0.19660657129E+02  0.17526584792E+02  0.23642934253E+01  0.26444517326E+02  0.00000000000E+00 0.  1.
<mgrwt>
<rscale>  0 0.17679644E+04</rscale>
<asrwt>0</asrwt>
<pdfrwt beam="1">  1        2 0.18702350E+00 0.17679644E+04</pdfrwt>
<pdfrwt beam="2">  1       -2 0.98892680E-01 0.17679644E+04</pdfrwt>
<totfact> 0.14881944E+01</totfact>
</mgrwt>
</event>
<event>
12    1  0.1980523E-007  0.2168327E+04  0.7818608E-02  0.8531728E-01
          1   -1    0    0  501    0  0.00000000000E+00  0.00000000000E+00  0.28293061748E+04  0.28293061748E+04  0.00000000000E+00 0. -1.
         -1   -1    0    0    0  501 -0.00000000000E+00 -0.00000000000E+00 -0.41544117175E+03  0.41544117175E+03  0.00000000000E+00 0.  1.
         23    2    1    2    0    0  0.55760588237E+03 -0.68516283073E+03  0.77944523144E+03  0.11820129846E+04  0.96163414911E+02 0.  0.
        254    2    1    2    0    0 -0.55760588237E+03  0.68516283073E+03  0.16344197716E+04  0.20627343619E+04  0.89619899206E+03 0.  0.
        -24    2    4    4    0    0 -0.10616912181E+02  0.70033304294E+03  0.94207942940E+03  0.11765144636E+04  0.78061142294E+02 0.  0.
         24    2    4    4    0    0 -0.54698897019E+03 -0.15170212209E+02  0.69234034224E+03  0.88621989834E+03  0.81384825814E+02 0.  0.
         13    1    3    3    0    0  0.80549949835E+02 -0.10296163874E+03  0.16409213288E+03  0.20979900272E+03  0.00000000000E+00 0.  1.
        -13    1    3    3    0    0  0.47705593253E+03 -0.58220119199E+03  0.61535309856E+03  0.97221398192E+03  0.00000000000E+00 0. -1.
          4    1    6    6  502    0 -0.15092975177E+03  0.70994881352E+01  0.13847694328E+03  0.20495379119E+03  0.00000000000E+00 0. -1.
          3    1    5    5  503    0 -0.28294019849E+02  0.27860563922E+03  0.42601955013E+03  0.50981791932E+03  0.00000000000E+00 0. -1.
         -4    1    5    5    0  503  0.17677107668E+02  0.42172740372E+03  0.51605987926E+03  0.66669654429E+03  0.00000000000E+00 0.  1.
         -3    1    6    6    0  502 -0.39605921841E+03 -0.22269700344E+02  0.55386339896E+03  0.68126610715E+03  0.00000000000E+00 0.  1.
<mgrwt>
<rscale>  0 0.21683268E+04</rscale>
<asrwt>0</asrwt>
<pdfrwt beam="1">  1        1 0.43527786E+00 0.21683268E+04</pdfrwt>
<pdfrwt beam="2">  1       -1 0.63914028E-01 0.21683268E+04</pdfrwt>
<totfact> 0.18036280E+00</totfact>
</mgrwt>
</event>
<event>
12    1  0.1980523E-007  0.1517156E+04  0.7818608E-02  0.8873124E-01
         -1   -1    0    0    0  501 -0.00000000000E+00  0.00000000000E+00  0.11667759380E+04  0.11667759380E+04  0.00000000000E+00 0.  1.
          1   -1    0    0  501    0  0.00000000000E+00 -0.00000000000E+00 -0.49318877134E+03  0.49318877134E+03  0.00000000000E+00 0. -1.
         23    2    1    2    0    0 -0.31547617352E+03 -0.18384606678E+03 -0.13088418253E+03  0.39830288648E+03  0.90498219917E+02 0.  0.
        254    2    1    2    0    0  0.31547617352E+03  0.18384606678E+03  0.80447134917E+03  0.12616618228E+04  0.90071738699E+03 0.  0.
        -24    2    4    4    0    0  0.62514294656E+03  0.99588969150E+02  0.48074113518E+03  0.79899266501E+03  0.80966494779E+02 0.  0.
         24    2    4    4    0    0 -0.30966677304E+03  0.84257097626E+02  0.32373021399E+03  0.46266915782E+03  0.79175307541E+02 0.  0.
         11    1    3    3    0    0 -0.15184729852E+03 -0.13244216689E+03 -0.44854341185E+02  0.20642296762E+03  0.00000000000E+00 0.  1.
        -11    1    3    3    0    0 -0.16362887500E+03 -0.51403899890E+02 -0.86029841347E+02  0.19187991885E+03  0.00000000000E+00 0. -1.
          4    1    6    6  502    0 -0.86888508264E+02  0.32680291445E+02  0.48166780534E+02  0.10458323510E+03  0.00000000000E+00 0. -1.
          1    1    5    5  503    0  0.21026673360E+03  0.72527262330E+02  0.16828692152E+03  0.27891359055E+03  0.00000000000E+00 0. -1.
         -4    1    5    5    0  503  0.41487621296E+03  0.27061706821E+02  0.31245421365E+03  0.52007907446E+03  0.00000000000E+00 0.  1.
         -3    1    6    6    0  502 -0.22277826478E+03  0.51576806181E+02  0.27556343345E+03  0.35808592272E+03  0.00000000000E+00 0.  1.
<mgrwt>
<rscale>  0 0.15171563E+04</rscale>
<asrwt>0</asrwt>
<pdfrwt beam="1">  1        1 0.75875196E-01 0.15171563E+04</pdfrwt>
<pdfrwt beam="2">  1       -1 0.17950399E+00 0.15171563E+04</pdfrwt>
<totfact> 0.91544917E+00</totfact>
</mgrwt>
</event>
<event>
12    1  0.1980523E-007  0.1385931E+04  0.7818608E-02  0.8964066E-01
          2   -1    0    0  501    0  0.00000000000E+00  0.00000000000E+00  0.38803794275E+03  0.38803794275E+03  0.00000000000E+00 0. -1.
         -2   -1    0    0    0  501 -0.00000000000E+00 -0.00000000000E+00 -0.12375108112E+04  0.12375108112E+04  0.00000000000E+00 0.  1.
         23    2    1    2    0    0 -0.14059071470E+02 -0.35045926254E+03 -0.35715005931E+02  0.36347103008E+03  0.88409704590E+02 0.  0.
        254    2    1    2    0    0  0.14059071470E+02  0.35045926254E+03 -0.81375786250E+03  0.12620777239E+04  0.89867623207E+03 0.  0.
        -24    2    4    4    0    0 -0.19918747048E+03  0.62103959707E+02  0.12339058061E+03  0.25544936977E+03  0.80601457330E+02 0.  0.
         24    2    4    4    0    0  0.21324654195E+03  0.28835530284E+03 -0.93714844311E+03  0.10066283541E+04  0.80190838052E+02 0.  0.
         13    1    3    3    0    0 -0.21794288324E+02 -0.37050735466E+02  0.15731925050E+02  0.45773807662E+02  0.00000000000E+00 0. -1.
        -13    1    3    3    0    0  0.77352168537E+01 -0.31340852708E+03 -0.51446930981E+02  0.31769722242E+03  0.00000000000E+00 0.  1.
          4    1    6    6  502    0  0.21780817437E+03  0.28212825956E+03 -0.88770651897E+03  0.95658748658E+03  0.00000000000E+00 0. -1.
          3    1    5    5  503    0 -0.15568567776E+03  0.12449411423E+02  0.73003851646E+02  0.17240237951E+03  0.00000000000E+00 0. -1.
         -4    1    5    5    0  503 -0.43501792711E+02  0.49654548284E+02  0.50386728968E+02  0.83046990255E+02  0.00000000000E+00 0.  1.
         -3    1    6    6    0  502 -0.45616324207E+01  0.62270432817E+01 -0.49441924144E+02  0.50040867512E+02  0.00000000000E+00 0.  1.
<mgrwt>
<rscale>  0 0.13859309E+04</rscale>
<asrwt>0</asrwt>
<pdfrwt beam="1">  1        2 0.59698145E-01 0.13859309E+04</pdfrwt>
<pdfrwt beam="2">  1       -2 0.19038628E+00 0.13859309E+04</pdfrwt>
<totfact> 0.12339644E+01</totfact>
</mgrwt>
</event>
<event>
12    1  0.1980523E-007  0.1177774E+04  0.7818608E-02  0.9132536E-01
          2   -1    0    0  501    0  0.00000000000E+00  0.00000000000E+00  0.15803816098E+04  0.15803816098E+04  0.00000000000E+00 0.  1.
         -2   -1    0    0    0  501 -0.00000000000E+00 -0.00000000000E+00 -0.21943302132E+03  0.21943302132E+03  0.00000000000E+00 0. -1.
         23    2    1    2    0    0 -0.21819888875E+03 -0.11475566314E+02  0.18127732582E+03  0.29775377163E+03  0.89740715318E+02 0.  0.
        254    2    1    2    0    0  0.21819888875E+03  0.11475566314E+02  0.11796712626E+04  0.15020608595E+04  0.90378099893E+03 0.  0.
        -24    2    4    4    0    0  0.47581712671E+03  0.11629049490E+03  0.10886398615E+04  0.11965232174E+04  0.81275116805E+02 0.  0.
         24    2    4    4    0    0 -0.25761823795E+03 -0.10481492858E+03  0.91031401192E+02  0.30553764207E+03  0.87824876533E+02 0.  0.
         11    1    3    3    0    0 -0.18956137031E+03  0.18529237068E+02  0.12490995587E+03  0.22777037300E+03  0.00000000000E+00 0. -1.
        -11    1    3    3    0    0 -0.28637518445E+02 -0.30004803381E+02  0.56367369952E+02  0.69983398631E+02  0.00000000000E+00 0.  1.
          4    1    6    6  502    0 -0.26201612918E+03 -0.10899953364E+03  0.83398092510E+02  0.29578470568E+03  0.00000000000E+00 0. -1.
          3    1    5    5  503    0  0.32561762107E+03  0.11395932250E+03  0.71720006101E+03  0.79585770704E+03  0.00000000000E+00 0. -1.
         -4    1    5    5    0  503  0.15019950563E+03  0.23311723933E+01  0.37143980044E+03  0.40066551038E+03  0.00000000000E+00 0.  1.
         -3    1    6    6    0  502  0.43978912230E+01  0.41846050570E+01  0.76333086822E+01  0.97529363850E+01  0.00000000000E+00 0.  1.
<mgrwt>
<rscale>  0 0.11777740E+04</rscale>
<asrwt>0</asrwt>
<pdfrwt beam="1">  1        2 0.24313562E+00 0.11777740E+04</pdfrwt>
<pdfrwt beam="2">  1       -2 0.33758927E-01 0.11777740E+04</pdfrwt>
<totfact> 0.92721164E+01</totfact>
</mgrwt>
</event>
<event>
12    1  0.1980523E-007  0.2569370E+04  0.7818608E-02  0.8378681E-01
          1   -1    0    0  501    0  0.00000000000E+00  0.00000000000E+00  0.16047631250E+04  0.16047631250E+04  0.00000000000E+00 0. -1.
         -1   -1    0    0    0  501 -0.00000000000E+00 -0.00000000000E+00 -0.10284476997E+04  0.10284476997E+04  0.00000000000E+00 0.  1.
         23    2    1    2    0    0  0.17109064126E+03 -0.74304862156E+03  0.10987389667E+04  0.13406874111E+04  0.93926331545E+02 0.  0.
        254    2    1    2    0    0 -0.17109064126E+03  0.74304862156E+03 -0.52242354131E+03  0.12925234136E+04  0.90349164729E+03 0.  0.
        -24    2    4    4    0    0  0.34256340222E+03  0.19576973426E+03 -0.59215101759E+02  0.40692517264E+03  0.80038705987E+02 0.  0.
         24    2    4    4    0    0 -0.51365404348E+03  0.54727888730E+03 -0.46320843955E+03  0.88559824098E+03  0.79796798755E+02 0.  0.
         13    1    3    3    0    0  0.45833376701E+02 -0.40784871147E+03  0.58761164183E+03  0.71674870874E+03  0.00000000000E+00 0. -1.
        -13    1    3    3    0    0  0.12525726456E+03 -0.33519991009E+03  0.51112732484E+03  0.62393870231E+03  0.00000000000E+00 0.  1.
          2    1    6    6  502    0 -0.38905581539E+03  0.45405132006E+03 -0.34647310223E+03  0.69106485898E+03  0.00000000000E+00 0. -1.
          1    1    5    5  503    0  0.30205799085E+03  0.16953213106E+03 -0.24057007107E+02  0.34721594562E+03  0.00000000000E+00 0. -1.
         -2    1    5    5    0  503  0.40505411371E+02  0.26237603197E+02 -0.35158094653E+02  0.59709227021E+02  0.00000000000E+00 0.  1.
         -1    1    6    6    0  502 -0.12459822809E+03  0.93227567236E+02 -0.11673533732E+03  0.19453338201E+03  0.00000000000E+00 0.  1.
<mgrwt>
<rscale>  0 0.25693695E+04</rscale>
<asrwt>0</asrwt>
<pdfrwt beam="1">  1        1 0.24688663E+00 0.25693695E+04</pdfrwt>
<pdfrwt beam="2">  1       -1 0.15822272E+00 0.25693695E+04</pdfrwt>
<totfact> 0.14744878E+00</totfact>
</mgrwt>
</event>
<event>
12    1  0.1980523E-007  0.2270268E+04  0.7818608E-02  0.8489737E-01
         -2   -1    0    0    0  501 -0.00000000000E+00  0.00000000000E+00  0.16401806002E+04  0.16401806002E+04  0.00000000000E+00 0.  1.
          2   -1    0    0  501    0  0.00000000000E+00 -0.00000000000E+00 -0.78560234193E+03  0.78560234193E+03  0.00000000000E+00 0. -1.
         23    2    1    2    0    0  0.31131581287E+03 -0.64707778075E+03 -0.31098322915E+03  0.78716679778E+03  0.85403799854E+02 0.  0.
        254    2    1    2    0    0 -0.31131581287E+03  0.64707778075E+03  0.11655614874E+04  0.16386161443E+04  0.90050102599E+03 0.  0.
        -24    2    4    4    0    0  0.52068722698E+02  0.44759507378E+03  0.68127843014E+02  0.46283142415E+03  0.80740462142E+02 0.  0.
         24    2    4    4    0    0 -0.36338453557E+03  0.19948270697E+03  0.10974336444E+04  0.11757847202E+04  0.79167122445E+02 0.  0.
         13    1    3    3    0    0  0.24703120463E+03 -0.57362636995E+03 -0.28257519656E+03  0.68550738149E+03  0.00000000000E+00 0. -1.
        -13    1    3    3    0    0  0.64284608239E+02 -0.73451410802E+02 -0.28408032587E+02  0.10165941629E+03  0.00000000000E+00 0.  1.
          2    1    6    6  502    0  0.39953856726E+01  0.65976546278E+00  0.15178260380E+02  0.15709168829E+02  0.00000000000E+00 0. -1.
          1    1    5    5  503    0  0.99293252192E+00  0.47727379446E+02 -0.17275717357E+02  0.50767500174E+02  0.00000000000E+00 0. -1.
         -2    1    5    5    0  503  0.51075790176E+02  0.39986769434E+03  0.85403560371E+02  0.41206392397E+03  0.00000000000E+00 0.  1.
         -1    1    6    6    0  502 -0.36737992124E+03  0.19882294151E+03  0.10822553840E+04  0.11600755513E+04  0.00000000000E+00 0.  1.
<mgrwt>
<rscale>  0 0.22702685E+04</rscale>
<asrwt>0</asrwt>
<pdfrwt beam="1">  1        2 0.12086190E+00 0.22702685E+04</pdfrwt>
<pdfrwt beam="2">  1       -2 0.25233548E+00 0.22702685E+04</pdfrwt>
<totfact> 0.19934516E+00</totfact>
</mgrwt>
</event>
<event>
12    1  0.1980523E-007  0.2202135E+04  0.7818608E-02  0.8517540E-01
         -2   -1    0    0    0  501 -0.00000000000E+00  0.00000000000E+00  0.97993925458E+03  0.97993925458E+03  0.00000000000E+00 0.  1.
          2   -1    0    0  501    0  0.00000000000E+00 -0.00000000000E+00 -0.12371682220E+04  0.12371682220E+04  0.00000000000E+00 0. -1.
         23    2    1    2    0    0  0.23329585222E+03  0.78763160280E+03 -0.51318261370E+03  0.97287247407E+03  0.91290522013E+02 0.  0.
        254    2    1    2    0    0 -0.23329585222E+03 -0.78763160280E+03  0.25595364627E+03  0.12442350025E+04  0.89878694698E+03 0.  0.
        -24    2    4    4    0    0 -0.52552081312E+03 -0.57571358833E+03  0.35794485757E+03  0.86142404870E+03  0.79426757595E+02 0.  0.
         24    2    4    4    0    0  0.29222496090E+03 -0.21191801447E+03 -0.10199121130E+03  0.38281095381E+03  0.76402529705E+02 0.  0.
         11    1    3    3    0    0  0.16979860747E+03  0.57029758842E+03 -0.32225073455E+03  0.67669523596E+03  0.00000000000E+00 0.  1.
        -11    1    3    3    0    0  0.63497244745E+02  0.21733401437E+03 -0.19093187915E+03  0.29617723810E+03  0.00000000000E+00 0. -1.
          4    1    6    6  502    0  0.20300103133E+02  0.52452010357E+01 -0.64148997771E+01  0.21926177511E+02  0.00000000000E+00 0. -1.
          1    1    5    5  503    0 -0.12945605565E+03 -0.19276643655E+03  0.93479771524E+02  0.25031227914E+03  0.00000000000E+00 0. -1.
         -2    1    5    5    0  503 -0.39606475746E+03 -0.38294715178E+03  0.26446508605E+03  0.61111176956E+03  0.00000000000E+00 0.  1.
         -3    1    6    6    0  502  0.27192485777E+03 -0.21716321551E+03 -0.95576311523E+02  0.36088477630E+03  0.00000000000E+00 0.  1.
<mgrwt>
<rscale>  0 0.22021351E+04</rscale>
<asrwt>0</asrwt>
<pdfrwt beam="1">  1        2 0.19033357E+00 0.22021351E+04</pdfrwt>
<pdfrwt beam="2">  1       -2 0.15075989E+00 0.22021351E+04</pdfrwt>
<totfact> 0.48633757E+00</totfact>
</mgrwt>
</event>
<event>
12    1  0.1980523E-007  0.1045278E+04  0.7818608E-02  0.9260233E-01
         -1   -1    0    0    0  501 -0.00000000000E+00  0.00000000000E+00  0.59434913265E+03  0.59434913265E+03  0.00000000000E+00 0.  1.
          1   -1    0    0  501    0  0.00000000000E+00 -0.00000000000E+00 -0.45958113646E+03  0.45958113646E+03  0.00000000000E+00 0. -1.
         23    2    1    2    0    0 -0.61268235637E+02  0.57486658331E+02  0.81141385407E+02  0.14732884483E+03  0.89796166453E+02 0.  0.
        254    2    1    2    0    0  0.61268235637E+02 -0.57486658331E+02  0.53626610781E+02  0.90660142428E+03  0.90110588531E+03 0.  0.
        -24    2    4    4    0    0  0.37641215155E+03  0.23047106127E+03  0.12749431299E+03  0.46641246469E+03  0.80515647312E+02 0.  0.
         24    2    4    4    0    0 -0.31514391591E+03 -0.28795771960E+03 -0.73867702206E+02  0.44018895958E+03  0.77939378352E+02 0.  0.
         11    1    3    3    0    0 -0.41026970215E+01  0.21904601585E+02  0.76672824171E+02  0.79845886931E+02  0.00000000000E+00 0.  1.
        -11    1    3    3    0    0 -0.57165538615E+02  0.35582056747E+02  0.44685612354E+01  0.67482957901E+02  0.00000000000E+00 0. -1.
          4    1    6    6  502    0 -0.99611653073E+01 -0.33311979418E+02 -0.16899908439E+02  0.38659018253E+02  0.00000000000E+00 0. -1.
          1    1    5    5  503    0  0.16250432754E+03  0.78125570571E+02  0.88713988994E+02  0.20095132020E+03  0.00000000000E+00 0. -1.
         -2    1    5    5    0  503  0.21390782401E+03  0.15234549069E+03  0.38780323993E+02  0.26546114450E+03  0.00000000000E+00 0.  1.
         -3    1    6    6    0  502 -0.30518275061E+03 -0.25464574018E+03 -0.56967793767E+02  0.40152994133E+03  0.00000000000E+00 0.  1.
<mgrwt>
<rscale>  0 0.10452782E+04</rscale>
<asrwt>0</asrwt>
<pdfrwt beam="1">  1        1 0.70704790E-01 0.10452782E+04</pdfrwt>
<pdfrwt beam="2">  1       -1 0.91438328E-01 0.10452782E+04</pdfrwt>
<totfact> 0.58061619E+01</totfact>
</mgrwt>
</event>
<event>
12    1  0.1980523E-007  0.2589573E+04  0.7818608E-02  0.8371752E-01
          1   -1    0    0  501    0  0.00000000000E+00  0.00000000000E+00  0.40943561186E+04  0.40943561186E+04  0.00000000000E+00 0. -1.
         -1   -1    0    0    0  501 -0.00000000000E+00 -0.00000000000E+00 -0.40945916518E+03  0.40945916518E+03  0.00000000000E+00 0.  1.
         23    2    1    2    0    0 -0.20622707174E+03  0.79284296487E+03  0.25459423396E+03  0.86317940823E+03  0.95555715523E+02 0.  0.
        254    2    1    2    0    0  0.20622707174E+03 -0.79284296487E+03  0.34303027195E+04  0.36406358756E+04  0.90339540579E+03 0.  0.
        -24    2    4    4    0    0 -0.10195639606E+03 -0.23028843145E+03  0.16578961767E+03  0.31270125968E+03  0.82873470535E+02 0.  0.
         24    2    4    4    0    0  0.30818346780E+03 -0.56255453342E+03  0.32645131018E+04  0.33279346159E+04  0.81598792445E+02 0.  0.
         11    1    3    3    0    0 -0.15572171685E+03  0.71497236022E+03  0.21943584775E+03  0.76392854395E+03  0.00000000000E+00 0. -1.
        -11    1    3    3    0    0 -0.50505354884E+02  0.77870604648E+02  0.35158386210E+02  0.99250864284E+02  0.00000000000E+00 0.  1.
          2    1    6    6  502    0  0.12439218481E+03 -0.16078434515E+03  0.92588680643E+03  0.94794060975E+03  0.00000000000E+00 0. -1.
          1    1    5    5  503    0 -0.54956702642E+02 -0.82205171319E+02  0.22634803334E+02  0.10144093690E+03  0.00000000000E+00 0. -1.
         -2    1    5    5    0  503 -0.46999693418E+02 -0.14808326013E+03  0.14315481434E+03  0.21126032278E+03  0.00000000000E+00 0.  1.
         -1    1    6    6    0  502  0.18379128299E+03 -0.40177018826E+03  0.23386262953E+04  0.23799940061E+04  0.00000000000E+00 0.  1.
<mgrwt>
<rscale>  0 0.25895727E+04</rscale>
<asrwt>0</asrwt>
<pdfrwt beam="1">  1        1 0.62990092E+00 0.25895727E+04</pdfrwt>
<pdfrwt beam="2">  1       -1 0.62993720E-01 0.25895727E+04</pdfrwt>
<totfact> 0.17850040E-01</totfact>
</mgrwt>
</event>
<event>
12    1  0.1980523E-007  0.2397243E+04  0.7818608E-02  0.8440536E-01
         -1   -1    0    0    0  501 -0.00000000000E+00  0.00000000000E+00  0.12879538057E+04  0.12879538057E+04  0.00000000000E+00 0.  1.
          1   -1    0    0  501    0  0.00000000000E+00 -0.00000000000E+00 -0.11154853817E+04  0.11154853817E+04  0.00000000000E+00 0. -1.
         23    2    1    2    0    0  0.19892962808E+03  0.91502314982E+03  0.49792652631E+03  0.10647185540E+04  0.94097884841E+02 0.  0.
        254    2    1    2    0    0 -0.19892962808E+03 -0.91502314982E+03 -0.32545810231E+03  0.13387206334E+04  0.89967193822E+03 0.  0.
        -24    2    4    4    0    0 -0.15597867851E+03 -0.39117438415E+03 -0.60229277984E+03  0.73931121644E+03  0.80484378196E+02 0.  0.
         24    2    4    4    0    0 -0.42950949565E+02 -0.52384876567E+03  0.27683467754E+03  0.59940941701E+03  0.79949341153E+02 0.  0.
         13    1    3    3    0    0  0.69808505554E+02  0.47512658863E+03  0.29293515831E+03  0.56252067486E+03  0.00000000000E+00 0.  1.
        -13    1    3    3    0    0  0.12912112252E+03  0.43989656119E+03  0.20499136800E+03  0.50219787911E+03  0.00000000000E+00 0. -1.
          4    1    6    6  502    0 -0.55669714670E+02 -0.46806891545E+03  0.22544510248E+03  0.52250657505E+03  0.00000000000E+00 0. -1.
          3    1    5    5  503    0 -0.94163565640E+02 -0.13875419160E+03 -0.26333607414E+03  0.31219447581E+03  0.00000000000E+00 0. -1.
         -4    1    5    5    0  503 -0.61815112872E+02 -0.25242019255E+03 -0.33895670570E+03  0.42711674062E+03  0.00000000000E+00 0.  1.
         -3    1    6    6    0  502  0.12718765105E+02 -0.55779850217E+02  0.51389575057E+02  0.76902841954E+02  0.00000000000E+00 0.  1.
<mgrwt>
<rscale>  0 0.23972431E+04</rscale>
<asrwt>0</asrwt>
<pdfrwt beam="1">  1        1 0.17161313E+00 0.23972431E+04</pdfrwt>
<pdfrwt beam="2">  1       -1 0.19814674E+00 0.23972431E+04</pdfrwt>
<totfact> 0.17150139E+00</totfact>
</mgrwt>
</event>
<event>
12    1  0.1980523E-007  0.1654541E+04  0.7818608E-02  0.8787725E-01
          1   -1    0    0  501    0  0.00000000000E+00  0.00000000000E+00  0.83014803783E+03  0.83014803783E+03  0.00000000000E+00 0. -1.
         -1   -1    0    0    0  501 -0.00000000000E+00 -0.00000000000E+00 -0.82440267079E+03  0.82440267079E+03  0.00000000000E+00 0.  1.
         23    2    1    2    0    0  0.54579946867E+03  0.18988914415E+03 -0.45424985632E+02  0.58718246735E+03  0.93620903558E+02 0.  0.
        254    2    1    2    0    0 -0.54579946867E+03 -0.18988914415E+03  0.51170352678E+02  0.10673682413E+04  0.89593616425E+03 0.  0.
        -24    2    4    4    0    0 -0.64051190261E+03  0.12173346316E+02  0.30849166032E+03  0.71548360706E+03  0.79661783414E+02 0.  0.
         24    2    4    4    0    0  0.94712433942E+02 -0.20206249046E+03 -0.25732130764E+03  0.35188463421E+03  0.88367670735E+02 0.  0.
         13    1    3    3    0    0  0.15104922780E+03  0.45828622171E+02 -0.54144185032E+02  0.16687637521E+03  0.00000000000E+00 0.  1.
        -13    1    3    3    0    0  0.39475024087E+03  0.14406052198E+03  0.87191993994E+01  0.42030609214E+03  0.00000000000E+00 0. -1.
          2    1    6    6  502    0  0.92399471255E+02 -0.16182393070E+03 -0.15663927447E+03  0.24343481497E+03  0.00000000000E+00 0. -1.
          3    1    5    5  503    0 -0.63388625637E+03  0.10884101768E+02  0.31332712315E+03  0.70718041247E+03  0.00000000000E+00 0. -1.
         -4    1    5    5    0  503 -0.66256462396E+01  0.12892445481E+01 -0.48354628250E+01  0.83031945858E+01  0.00000000000E+00 0.  1.
         -1    1    6    6    0  502  0.23129626864E+01 -0.40238559764E+02 -0.10068203318E+03  0.10844981924E+03  0.00000000000E+00 0.  1.
<mgrwt>
<rscale>  0 0.16545407E+04</rscale>
<asrwt>0</asrwt>
<pdfrwt beam="1">  1        1 0.12771508E+00 0.16545407E+04</pdfrwt>
<pdfrwt beam="2">  1       -1 0.12683118E+00 0.16545407E+04</pdfrwt>
<totfact> 0.10735707E+01</totfact>
</mgrwt>
</event>
<event>
12    1  0.1980523E-007  0.1860256E+04  0.7818608E-02  0.8674897E-01
          1   -1    0    0  501    0  0.00000000000E+00  0.00000000000E+00  0.25923972144E+04  0.25923972144E+04  0.00000000000E+00 0. -1.
         -1   -1    0    0    0  501 -0.00000000000E+00 -0.00000000000E+00 -0.33372110587E+03  0.33372110587E+03  0.00000000000E+00 0.  1.
         23    2    1    2    0    0 -0.40377612929E+03  0.37313017251E+03  0.15634026146E+04  0.16606698102E+04  0.10646687280E+03 0.  0.
        254    2    1    2    0    0  0.40377612929E+03 -0.37313017251E+03  0.69527349390E+03  0.12654485100E+04  0.90315746798E+03 0.  0.
        -24    2    4    4    0    0  0.21138065948E+03 -0.53362435223E+03  0.79515117573E+03  0.98398489487E+03  0.80772201690E+02 0.  0.
         24    2    4    4    0    0  0.19239546980E+03  0.16049417972E+03 -0.99877681831E+02  0.28146361515E+03  0.80447602831E+02 0.  0.
         11    1    3    3    0    0 -0.14058472340E+03  0.19938087952E+03  0.64199299554E+03  0.68678366746E+03  0.00000000000E+00 0. -1.
        -11    1    3    3    0    0 -0.26319140589E+03  0.17374929298E+03  0.92140961909E+03  0.97388614278E+03  0.00000000000E+00 0.  1.
          2    1    6    6  502    0  0.51769375762E+02  0.94618353962E+02 -0.40625397532E+02  0.11525243641E+03  0.00000000000E+00 0. -1.
          1    1    5    5  503    0  0.17567690204E+03 -0.48134144973E+03  0.66745765814E+03  0.84145807415E+03  0.00000000000E+00 0. -1.
         -2    1    5    5    0  503  0.35703757444E+02 -0.52282902491E+02  0.12769351759E+03  0.14252682072E+03  0.00000000000E+00 0.  1.
         -1    1    6    6    0  502  0.14062609404E+03  0.65875825757E+02 -0.59252284299E+02  0.16621117874E+03  0.00000000000E+00 0.  1.
<mgrwt>
<rscale>  0 0.18602555E+04</rscale>
<asrwt>0</asrwt>
<pdfrwt beam="1">  1        1 0.39883033E+00 0.18602555E+04</pdfrwt>
<pdfrwt beam="2">  1       -1 0.51341710E-01 0.18602555E+04</pdfrwt>
<totfact> 0.41888957E+00</totfact>
</mgrwt>
</event>
<event>
12    1  0.1980523E-007  0.3487460E+04  0.7818608E-02  0.8116768E-01
         -2   -1    0    0    0  501 -0.00000000000E+00  0.00000000000E+00  0.24971233030E+04  0.24971233030E+04  0.00000000000E+00 0.  1.
          2   -1    0    0  501    0  0.00000000000E+00 -0.00000000000E+00 -0.12176390909E+04  0.12176390909E+04  0.00000000000E+00 0. -1.
         23    2    1    2    0    0 -0.11601807528E+03  0.11497272595E+04  0.18159830715E+04  0.21544168591E+04  0.91567033390E+02 0.  0.
        254    2    1    2    0    0  0.11601807528E+03 -0.11497272595E+04 -0.53649885939E+03  0.15603455349E+04  0.90084082783E+03 0.  0.
        -24    2    4    4    0    0 -0.25591973443E+03 -0.21163399752E+03 -0.41892549854E+03  0.54105821121E+03  0.83435934798E+02 0.  0.
         24    2    4    4    0    0  0.37193780971E+03 -0.93809326197E+03 -0.11757336085E+03  0.10192873237E+04  0.82258437558E+02 0.  0.
         11    1    3    3    0    0  0.43365919887E+01  0.85140129832E+02  0.99599898445E+02  0.13110220253E+03  0.00000000000E+00 0. -1.
        -11    1    3    3    0    0 -0.12035466727E+03  0.10645871297E+04  0.17163831731E+04  0.20233146565E+04  0.00000000000E+00 0.  1.
          2    1    6    6  502    0  0.17143211351E+03 -0.54301163209E+03 -0.64531378712E+02  0.57307495231E+03  0.00000000000E+00 0. -1.
          1    1    5    5  503    0 -0.25360737141E+03 -0.20524061973E+03 -0.42215543320E+03  0.53353127425E+03  0.00000000000E+00 0. -1.
         -2    1    5    5    0  503 -0.23123630247E+01 -0.63933777839E+01  0.32299346544E+01  0.75269369678E+01  0.00000000000E+00 0.  1.
         -1    1    6    6    0  502  0.20050569620E+03 -0.39508162988E+03 -0.53041982135E+02  0.44621237135E+03  0.00000000000E+00 0.  1.
<mgrwt>
<rscale>  0 0.34874604E+04</rscale>
<asrwt>0</asrwt>
<pdfrwt beam="1">  1        2 0.18732909E+00 0.34874604E+04</pdfrwt>
<pdfrwt beam="2">  1       -2 0.38417282E+00 0.34874604E+04</pdfrwt>
<totfact> 0.14297771E-01</totfact>
</mgrwt>
</event>
<event>
12    1  0.1980523E-007  0.1896199E+04  0.7818608E-02  0.8656751E-01
         -1   -1    0    0    0  501 -0.00000000000E+00  0.00000000000E+00  0.86340325796E+03  0.86340325796E+03  0.00000000000E+00 0.  1.
          1   -1    0    0  501    0  0.00000000000E+00 -0.00000000000E+00 -0.10411039543E+04  0.10411039543E+04  0.00000000000E+00 0. -1.
         23    2    1    2    0    0 -0.64572342953E+03 -0.14380275614E+03  0.24157714769E+03  0.71149281042E+03  0.10111637289E+03 0.  0.
        254    2    1    2    0    0  0.64572342953E+03  0.14380275614E+03 -0.41927784401E+03  0.11930144018E+04  0.89991748088E+03 0.  0.
        -24    2    4    4    0    0  0.18559684502E+03  0.40935710191E+03  0.76160344468E+02  0.46235574437E+03  0.77155754955E+02 0.  0.
         24    2    4    4    0    0  0.46012658452E+03 -0.26555434577E+03 -0.49543818848E+03  0.73065865747E+03  0.78533373717E+02 0.  0.
         11    1    3    3    0    0 -0.30767242789E+03 -0.76006001909E+02  0.16895621005E+03  0.35914542476E+03  0.00000000000E+00 0.  1.
        -11    1    3    3    0    0 -0.33805100165E+03 -0.67796754228E+02  0.72620937634E+02  0.35234738566E+03  0.00000000000E+00 0. -1.
          4    1    6    6  502    0  0.40528158246E+03 -0.20403061265E+03 -0.43373447450E+03  0.62769996523E+03  0.00000000000E+00 0. -1.
          1    1    5    5  503    0  0.18721687786E+03  0.38018628998E+03  0.84172886762E+02  0.43206116385E+03  0.00000000000E+00 0. -1.
         -2    1    5    5    0  503 -0.16200328403E+01  0.29170811931E+02 -0.80125422935E+01  0.30294580524E+02  0.00000000000E+00 0.  1.
         -3    1    6    6    0  502  0.54845002058E+02 -0.61523733123E+02 -0.61703713978E+02  0.10295869223E+03  0.00000000000E+00 0.  1.
<mgrwt>
<rscale>  0 0.18961989E+04</rscale>
<asrwt>0</asrwt>
<pdfrwt beam="1">  1        1 0.16016984E+00 0.18961989E+04</pdfrwt>
<pdfrwt beam="2">  1       -1 0.13283127E+00 0.18961989E+04</pdfrwt>
<totfact> 0.63184140E+00</totfact>
</mgrwt>
</event>
<event>
12    1  0.1980523E-007  0.1173948E+04  0.7818608E-02  0.9135970E-01
          1   -1    0    0  501    0  0.00000000000E+00  0.00000000000E+00  0.29554633527E+03  0.29554633527E+03  0.00000000000E+00 0. -1.
         -1   -1    0    0    0  501 -0.00000000000E+00 -0.00000000000E+00 -0.11657688942E+04  0.11657688942E+04  0.00000000000E+00 0.  1.
         23    2    1    2    0    0  0.22326092141E+03  0.55254701358E+02 -0.10481517896E+03  0.25866227609E+03  0.54967538412E+02 0.  0.
        254    2    1    2    0    0 -0.22326092141E+03 -0.55254701358E+02 -0.76540738001E+03  0.12026529534E+04  0.89868078202E+03 0.  0.
        -24    2    4    4    0    0 -0.49799113539E+03 -0.25745765442E+03 -0.54819657555E+03  0.78840323204E+03  0.82344132192E+02 0.  0.
         24    2    4    4    0    0  0.27473021397E+03  0.20220295306E+03 -0.21721080446E+03  0.41424972139E+03  0.89775126835E+02 0.  0.
         11    1    3    3    0    0  0.11492393407E+03  0.52652445339E+02 -0.71787829425E+02  0.14537291039E+03  0.00000000000E+00 0.  1.
        -11    1    3    3    0    0  0.10833698734E+03  0.26022560186E+01 -0.33027349538E+02  0.11328936570E+03  0.00000000000E+00 0. -1.
          4    1    6    6  502    0  0.21158439660E+03  0.12705471799E+03 -0.19259099504E+03  0.31305295019E+03  0.00000000000E+00 0. -1.
          3    1    5    5  503    0 -0.10403333505E+03 -0.30081227410E+02 -0.73054808398E+02  0.13063238525E+03  0.00000000000E+00 0. -1.
         -4    1    5    5    0  503 -0.39395780033E+03 -0.22737642701E+03 -0.47514176715E+03  0.65777084679E+03  0.00000000000E+00 0.  1.
         -3    1    6    6    0  502  0.63145817373E+02  0.75148235072E+02 -0.24619809420E+02  0.10119677120E+03  0.00000000000E+00 0.  1.
<mgrwt>
<rscale>  0 0.11739484E+04</rscale>
<asrwt>0</asrwt>
<pdfrwt beam="1">  1        1 0.45468668E-01 0.11739484E+04</pdfrwt>
<pdfrwt beam="2">  1       -1 0.17934906E+00 0.11739484E+04</pdfrwt>
<totfact> 0.18650195E+01</totfact>
</mgrwt>
</event>
<event>
12    1  0.1980523E-007  0.1477700E+04  0.7818608E-02  0.8899419E-01
          1   -1    0    0  501    0  0.00000000000E+00  0.00000000000E+00  0.17908245534E+04  0.17908245534E+04  0.00000000000E+00 0.  1.
         -1   -1    0    0    0  501 -0.00000000000E+00 -0.00000000000E+00 -0.30483134405E+03  0.30483134405E+03  0.00000000000E+00 0. -1.
         23    2    1    2    0    0  0.24998977743E+03 -0.28639472031E+03  0.84087448092E+03  0.92713950718E+03  0.89448021075E+02 0.  0.
        254    2    1    2    0    0 -0.24998977743E+03  0.28639472031E+03  0.64511872844E+03  0.11685163903E+04  0.89707054121E+03 0.  0.
        -24    2    4    4    0    0  0.20593170188E+03  0.43091209832E+03  0.25939664342E+03  0.54940807291E+03  0.80433262033E+02 0.  0.
         24    2    4    4    0    0 -0.45592147931E+03 -0.14451737801E+03  0.38572208501E+03  0.61910831736E+03  0.75920444611E+02 0.  0.
         13    1    3    3    0    0  0.35533400103E+02 -0.53385657059E+02  0.23375354383E+03  0.24239094487E+03  0.00000000000E+00 0.  1.
        -13    1    3    3    0    0  0.21445637733E+03 -0.23300906325E+03  0.60712093708E+03  0.68474856231E+03  0.00000000000E+00 0. -1.
          4    1    6    6  502    0 -0.39399236016E+03 -0.14824915868E+03  0.35043402095E+03  0.54773332558E+03  0.00000000000E+00 0. -1.
          3    1    5    5  503    0  0.19059246998E+03  0.36303061335E+03  0.24714276506E+03  0.47874446437E+03  0.00000000000E+00 0. -1.
         -4    1    5    5    0  503  0.15339231895E+02  0.67881484969E+02  0.12253878364E+02  0.70663608538E+02  0.00000000000E+00 0.  1.
         -3    1    6    6    0  502 -0.61929119156E+02  0.37317806649E+01  0.35288064067E+02  0.71374991783E+02  0.00000000000E+00 0.  1.
<mgrwt>
<rscale>  0 0.14777002E+04</rscale>
<asrwt>0</asrwt>
<pdfrwt beam="1">  1        1 0.27551146E+00 0.14777002E+04</pdfrwt>
<pdfrwt beam="2">  1       -1 0.46897131E-01 0.14777002E+04</pdfrwt>
<totfact> 0.18156149E+01</totfact>
</mgrwt>
</event>
<event>
12    1  0.1980523E-007  0.2660248E+04  0.7818608E-02  0.8348020E-01
          1   -1    0    0  501    0  0.00000000000E+00  0.00000000000E+00  0.10608774590E+04  0.10608774590E+04  0.00000000000E+00 0. -1.
         -1   -1    0    0    0  501 -0.00000000000E+00 -0.00000000000E+00 -0.16677040125E+04  0.16677040125E+04  0.00000000000E+00 0.  1.
         23    2    1    2    0    0  0.85816366002E+03  0.58256476108E+03  0.30192686866E+03  0.10842158837E+04  0.92399568378E+02 0.  0.
        254    2    1    2    0    0 -0.85816366002E+03 -0.58256476108E+03 -0.90875342220E+03  0.16443655878E+04  0.89570019309E+03 0.  0.
        -24    2    4    4    0    0 -0.94469526707E+02  0.22305743307E+03 -0.12612323226E+03  0.28382202687E+03  0.77257771774E+02 0.  0.
         24    2    4    4    0    0 -0.76369413331E+03 -0.80562219414E+03 -0.78263018995E+03  0.13605435610E+04  0.79453874319E+02 0.  0.
         13    1    3    3    0    0  0.49769884857E+03  0.36349400422E+03  0.22085140187E+03  0.65468112595E+03  0.00000000000E+00 0. -1.
        -13    1    3    3    0    0  0.36046481145E+03  0.21907075685E+03  0.81075466795E+02  0.42953475776E+03  0.00000000000E+00 0.  1.
          4    1    6    6  502    0 -0.12015063233E+03 -0.97334460499E+02 -0.13226958175E+03  0.20348320301E+03  0.00000000000E+00 0. -1.
          1    1    5    5  503    0 -0.29449304739E+02  0.15524571716E+02 -0.18552825371E+01  0.33342404680E+02  0.00000000000E+00 0. -1.
         -2    1    5    5    0  503 -0.65020221968E+02  0.20753286135E+03 -0.12426794972E+03  0.25047962219E+03  0.00000000000E+00 0.  1.
         -3    1    6    6    0  502 -0.64354350098E+03 -0.70828773364E+03 -0.65036060820E+03  0.11570603580E+04  0.00000000000E+00 0.  1.
<mgrwt>
<rscale>  0 0.26602478E+04</rscale>
<asrwt>0</asrwt>
<pdfrwt beam="1">  1        1 0.16321192E+00 0.26602478E+04</pdfrwt>
<pdfrwt beam="2">  1       -1 0.25656985E+00 0.26602478E+04</pdfrwt>
<totfact> 0.75131127E-01</totfact>
</mgrwt>
</event>
<event>
12    1  0.1980523E-007  0.3564816E+04  0.7818608E-02  0.8098599E-01
         -2   -1    0    0    0  501 -0.00000000000E+00  0.00000000000E+00  0.12499442096E+04  0.12499442096E+04  0.00000000000E+00 0.  1.
          2   -1    0    0  501    0  0.00000000000E+00 -0.00000000000E+00 -0.25416961959E+04  0.25416961959E+04  0.00000000000E+00 0. -1.
         23    2    1    2    0    0 -0.12859348941E+04  0.56162862079E+03  0.35435147685E+03  0.14500324806E+04  0.89297067757E+02 0.  0.
        254    2    1    2    0    0  0.12859348941E+04 -0.56162862079E+03 -0.16461034632E+04  0.23416079249E+04  0.89689230305E+03 0.  0.
        -24    2    4    4    0    0  0.94369867868E+03  0.62364849302E+02 -0.90813712343E+03  0.13134448997E+04  0.77252178799E+02 0.  0.
         24    2    4    4    0    0  0.34223621537E+03 -0.62399347010E+03 -0.73796633972E+03  0.10281630252E+04  0.77662152777E+02 0.  0.
         13    1    3    3    0    0 -0.19627644561E+03  0.12165600898E+03  0.55552634904E+02  0.23750941637E+03  0.00000000000E+00 0. -1.
        -13    1    3    3    0    0 -0.10896584484E+04  0.43997261181E+03  0.29879884195E+03  0.12125230643E+04  0.00000000000E+00 0.  1.
          4    1    6    6  502    0  0.83545856880E+02 -0.12011288502E+03 -0.19268491956E+03  0.24193902863E+03  0.00000000000E+00 0. -1.
          1    1    5    5  503    0  0.38945330189E+03  0.63410470060E+02 -0.38601882346E+03  0.55200117222E+03  0.00000000000E+00 0. -1.
         -2    1    5    5    0  503  0.55424537679E+03 -0.10456207583E+01 -0.52211829997E+03  0.76144372752E+03  0.00000000000E+00 0.  1.
         -1    1    6    6    0  502  0.25869035849E+03 -0.50388058507E+03 -0.54528142017E+03  0.78622399656E+03  0.00000000000E+00 0.  1.
<mgrwt>
<rscale>  0 0.35648161E+04</rscale>
<asrwt>0</asrwt>
<pdfrwt beam="1">  1        2 0.39103018E+00 0.35648161E+04</pdfrwt>
<pdfrwt beam="2">  1       -2 0.19229911E+00 0.35648161E+04</pdfrwt>
<totfact> 0.40249718E-01</totfact>
</mgrwt>
</event>
<event>
12    1  0.1980523E-007  0.1371872E+04  0.7818608E-02  0.8974434E-01
         -2   -1    0    0    0  501 -0.00000000000E+00  0.00000000000E+00  0.70026904822E+03  0.70026904822E+03  0.00000000000E+00 0.  1.
          2   -1    0    0  501    0  0.00000000000E+00 -0.00000000000E+00 -0.67189652276E+03  0.67189652276E+03  0.00000000000E+00 0. -1.
         23    2    1    2    0    0 -0.19124523381E+03  0.33238628057E+03  0.16689298449E+02  0.39538225892E+03  0.94832584147E+02 0.  0.
        254    2    1    2    0    0  0.19124523381E+03 -0.33238628057E+03  0.11683227018E+02  0.97678331207E+03  0.89828378699E+03 0.  0.
        -24    2    4    4    0    0  0.42923787768E+03 -0.50752006043E+03  0.76970138723E+01  0.66950390732E+03  0.79714932836E+02 0.  0.
         24    2    4    4    0    0 -0.23799264387E+03  0.17513377986E+03  0.39862131458E+01  0.30727940475E+03  0.84216407549E+02 0.  0.
         11    1    3    3    0    0 -0.12154272935E+03  0.11826477281E+03  0.22463808061E-01  0.16958535329E+03  0.00000000000E+00 0. -1.
        -11    1    3    3    0    0 -0.69702504462E+02  0.21412150776E+03  0.16666834641E+02  0.22579690563E+03  0.00000000000E+00 0.  1.
          2    1    6    6  502    0 -0.32230346908E+02  0.34687057453E+02  0.31150509911E+02  0.56677521860E+02  0.00000000000E+00 0. -1.
          1    1    5    5  503    0  0.32616177546E+03 -0.35734515277E+03 -0.24937792678E+02  0.48445738252E+03  0.00000000000E+00 0. -1.
         -2    1    5    5    0  503  0.10307610223E+03 -0.15017490766E+03  0.32634806550E+02  0.18504652480E+03  0.00000000000E+00 0.  1.
         -1    1    6    6    0  502 -0.20576229697E+03  0.14044672241E+03 -0.27164296765E+02  0.25060188289E+03  0.00000000000E+00 0.  1.
<mgrwt>
<rscale>  0 0.13718722E+04</rscale>
<asrwt>0</asrwt>
<pdfrwt beam="1">  1        2 0.10336870E+00 0.13718722E+04</pdfrwt>
<pdfrwt beam="2">  1       -2 0.10773370E+00 0.13718722E+04</pdfrwt>
<totfact> 0.29076452E+01</totfact>
</mgrwt>
</event>
<event>
12    1  0.1980523E-007  0.1769677E+04  0.7818608E-02  0.8722593E-01
         -2   -1    0    0    0  501 -0.00000000000E+00  0.00000000000E+00  0.27089784850E+03  0.27089784850E+03  0.00000000000E+00 0.  1.
          2   -1    0    0  501    0  0.00000000000E+00 -0.00000000000E+00 -0.28901629634E+04  0.28901629634E+04  0.00000000000E+00 0. -1.
         23    2    1    2    0    0 -0.33954708387E+02  0.48982801406E+03 -0.16845814328E+04  0.17570687830E+04  0.91606215470E+02 0.  0.
        254    2    1    2    0    0  0.33954708387E+02 -0.48982801406E+03 -0.93468368202E+03  0.14039920289E+04  0.92545968367E+03 0.  0.
        -24    2    4    4    0    0  0.16652499275E+03 -0.17741561340E+03 -0.10142839783E+04  0.10462315951E+04  0.81373760492E+02 0.  0.
         24    2    4    4    0    0 -0.13257028436E+03 -0.31241240066E+03  0.79600296240E+02  0.35776043379E+03  0.80498027537E+02 0.  0.
         13    1    3    3    0    0 -0.36832529482E+02  0.41990607044E+03 -0.15367274371E+04  0.15934895542E+04  0.00000000000E+00 0. -1.
        -13    1    3    3    0    0  0.28778210948E+01  0.69921943623E+02 -0.14785399569E+03  0.16357922881E+03  0.00000000000E+00 0.  1.
          2    1    6    6  502    0 -0.26659444544E+01 -0.60482201693E+02  0.37464957142E+02  0.71195695061E+02  0.00000000000E+00 0. -1.
          3    1    5    5  503    0 -0.18840979291E+01 -0.47863925221E+00  0.85009006647E+00  0.21216912266E+01  0.00000000000E+00 0. -1.
         -4    1    5    5    0  503  0.16840909068E+03 -0.17693697414E+03 -0.10151340683E+04  0.10441099039E+04  0.00000000000E+00 0.  1.
         -1    1    6    6    0  502 -0.12990433991E+03 -0.25193019897E+03  0.42135339098E+02  0.28656473873E+03  0.00000000000E+00 0.  1.
<mgrwt>
<rscale>  0 0.17696767E+04</rscale>
<asrwt>0</asrwt>
<pdfrwt beam="1">  1        2 0.44464045E+00 0.17696767E+04</pdfrwt>
<pdfrwt beam="2">  1       -2 0.41676593E-01 0.17696767E+04</pdfrwt>
<totfact> 0.10553065E+01</totfact>
</mgrwt>
</event>
<event>
12    1  0.1980523E-007  0.1643519E+04  0.7818608E-02  0.8794250E-01
          2   -1    0    0  501    0  0.00000000000E+00  0.00000000000E+00  0.43943334952E+03  0.43943334952E+03  0.00000000000E+00 0. -1.
         -2   -1    0    0    0  501 -0.00000000000E+00 -0.00000000000E+00 -0.15367252971E+04  0.15367252971E+04  0.00000000000E+00 0.  1.
         23    2    1    2    0    0 -0.71622318870E+01 -0.41673935514E+03  0.82601524230E+02  0.43423193865E+03  0.89506296181E+02 0.  0.
        254    2    1    2    0    0  0.71622318870E+01  0.41673935514E+03 -0.11798934718E+04  0.15419267080E+04  0.90092529116E+03 0.  0.
        -24    2    4    4    0    0 -0.57833272130E+02  0.69023266035E+03 -0.77496448228E+03  0.10425231716E+04  0.80739097155E+02 0.  0.
         24    2    4    4    0    0  0.64995504017E+02 -0.27349330522E+03 -0.40492898954E+03  0.49940353635E+03  0.80083718733E+02 0.  0.
         11    1    3    3    0    0  0.30004181453E+02 -0.14732844427E+03  0.58026549932E+02  0.16116141565E+03  0.00000000000E+00 0. -1.
        -11    1    3    3    0    0 -0.37166413340E+02 -0.26941091086E+03  0.24574974299E+02  0.27307052300E+03  0.00000000000E+00 0.  1.
          4    1    6    6  502    0  0.21259195298E+02 -0.22062980059E+03 -0.33278069748E+03  0.39984053685E+03  0.00000000000E+00 0. -1.
          1    1    5    5  503    0 -0.65463124065E+02  0.67606688015E+03 -0.74261992232E+03  0.10063976332E+04  0.00000000000E+00 0. -1.
         -2    1    5    5    0  503  0.76298519348E+01  0.14165780204E+02 -0.32344559955E+02  0.36125538446E+02  0.00000000000E+00 0.  1.
         -3    1    6    6    0  502  0.43736308719E+02 -0.52863504627E+02 -0.72148292058E+02  0.99562999496E+02  0.00000000000E+00 0.  1.
<mgrwt>
<rscale>  0 0.16435186E+04</rscale>
<asrwt>0</asrwt>
<pdfrwt beam="1">  1        2 0.67605130E-01 0.16435186E+04</pdfrwt>
<pdfrwt beam="2">  1       -2 0.23641928E+00 0.16435186E+04</pdfrwt>
<totfact> 0.53236013E+00</totfact>
</mgrwt>
</event>
<event>
12    1  0.1980523E-007  0.1800855E+04  0.7818608E-02  0.8705845E-01
         -2   -1    0    0    0  501 -0.00000000000E+00  0.00000000000E+00  0.83616178437E+03  0.83616178437E+03  0.00000000000E+00 0. -1.
          2   -1    0    0  501    0  0.00000000000E+00 -0.00000000000E+00 -0.96963296647E+03  0.96963296647E+03  0.00000000000E+00 0.  1.
         23    2    1    2    0    0  0.65618842809E+03 -0.91752027013E+02 -0.16198977094E+03  0.68802066490E+03  0.90166855465E+02 0.  0.
        254    2    1    2    0    0 -0.65618842809E+03  0.91752027013E+02  0.28518588834E+02  0.11177740859E+04  0.89977992291E+03 0.  0.
        -24    2    4    4    0    0 -0.33698555212E+03 -0.30186832395E+03 -0.26108905190E+03  0.52865927884E+03  0.81421082906E+02 0.  0.
         24    2    4    4    0    0 -0.31920287596E+03  0.39362035096E+03  0.28960764073E+03  0.58911480710E+03  0.79725865692E+02 0.  0.
         13    1    3    3    0    0  0.41552003129E+03 -0.85670405476E+02 -0.68471048868E+02  0.42974946110E+03  0.00000000000E+00 0. -1.
        -13    1    3    3    0    0  0.24066839679E+03 -0.60816215368E+01 -0.93518722073E+02  0.25827120380E+03  0.00000000000E+00 0.  1.
          2    1    6    6  502    0 -0.35502235574E+02  0.15504994459E+02  0.34929450742E+02  0.52162056258E+02  0.00000000000E+00 0. -1.
          1    1    5    5  503    0 -0.90935063338E+02 -0.97282401819E+02 -0.11880012471E+03  0.17845593596E+03  0.00000000000E+00 0. -1.
         -2    1    5    5    0  503 -0.24605048879E+03 -0.20458592213E+03 -0.14228892718E+03  0.35020334288E+03  0.00000000000E+00 0.  1.
         -1    1    6    6    0  502 -0.28370064039E+03  0.37811535650E+03  0.25467818999E+03  0.53695275084E+03  0.00000000000E+00 0.  1.
<mgrwt>
<rscale>  0 0.18008554E+04</rscale>
<asrwt>0</asrwt>
<pdfrwt beam="1">  1        2 0.14917430E+00 0.18008554E+04</pdfrwt>
<pdfrwt beam="2">  1       -2 0.12864027E+00 0.18008554E+04</pdfrwt>
<totfact> 0.11097027E+01</totfact>
</mgrwt>
</event>
<event>
12    1  0.2180954E-007  0.1645017E+04  0.7818608E-02  0.8793360E-01
          2   -1    0    0  501    0  0.00000000000E+00  0.00000000000E+00  0.20059834909E+04  0.20059834909E+04  0.00000000000E+00 0.  1.
         -2   -1    0    0    0  501 -0.00000000000E+00 -0.00000000000E+00 -0.33725103720E+03  0.33725103720E+03  0.00000000000E+00 0. -1.
         23    2    1    2    0    0 -0.38747170976E+03  0.59097375762E+00 -0.10764120187E+02  0.39809317327E+03  0.90706301917E+02 0.  0.
        254    2    1    2    0    0  0.38747170976E+03 -0.59097375762E+00  0.16794965739E+04  0.19451413548E+04  0.90151620808E+03 0.  0.
        -24    2    4    4    0    0 -0.15717672833E+02 -0.39875470319E+03  0.63097861370E+03  0.75079718736E+03  0.79435804526E+02 0.  0.
         24    2    4    4    0    0  0.40318938259E+03  0.39816372944E+03  0.10485179602E+04  0.11943441674E+04  0.77279000020E+02 0.  0.
         11    1    3    3    0    0 -0.14175199502E+03  0.15589459343E+02 -0.45020033730E+02  0.14954418335E+03  0.00000000000E+00 0. -1.
        -11    1    3    3    0    0 -0.24571971473E+03 -0.14998485585E+02  0.34255913543E+02  0.24854898992E+03  0.00000000000E+00 0.  1.
          2    1    6    6  502    0  0.50199286505E+02  0.54919745518E+02  0.90068301732E+02  0.11682656286E+03  0.00000000000E+00 0. -1.
          1    1    5    5  503    0  0.46292900190E+01 -0.24962010945E+02  0.85740450858E+02  0.89420116472E+02  0.00000000000E+00 0. -1.
         -2    1    5    5    0  503 -0.20346962852E+02 -0.37379269225E+03  0.54523816284E+03  0.66137707089E+03  0.00000000000E+00 0.  1.
         -1    1    6    6    0  502  0.35299009609E+03  0.34324398392E+03  0.95844965843E+03  0.10775176046E+04  0.00000000000E+00 0.  1.
<mgrwt>
<rscale>  0 0.16450167E+04</rscale>
<asrwt>0</asrwt>
<pdfrwt beam="1">  1        2 0.30861284E+00 0.16450167E+04</pdfrwt>
<pdfrwt beam="2">  1       -2 0.51884776E-01 0.16450167E+04</pdfrwt>
<totfact> 0.22228909E+01</totfact>
</mgrwt>
</event>
<event>
12    1  0.1980523E-007  0.2277669E+04  0.7818608E-02  0.8486778E-01
          1   -1    0    0  501    0  0.00000000000E+00  0.00000000000E+00  0.79177941247E+03  0.79177941247E+03  0.00000000000E+00 0. -1.
         -1   -1    0    0    0  501 -0.00000000000E+00 -0.00000000000E+00 -0.16380114569E+04  0.16380114569E+04  0.00000000000E+00 0.  1.
         23    2    1    2    0    0 -0.57419690645E+03  0.68647730753E+03  0.92092585684E+01  0.89969483635E+03  0.91721355088E+02 0.  0.
        254    2    1    2    0    0  0.57419690645E+03 -0.68647730753E+03 -0.85544130296E+03  0.15300960330E+04  0.89914451909E+03 0.  0.
        -24    2    4    4    0    0  0.78983948559E+03 -0.45806556536E+03 -0.48354144453E+03  0.10363021775E+04  0.80245867522E+02 0.  0.
         24    2    4    4    0    0 -0.21564257914E+03 -0.22841174217E+03 -0.37189985843E+03  0.49379385553E+03  0.82760021456E+02 0.  0.
         13    1    3    3    0    0 -0.19317143919E+03  0.22566481586E+03  0.46161471546E+02  0.30061719094E+03  0.00000000000E+00 0. -1.
        -13    1    3    3    0    0 -0.38102546726E+03  0.46081249167E+03 -0.36952212977E+02  0.59907764540E+03  0.00000000000E+00 0.  1.
          4    1    6    6  502    0 -0.21382154198E+02 -0.38692649113E+02 -0.18011131598E+02  0.47735924365E+02  0.00000000000E+00 0. -1.
          3    1    5    5  503    0  0.33691088288E+03 -0.21071769046E+03 -0.25298107144E+03  0.47107357237E+03  0.00000000000E+00 0. -1.
         -4    1    5    5    0  503  0.45292860271E+03 -0.24734787490E+03 -0.23056037309E+03  0.56522860509E+03  0.00000000000E+00 0.  1.
         -3    1    6    6    0  502 -0.19426042495E+03 -0.18971909306E+03 -0.35388872683E+03  0.44605793116E+03  0.00000000000E+00 0.  1.
<mgrwt>
<rscale>  0 0.22776688E+04</rscale>
<asrwt>0</asrwt>
<pdfrwt beam="1">  1        1 0.12181222E+00 0.22776688E+04</pdfrwt>
<pdfrwt beam="2">  1       -1 0.25200176E+00 0.22776688E+04</pdfrwt>
<totfact> 0.13771567E+00</totfact>
</mgrwt>
</event>
<event>
12    1  0.1980523E-007  0.3812294E+04  0.7818608E-02  0.8043522E-01
         -2   -1    0    0    0  501 -0.00000000000E+00  0.00000000000E+00  0.17725058700E+04  0.17725058700E+04  0.00000000000E+00 0.  1.
          2   -1    0    0  501    0  0.00000000000E+00 -0.00000000000E+00 -0.20498637969E+04  0.20498637969E+04  0.00000000000E+00 0. -1.
         23    2    1    2    0    0 -0.32282866485E+03 -0.13549072991E+04 -0.12592052362E+04  0.18798208095E+04  0.90201513612E+02 0.  0.
        254    2    1    2    0    0  0.32282866485E+03  0.13549072991E+04  0.98184730930E+03  0.19425488574E+04  0.93245900112E+03 0.  0.
        -24    2    4    4    0    0  0.59415023830E+03  0.56482410856E+03  0.36448948158E+03  0.90080979083E+03  0.81024180180E+02 0.  0.
         24    2    4    4    0    0 -0.27132157345E+03  0.79008319050E+03  0.61735782771E+03  0.10417390666E+04  0.79011083291E+02 0.  0.
         13    1    3    3    0    0 -0.14035741956E+03 -0.52480489107E+03 -0.54728133865E+03  0.77112725445E+03  0.00000000000E+00 0. -1.
        -13    1    3    3    0    0 -0.18247124529E+03 -0.83010240799E+03 -0.71192389751E+03  0.11086935550E+04  0.00000000000E+00 0.  1.
          2    1    6    6  502    0 -0.11408143981E+03  0.24188683394E+03  0.22508803517E+03  0.34955462938E+03  0.00000000000E+00 0. -1.
          3    1    5    5  503    0  0.41537440558E+03  0.39761362022E+03  0.21441949275E+03  0.61368412613E+03  0.00000000000E+00 0. -1.
         -4    1    5    5    0  503  0.17877583273E+03  0.16721048834E+03  0.15006998883E+03  0.28712566470E+03  0.00000000000E+00 0.  1.
         -3    1    6    6    0  502 -0.15724013364E+03  0.54819635655E+03  0.39226979255E+03  0.69218443720E+03  0.00000000000E+00 0.  1.
<mgrwt>
<rscale>  0 0.38122936E+04</rscale>
<asrwt>0</asrwt>
<pdfrwt beam="1">  1        2 0.31536366E+00 0.38122936E+04</pdfrwt>
<pdfrwt beam="2">  1       -2 0.27269321E+00 0.38122936E+04</pdfrwt>
<totfact> 0.23428001E-01</totfact>
</mgrwt>
</event>
<event>
12    1  0.1980523E-007  0.2365271E+04  0.7818608E-02  0.8452621E-01
          2   -1    0    0  501    0  0.00000000000E+00  0.00000000000E+00  0.25938056080E+04  0.25938056080E+04  0.00000000000E+00 0. -1.
         -2   -1    0    0    0  501 -0.00000000000E+00 -0.00000000000E+00 -0.53921818637E+03  0.53921818637E+03  0.00000000000E+00 0.  1.
         23    2    1    2    0    0 -0.14957776032E+03 -0.99728288343E+03  0.87061016916E+03  0.13353926621E+04  0.91459495438E+02 0.  0.
        254    2    1    2    0    0  0.14957776032E+03  0.99728288343E+03  0.11839772524E+04  0.17976311323E+04  0.90151477936E+03 0.  0.
        -24    2    4    4    0    0  0.34920756867E+03  0.36700843912E+03  0.95425132745E+02  0.52160709756E+03  0.79541736637E+02 0.  0.
         24    2    4    4    0    0 -0.19962980835E+03  0.63027444432E+03  0.10885521197E+04  0.12760240347E+04  0.78699963804E+02 0.  0.
         11    1    3    3    0    0 -0.94695521404E+02 -0.63367773828E+03  0.49410973182E+03  0.80911009439E+03  0.00000000000E+00 0.  1.
        -11    1    3    3    0    0 -0.54882238918E+02 -0.36360514515E+03  0.37650043734E+03  0.52628256768E+03  0.00000000000E+00 0. -1.
          2    1    6    6  502    0 -0.13051657061E+03  0.36210931786E+03  0.70059413236E+03  0.79936842043E+03  0.00000000000E+00 0. -1.
          3    1    5    5  503    0  0.23049940549E+03  0.29093606368E+03  0.80684480229E+02  0.37984701451E+03  0.00000000000E+00 0. -1.
         -4    1    5    5    0  503  0.11870816318E+03  0.76072375432E+02  0.14740652516E+02  0.14176008305E+03  0.00000000000E+00 0.  1.
         -1    1    6    6    0  502 -0.69113237737E+02  0.26816512646E+03  0.38795798733E+03  0.47665561427E+03  0.00000000000E+00 0.  1.
<mgrwt>
<rscale>  0 0.23652714E+04</rscale>
<asrwt>0</asrwt>
<pdfrwt beam="1">  1        2 0.39904701E+00 0.23652714E+04</pdfrwt>
<pdfrwt beam="2">  1       -2 0.82956645E-01 0.23652714E+04</pdfrwt>
<totfact> 0.35241164E+00</totfact>
</mgrwt>
</event>
<event>
12    1  0.1980523E-007  0.3285521E+04  0.7818608E-02  0.8166589E-01
          1   -1    0    0  501    0  0.00000000000E+00  0.00000000000E+00  0.19667686283E+04  0.19667686283E+04  0.00000000000E+00 0. -1.
         -1   -1    0    0    0  501 -0.00000000000E+00 -0.00000000000E+00 -0.13721300340E+04  0.13721300340E+04  0.00000000000E+00 0.  1.
         23    2    1    2    0    0  0.96028979178E+03 -0.10229914309E+04 -0.31316278485E+03  0.14403731171E+04  0.89083302297E+02 0.  0.
        254    2    1    2    0    0 -0.96028979178E+03  0.10229914309E+04  0.90780137920E+03  0.18985255452E+04  0.90090396248E+03 0.  0.
        -24    2    4    4    0    0  0.28447233401E+02  0.83363863080E+01 -0.12000159683E+03  0.14637888989E+03  0.78406987806E+02 0.  0.
         24    2    4    4    0    0 -0.98873702518E+03  0.10146550446E+04  0.10278029760E+04  0.17521466553E+04  0.80704272012E+02 0.  0.
         13    1    3    3    0    0  0.53887315943E+03 -0.50959638761E+03 -0.15946192025E+03  0.75861773261E+03  0.00000000000E+00 0. -1.
        -13    1    3    3    0    0  0.42141663235E+03 -0.51339504333E+03 -0.15370086460E+03  0.68175538452E+03  0.00000000000E+00 0.  1.
          2    1    6    6  502    0 -0.73489128272E+03  0.73624771233E+03  0.79509307735E+03  0.13093123741E+04  0.00000000000E+00 0. -1.
          1    1    5    5  503    0  0.41515082879E+02  0.34295592835E+02 -0.87834918664E+02  0.10302748532E+03  0.00000000000E+00 0. -1.
         -2    1    5    5    0  503 -0.13067849477E+02 -0.25959206527E+02 -0.32166678170E+02  0.43351404567E+02  0.00000000000E+00 0.  1.
         -1    1    6    6    0  502 -0.25384574246E+03  0.27840733230E+03  0.23270989869E+03  0.44283428119E+03  0.00000000000E+00 0.  1.
<mgrwt>
<rscale>  0 0.32855211E+04</rscale>
<asrwt>0</asrwt>
<pdfrwt beam="1">  1        1 0.30257979E+00 0.32855211E+04</pdfrwt>
<pdfrwt beam="2">  1       -1 0.21109693E+00 0.32855211E+04</pdfrwt>
<totfact> 0.32950497E-01</totfact>
</mgrwt>
</event>
<event>
12    1  0.1980523E-007  0.1586395E+04  0.7818608E-02  0.8828950E-01
         -1   -1    0    0    0  501 -0.00000000000E+00  0.00000000000E+00  0.43965565196E+03  0.43965565196E+03  0.00000000000E+00 0.  1.
          1   -1    0    0  501    0  0.00000000000E+00 -0.00000000000E+00 -0.14310350848E+04  0.14310350848E+04  0.00000000000E+00 0. -1.
         23    2    1    2    0    0  0.50676721012E+03  0.39016619487E+02 -0.15216512297E+03  0.53862921577E+03  0.92908049089E+02 0.  0.
        254    2    1    2    0    0 -0.50676721012E+03 -0.39016619487E+02 -0.83921430991E+03  0.13320615210E+04  0.90098387111E+03 0.  0.
        -24    2    4    4    0    0  0.15002560092E+03  0.25757888318E+03 -0.27660159362E+03  0.41412795633E+03  0.78351519627E+02 0.  0.
         24    2    4    4    0    0 -0.65679281104E+03 -0.29659550266E+03 -0.56261271629E+03  0.91793356470E+03  0.81995559917E+02 0.  0.
         11    1    3    3    0    0  0.26273533908E+03 -0.23323638975E+02 -0.60663698821E+02  0.27065464136E+03  0.00000000000E+00 0.  1.
        -11    1    3    3    0    0  0.24403187104E+03  0.62340258462E+02 -0.91501424153E+02  0.26797457441E+03  0.00000000000E+00 0. -1.
          4    1    6    6  502    0 -0.32461457780E+03 -0.11556082416E+03 -0.23077734613E+03  0.41471328854E+03  0.00000000000E+00 0. -1.
          3    1    5    5  503    0  0.11068173546E+03  0.13989749149E+03 -0.20136619730E+03  0.26901691417E+03  0.00000000000E+00 0. -1.
         -4    1    5    5    0  503  0.39343865456E+02  0.11768139168E+03 -0.75235396315E+02  0.14511104216E+03  0.00000000000E+00 0.  1.
         -3    1    6    6    0  502 -0.33217823324E+03 -0.18103467850E+03 -0.33183537015E+03  0.50322027617E+03  0.00000000000E+00 0.  1.
<mgrwt>
<rscale>  0 0.15863955E+04</rscale>
<asrwt>0</asrwt>
<pdfrwt beam="1">  1        1 0.22015925E+00 0.15863955E+04</pdfrwt>
<pdfrwt beam="2">  1       -1 0.67639331E-01 0.15863955E+04</pdfrwt>
<totfact> 0.15536146E+01</totfact>
</mgrwt>
</event>
<event>
12    1  0.1980523E-007  0.1703980E+04  0.7818608E-02  0.8759098E-01
         -2   -1    0    0    0  501 -0.00000000000E+00  0.00000000000E+00  0.19446602982E+03  0.19446602982E+03  0.00000000000E+00 0.  1.
          2   -1    0    0  501    0  0.00000000000E+00 -0.00000000000E+00 -0.37327169002E+04  0.37327169002E+04  0.00000000000E+00 0. -1.
         23    2    1    2    0    0 -0.41781334864E+03 -0.55254050100E+02 -0.26185954575E+03  0.50308975066E+03  0.83113603999E+02 0.  0.
        254    2    1    2    0    0  0.41781334864E+03  0.55254050100E+02 -0.32763913246E+04  0.34240931793E+04  0.90113982512E+03 0.  0.
        -24    2    4    4    0    0  0.59328856936E+03  0.61894175068E+02 -0.31210988568E+04  0.31785723622E+04  0.79006155600E+02 0.  0.
         24    2    4    4    0    0 -0.17547522072E+03 -0.66401249683E+01 -0.15529246785E+03  0.24552081713E+03  0.73000525518E+02 0.  0.
         11    1    3    3    0    0 -0.39678552880E+03 -0.70282387757E+02 -0.25283170145E+03  0.47571234917E+03  0.00000000000E+00 0. -1.
        -11    1    3    3    0    0 -0.21027819835E+02  0.15028337658E+02 -0.90278443020E+01  0.27377401493E+02  0.00000000000E+00 0.  1.
          2    1    6    6  502    0 -0.76608914400E+02  0.95871807522E+01 -0.11280262071E+03  0.13669407829E+03  0.00000000000E+00 0. -1.
          1    1    5    5  503    0  0.39142461463E+03  0.61150002603E+01 -0.21109312908E+04  0.21469237380E+04  0.00000000000E+00 0. -1.
         -2    1    5    5    0  503  0.20186395473E+03  0.55779174808E+02 -0.10101675659E+04  0.10316486242E+04  0.00000000000E+00 0.  1.
         -1    1    6    6    0  502 -0.98866306324E+02 -0.16227305721E+02 -0.42489847140E+02  0.10882673884E+03  0.00000000000E+00 0.  1.
<mgrwt>
<rscale>  0 0.17039796E+04</rscale>
<asrwt>0</asrwt>
<pdfrwt beam="1">  1        2 0.57426412E+00 0.17039796E+04</pdfrwt>
<pdfrwt beam="2">  1       -2 0.29917851E-01 0.17039796E+04</pdfrwt>
<totfact> 0.54822820E+00</totfact>
</mgrwt>
</event>
<event>
12    1  0.1980523E-007  0.1726005E+04  0.7818608E-02  0.8746670E-01
         -1   -1    0    0    0  501 -0.00000000000E+00  0.00000000000E+00  0.90936213000E+03  0.90936213000E+03  0.00000000000E+00 0.  1.
          1   -1    0    0  501    0  0.00000000000E+00 -0.00000000000E+00 -0.81900593768E+03  0.81900593768E+03  0.00000000000E+00 0. -1.
         23    2    1    2    0    0  0.21952158629E+03  0.47842063640E+03  0.36884477908E+03  0.64915509000E+03  0.90993558180E+02 0.  0.
        254    2    1    2    0    0 -0.21952158629E+03 -0.47842063640E+03 -0.27848858676E+03  0.10792129777E+04  0.90003818034E+03 0.  0.
        -24    2    4    4    0    0 -0.15384344321E+03  0.24271470561E+03 -0.16445290366E+03  0.34084045918E+03  0.80927299185E+02 0.  0.
         24    2    4    4    0    0 -0.65678143074E+02 -0.72113534201E+03 -0.11403568309E+03  0.73837251850E+03  0.88543995194E+02 0.  0.
         13    1    3    3    0    0  0.17743718275E+03  0.31207092605E+03  0.28395296193E+03  0.45771333966E+03  0.00000000000E+00 0. -1.
        -13    1    3    3    0    0  0.42084403539E+02  0.16634971035E+03  0.84891817151E+02  0.19144175034E+03  0.00000000000E+00 0.  1.
          4    1    6    6  502    0 -0.15096988443E+02 -0.32192747770E+02  0.90621243985E+01  0.36693516697E+02  0.00000000000E+00 0. -1.
          3    1    5    5  503    0 -0.99572560132E+02  0.10992325092E+03 -0.47447585975E+02  0.15572119072E+03  0.00000000000E+00 0. -1.
         -4    1    5    5    0  503 -0.54270883079E+02  0.13279145469E+03 -0.11700531769E+03  0.18511926846E+03  0.00000000000E+00 0.  1.
         -3    1    6    6    0  502 -0.50581154632E+02 -0.68894259424E+03 -0.12309780749E+03  0.70167900181E+03  0.00000000000E+00 0.  1.
<mgrwt>
<rscale>  0 0.17260046E+04</rscale>
<asrwt>0</asrwt>
<pdfrwt beam="1">  1        1 0.12600091E+00 0.17260046E+04</pdfrwt>
<pdfrwt beam="2">  1       -1 0.13990187E+00 0.17260046E+04</pdfrwt>
<totfact> 0.84886025E+00</totfact>
</mgrwt>
</event>
<event>
12    1  0.1980523E-007  0.1899852E+04  0.7818608E-02  0.8654930E-01
          1   -1    0    0  501    0  0.00000000000E+00  0.00000000000E+00  0.23734452419E+04  0.23734452419E+04  0.00000000000E+00 0. -1.
         -1   -1    0    0    0  501 -0.00000000000E+00 -0.00000000000E+00 -0.38018952891E+03  0.38018952891E+03  0.00000000000E+00 0.  1.
         23    2    1    2    0    0 -0.33615877328E+03  0.29414610932E+03 -0.68390700047E+02  0.46016018619E+03  0.86864576305E+02 0.  0.
        254    2    1    2    0    0  0.33615877328E+03 -0.29414610932E+03  0.20616464131E+04  0.22934745847E+04  0.90006393297E+03 0.  0.
        -24    2    4    4    0    0  0.45084364620E+03 -0.11902096194E+03  0.20069546984E+04  0.20618106416E+04  0.75960369190E+02 0.  0.
         24    2    4    4    0    0 -0.11468487292E+03 -0.17512514737E+03  0.54691714654E+02  0.23166394304E+03  0.82798318413E+02 0.  0.
         13    1    3    3    0    0 -0.11640873684E+03  0.15901018755E+03 -0.28385744414E+02  0.19910043758E+03  0.00000000000E+00 0. -1.
        -13    1    3    3    0    0 -0.21975003644E+03  0.13513592176E+03 -0.40004955632E+02  0.26105974861E+03  0.00000000000E+00 0.  1.
          4    1    6    6  502    0 -0.76535005520E+02 -0.14487937053E+03  0.73356437194E+02  0.17952383115E+03  0.00000000000E+00 0. -1.
          1    1    5    5  503    0  0.35106697416E+03 -0.12416811319E+03  0.15609288651E+04  0.16047319598E+04  0.00000000000E+00 0. -1.
         -2    1    5    5    0  503  0.99776672040E+02  0.51471512429E+01  0.44602583331E+03  0.45707868188E+03  0.00000000000E+00 0.  1.
         -3    1    6    6    0  502 -0.38149867399E+02 -0.30245776844E+02 -0.18664722539E+02  0.52140111881E+02  0.00000000000E+00 0.  1.
<mgrwt>
<rscale>  0 0.18998516E+04</rscale>
<asrwt>0</asrwt>
<pdfrwt beam="1">  1        1 0.36514542E+00 0.18998516E+04</pdfrwt>
<pdfrwt beam="2">  1       -1 0.58490698E-01 0.18998516E+04</pdfrwt>
<totfact> 0.45944901E+00</totfact>
</mgrwt>
</event>
<event>
12    1  0.1980523E-007  0.3054020E+04  0.7818608E-02  0.8228471E-01
         -1   -1    0    0    0  501 -0.00000000000E+00  0.00000000000E+00  0.75351369853E+03  0.75351369853E+03  0.00000000000E+00 0.  1.
          1   -1    0    0  501    0  0.00000000000E+00 -0.00000000000E+00 -0.30945149528E+04  0.30945149528E+04  0.00000000000E+00 0. -1.
         23    2    1    2    0    0 -0.13347765376E+04  0.36844590036E+03 -0.12564546100E+04  0.18719654470E+04  0.90529889645E+02 0.  0.
        254    2    1    2    0    0  0.13347765376E+04 -0.36844590036E+03 -0.10845466442E+04  0.19760632043E+04  0.90066840561E+03 0.  0.
        -24    2    4    4    0    0  0.33885598720E+03 -0.41984996490E+03 -0.67326266754E+02  0.54930728732E+03  0.78155592370E+02 0.  0.
         24    2    4    4    0    0  0.99592055045E+03  0.51404064545E+02 -0.10172203775E+04  0.14267559170E+04  0.79968928850E+02 0.  0.
         13    1    3    3    0    0 -0.32161326483E+03  0.12728852847E+03 -0.29664708078E+03  0.45567197866E+03  0.00000000000E+00 0.  1.
        -13    1    3    3    0    0 -0.10131632728E+04  0.24115737188E+03 -0.95980752925E+03  0.14162934684E+04  0.00000000000E+00 0. -1.
          4    1    6    6  502    0  0.45762168055E+03  0.62351877607E+02 -0.48346062305E+03  0.66861015038E+03  0.00000000000E+00 0. -1.
          1    1    5    5  503    0  0.22204406245E+03 -0.21427039029E+03 -0.31790284055E+02  0.31020313987E+03  0.00000000000E+00 0. -1.
         -2    1    5    5    0  503  0.11681192475E+03 -0.20557957461E+03 -0.35535982699E+02  0.23910414745E+03  0.00000000000E+00 0.  1.
         -3    1    6    6    0  502  0.53829886990E+03 -0.10947813061E+02 -0.53375975442E+03  0.75814576658E+03  0.00000000000E+00 0.  1.
<mgrwt>
<rscale>  0 0.30540199E+04</rscale>
<asrwt>0</asrwt>
<pdfrwt beam="1">  1        1 0.47607922E+00 0.30540199E+04</pdfrwt>
<pdfrwt beam="2">  1       -1 0.11592518E+00 0.30540199E+04</pdfrwt>
<totfact> 0.29030444E-01</totfact>
</mgrwt>
</event>
<event>
12    1  0.1980523E-007  0.3040757E+04  0.7818608E-02  0.8232187E-01
         -2   -1    0    0    0  501 -0.00000000000E+00  0.00000000000E+00  0.10044188082E+04  0.10044188082E+04  0.00000000000E+00 0.  1.
          2   -1    0    0  501    0  0.00000000000E+00 -0.00000000000E+00 -0.23013817859E+04  0.23013817859E+04  0.00000000000E+00 0. -1.
         23    2    1    2    0    0  0.98946685021E+03 -0.80356931505E+02 -0.16522029593E+04  0.19298296353E+04  0.94688534191E+02 0.  0.
        254    2    1    2    0    0 -0.98946685021E+03  0.80356931505E+02  0.35523998161E+03  0.13759709589E+04  0.88408073781E+03 0.  0.
        -24    2    4    4    0    0 -0.28629673478E+03  0.21015461654E+03 -0.24508808449E+03  0.43882287359E+03  0.79790738945E+02 0.  0.
         24    2    4    4    0    0 -0.70317011543E+03 -0.12979768503E+03  0.60032806611E+03  0.93714808527E+03  0.80975900690E+02 0.  0.
         11    1    3    3    0    0  0.27491006094E+03  0.14493584246E+02 -0.49822245084E+03  0.56921983110E+03  0.00000000000E+00 0. -1.
        -11    1    3    3    0    0  0.71455678927E+03 -0.94850515751E+02 -0.11539805085E+04  0.13606098042E+04  0.00000000000E+00 0.  1.
          4    1    6    6  502    0 -0.27989914778E+03 -0.19261924488E+02  0.26527040155E+03  0.38611260094E+03  0.00000000000E+00 0. -1.
          3    1    5    5  503    0 -0.65962505962E+02  0.12344684047E+02 -0.34368279618E+02  0.75396432680E+02  0.00000000000E+00 0. -1.
         -4    1    5    5    0  503 -0.22033422882E+03  0.19780993249E+03 -0.21071980487E+03  0.36342644091E+03  0.00000000000E+00 0.  1.
         -3    1    6    6    0  502 -0.42327096765E+03 -0.11053576055E+03  0.33505766455E+03  0.55103548433E+03  0.00000000000E+00 0.  1.
<mgrwt>
<rscale>  0 0.30407572E+04</rscale>
<asrwt>0</asrwt>
<pdfrwt beam="1">  1        2 0.35405873E+00 0.30407572E+04</pdfrwt>
<pdfrwt beam="2">  1       -2 0.15452597E+00 0.30407572E+04</pdfrwt>
<totfact> 0.10685722E+00</totfact>
</mgrwt>
</event>
<event>
12    1  0.1980523E-007  0.4913692E+04  0.7818608E-02  0.7841961E-01
         -2   -1    0    0    0  501 -0.00000000000E+00  0.00000000000E+00  0.23345817896E+04  0.23345817896E+04  0.00000000000E+00 0.  1.
          2   -1    0    0  501    0  0.00000000000E+00 -0.00000000000E+00 -0.25855130796E+04  0.25855130796E+04  0.00000000000E+00 0. -1.
         23    2    1    2    0    0 -0.23446472127E+04 -0.31374628238E+03 -0.31818088830E+03  0.23885664757E+04  0.90572895475E+02 0.  0.
        254    2    1    2    0    0  0.23446472127E+04  0.31374628238E+03  0.67249598337E+02  0.25315283935E+04  0.89905851683E+03 0.  0.
        -24    2    4    4    0    0  0.15352971639E+03  0.10052019795E+03  0.25075631176E+03  0.32095153202E+03  0.80345964498E+02 0.  0.
         24    2    4    4    0    0  0.21911174963E+04  0.21322608444E+03 -0.18350671342E+03  0.22105768614E+04  0.80709979195E+02 0.  0.
         13    1    3    3    0    0 -0.19524576440E+04 -0.22702302823E+03 -0.26260341042E+03  0.19830761100E+04  0.00000000000E+00 0.  1.
        -13    1    3    3    0    0 -0.39218956875E+03 -0.86723254158E+02 -0.55577477874E+02  0.40549036572E+03  0.00000000000E+00 0. -1.
          2    1    6    6  502    0  0.80832723350E+03  0.40822157753E+02 -0.57618657728E+02  0.81140573987E+03  0.00000000000E+00 0. -1.
          1    1    5    5  503    0  0.83426829074E+02  0.16404379982E+02  0.72440236445E+02  0.11169927192E+03  0.00000000000E+00 0. -1.
         -2    1    5    5    0  503  0.70102887317E+02  0.84115817963E+02  0.17831607531E+03  0.20925226010E+03  0.00000000000E+00 0.  1.
         -1    1    6    6    0  502  0.13827902628E+04  0.17240392669E+03 -0.12588805569E+03  0.13991711216E+04  0.00000000000E+00 0.  1.
<mgrwt>
<rscale>  0 0.49136918E+04</rscale>
<asrwt>0</asrwt>
<pdfrwt beam="1">  1        2 0.39777124E+00 0.49136918E+04</pdfrwt>
<pdfrwt beam="2">  1       -2 0.35916643E+00 0.49136918E+04</pdfrwt>
<totfact> 0.30970085E-02</totfact>
</mgrwt>
</event>
<event>
12    1  0.1980523E-007  0.1825307E+04  0.7818608E-02  0.8692956E-01
         -2   -1    0    0    0  501 -0.00000000000E+00  0.00000000000E+00  0.12164225785E+04  0.12164225785E+04  0.00000000000E+00 0.  1.
          2   -1    0    0  501    0  0.00000000000E+00 -0.00000000000E+00 -0.68474287962E+03  0.68474287962E+03  0.00000000000E+00 0. -1.
         23    2    1    2    0    0  0.47909803450E+03  0.48042271120E+03  0.91288556228E+02  0.69047816866E+03  0.89919924402E+02 0.  0.
        254    2    1    2    0    0 -0.47909803450E+03 -0.48042271120E+03  0.44039114267E+03  0.12106872895E+04  0.90082098459E+03 0.  0.
        -24    2    4    4    0    0 -0.45028217826E+03  0.55087289510E+02 -0.70567640883E+02  0.46588307771E+03  0.79237621305E+02 0.  0.
         24    2    4    4    0    0 -0.28815856241E+02 -0.53551000071E+03  0.51095878356E+03  0.74480421177E+03  0.77801805599E+02 0.  0.
         13    1    3    3    0    0  0.60400318889E+02  0.84642152185E+02  0.42267563120E+02  0.11224544240E+03  0.00000000000E+00 0.  1.
        -13    1    3    3    0    0  0.41869771561E+03  0.39578055901E+03  0.49020993107E+02  0.57823272626E+03  0.00000000000E+00 0. -1.
          4    1    6    6  502    0 -0.14261330105E+02 -0.37375653238E+03  0.40280225947E+03  0.54967898930E+03  0.00000000000E+00 0. -1.
          1    1    5    5  503    0 -0.12218719303E+03  0.10747027618E+01 -0.52171009986E+02  0.13286338626E+03  0.00000000000E+00 0. -1.
         -2    1    5    5    0  503 -0.32809498523E+03  0.54012586748E+02 -0.18396630896E+02  0.33301969145E+03  0.00000000000E+00 0.  1.
         -3    1    6    6    0  502 -0.14554526136E+02 -0.16175346832E+03  0.10815652408E+03  0.19512522248E+03  0.00000000000E+00 0.  1.
<mgrwt>
<rscale>  0 0.18253073E+04</rscale>
<asrwt>0</asrwt>
<pdfrwt beam="1">  1        2 0.10534506E+00 0.18253073E+04</pdfrwt>
<pdfrwt beam="2">  1       -2 0.18714194E+00 0.18253073E+04</pdfrwt>
<totfact> 0.64269152E+00</totfact>
</mgrwt>
</event>
<event>
12    1  0.1980523E-007  0.1546434E+04  0.7818608E-02  0.8854149E-01
         -2   -1    0    0    0  501 -0.00000000000E+00  0.00000000000E+00  0.30272952832E+03  0.30272952832E+03  0.00000000000E+00 0. -1.
          2   -1    0    0  501    0  0.00000000000E+00 -0.00000000000E+00 -0.19749135297E+04  0.19749135297E+04  0.00000000000E+00 0.  1.
         23    2    1    2    0    0 -0.38651672601E+03  0.31685890985E+03 -0.43935595146E+03  0.67155745440E+03  0.90338332128E+02 0.  0.
        254    2    1    2    0    0  0.38651672601E+03 -0.31685890985E+03 -0.12328280499E+04  0.16060856036E+04  0.89991733913E+03 0.  0.
        -24    2    4    4    0    0  0.42802548964E+03 -0.23552505481E+02 -0.12050455227E+03  0.45220462642E+03  0.78785384091E+02 0.  0.
         24    2    4    4    0    0 -0.41508763633E+02 -0.29330640437E+03 -0.11123234977E+04  0.11538809772E+04  0.80163095073E+02 0.  0.
         13    1    3    3    0    0 -0.32505989662E+03  0.22217180223E+03 -0.36069048505E+03  0.53396804409E+03  0.00000000000E+00 0.  1.
        -13    1    3    3    0    0 -0.61456829384E+02  0.94687107614E+02 -0.78665466403E+02  0.13758941031E+03  0.00000000000E+00 0. -1.
          4    1    6    6  502    0  0.15764482715E+02 -0.11767178723E+03 -0.52179033087E+03  0.53512645030E+03  0.00000000000E+00 0. -1.
          3    1    5    5  503    0  0.31003673145E+03 -0.18109257108E+02 -0.49764485575E+02  0.31452698464E+03  0.00000000000E+00 0. -1.
         -4    1    5    5    0  503  0.11798875819E+03 -0.54432483728E+01 -0.70740066690E+02  0.13767764178E+03  0.00000000000E+00 0.  1.
         -3    1    6    6    0  502 -0.57273246348E+02 -0.17563461714E+03 -0.59053316679E+03  0.61875452690E+03  0.00000000000E+00 0.  1.
<mgrwt>
<rscale>  0 0.15464341E+04</rscale>
<asrwt>0</asrwt>
<pdfrwt beam="1">  1        2 0.30383285E+00 0.15464341E+04</pdfrwt>
<pdfrwt beam="2">  1       -2 0.46573774E-01 0.15464341E+04</pdfrwt>
<totfact> 0.29040973E+01</totfact>
</mgrwt>
</event>
<event>
12    1  0.1980523E-007  0.1716462E+04  0.7818608E-02  0.8752031E-01
         -3   -1    0    0    0  501 -0.00000000000E+00  0.00000000000E+00  0.11365292889E+04  0.11365292889E+04  0.00000000000E+00 0.  1.
          3   -1    0    0  501    0  0.00000000000E+00 -0.00000000000E+00 -0.64807886735E+03  0.64807886735E+03  0.00000000000E+00 0. -1.
         23    2    1    2    0    0 -0.47390741266E+03  0.38763529025E+03  0.88156676162E+02  0.62516870223E+03  0.90636376078E+02 0.  0.
        254    2    1    2    0    0  0.47390741266E+03 -0.38763529025E+03  0.40029374539E+03  0.11594394540E+04  0.89956401158E+03 0.  0.
        -24    2    4    4    0    0  0.60881907877E+03 -0.46809010191E+03  0.53295005952E+03  0.93811399886E+03  0.79076511858E+02 0.  0.
         24    2    4    4    0    0 -0.13491166611E+03  0.80454811656E+02 -0.13265631413E+03  0.22132545517E+03  0.81933662526E+02 0.  0.
         11    1    3    3    0    0 -0.14780674933E+03  0.13019104175E+03 -0.13525687922E+02  0.19743223327E+03  0.00000000000E+00 0. -1.
        -11    1    3    3    0    0 -0.32610066333E+03  0.25744424850E+03  0.10168236408E+03  0.42773646896E+03  0.00000000000E+00 0.  1.
          2    1    6    6  502    0 -0.43335817453E+02  0.14157986662E+01 -0.76555589601E+02  0.87981565451E+02  0.00000000000E+00 0. -1.
          1    1    5    5  503    0  0.34225328474E+03 -0.26044587119E+03  0.34575695732E+03  0.55183080402E+03  0.00000000000E+00 0. -1.
         -2    1    5    5    0  503  0.26656579404E+03 -0.20764423072E+03  0.18719310220E+03  0.38628319483E+03  0.00000000000E+00 0.  1.
         -1    1    6    6    0  502 -0.91575848657E+02  0.79039012990E+02 -0.56100724531E+02  0.13334388972E+03  0.00000000000E+00 0.  1.
<mgrwt>
<rscale>  0 0.17164622E+04</rscale>
<asrwt>0</asrwt>
<pdfrwt beam="1">  1        3 0.99704441E-01 0.17164622E+04</pdfrwt>
<pdfrwt beam="2">  1       -3 0.17485066E+00 0.17164622E+04</pdfrwt>
<totfact> 0.46923460E-01</totfact>
</mgrwt>
</event>
<event>
12    1  0.1980523E-007  0.2210761E+04  0.7818608E-02  0.8513963E-01
         -1   -1    0    0    0  501 -0.00000000000E+00  0.00000000000E+00  0.94559536577E+03  0.94559536577E+03  0.00000000000E+00 0.  1.
          1   -1    0    0  501    0  0.00000000000E+00 -0.00000000000E+00 -0.12921655801E+04  0.12921655801E+04  0.00000000000E+00 0. -1.
         23    2    1    2    0    0 -0.28150869588E+03  0.76471844357E+02 -0.10228193488E+04  0.10675079375E+04  0.91206838558E+02 0.  0.
        254    2    1    2    0    0  0.28150869588E+03 -0.76471844357E+02  0.67624913456E+03  0.11702530083E+04  0.90944165438E+03 0.  0.
        -24    2    4    4    0    0  0.76441454151E+02 -0.12147191235E+03 -0.20390436683E+03  0.26209705378E+03  0.80741274385E+02 0.  0.
         24    2    4    4    0    0  0.20506724172E+03  0.45000067988E+02  0.88015350139E+03  0.90815595456E+03  0.77456258983E+02 0.  0.
         11    1    3    3    0    0 -0.16271087407E+03  0.86034247710E+02 -0.68432367797E+03  0.70864350456E+03  0.00000000000E+00 0. -1.
        -11    1    3    3    0    0 -0.11879782180E+03 -0.95624033535E+01 -0.33849567087E+03  0.35886443293E+03  0.00000000000E+00 0.  1.
          4    1    6    6  502    0  0.96281554605E+02  0.30405419119E+01  0.26303626452E+03  0.28012043679E+03  0.00000000000E+00 0. -1.
          3    1    5    5  503    0 -0.13975322501E+02 -0.26595659893E+02 -0.62205369762E+02  0.69080726628E+02  0.00000000000E+00 0. -1.
         -4    1    5    5    0  503  0.90416776652E+02 -0.94876252452E+02 -0.14169899707E+03  0.19301632716E+03  0.00000000000E+00 0.  1.
         -3    1    6    6    0  502  0.10878568712E+03  0.41959526076E+02  0.61711723687E+03  0.62803551778E+03  0.00000000000E+00 0.  1.
<mgrwt>
<rscale>  0 0.22107608E+04</rscale>
<asrwt>0</asrwt>
<pdfrwt beam="1">  1        1 0.19879470E+00 0.22107608E+04</pdfrwt>
<pdfrwt beam="2">  1       -1 0.14547621E+00 0.22107608E+04</pdfrwt>
<totfact> 0.31615760E+00</totfact>
</mgrwt>
</event>
<event>
12    1  0.1980523E-007  0.1500911E+04  0.7818608E-02  0.8883847E-01
          1   -1    0    0  501    0  0.00000000000E+00  0.00000000000E+00  0.17850145790E+04  0.17850145790E+04  0.00000000000E+00 0. -1.
         -1   -1    0    0    0  501 -0.00000000000E+00 -0.00000000000E+00 -0.31550643005E+03  0.31550643005E+03  0.00000000000E+00 0.  1.
         23    2    1    2    0    0  0.18374803307E+03 -0.40906601528E+03  0.68700826045E+03  0.82559559720E+03  0.92354727401E+02 0.  0.
        254    2    1    2    0    0 -0.18374803307E+03  0.40906601528E+03  0.78249988847E+03  0.12749254118E+04  0.90112728610E+03 0.  0.
        -24    2    4    4    0    0  0.11238083743E+03  0.57794785998E+03  0.26652014171E+03  0.65133611684E+03  0.80947944264E+02 0.  0.
         24    2    4    4    0    0 -0.29612887050E+03 -0.16888184470E+03  0.51597974676E+03  0.62358929499E+03  0.80094471418E+02 0.  0.
         13    1    3    3    0    0  0.13964243597E+03 -0.20911675133E+03  0.34369110103E+03  0.42585607725E+03  0.00000000000E+00 0. -1.
        -13    1    3    3    0    0  0.44105597097E+02 -0.19994926396E+03  0.34331715942E+03  0.39973951995E+03  0.00000000000E+00 0.  1.
          4    1    6    6  502    0 -0.85426721532E+02 -0.65916549869E+02  0.10589224689E+03  0.15118162669E+03  0.00000000000E+00 0. -1.
          1    1    5    5  503    0  0.18307171383E+01  0.32666507330E+02  0.37237671265E+02  0.49569107190E+02  0.00000000000E+00 0. -1.
         -2    1    5    5    0  503  0.11055012029E+03  0.54528135265E+03  0.22928247045E+03  0.60176700965E+03  0.00000000000E+00 0.  1.
         -3    1    6    6    0  502 -0.21070214897E+03 -0.10296529483E+03  0.41008749987E+03  0.47240766830E+03  0.00000000000E+00 0.  1.
<mgrwt>
<rscale>  0 0.15009112E+04</rscale>
<asrwt>0</asrwt>
<pdfrwt beam="1">  1        1 0.27461762E+00 0.15009112E+04</pdfrwt>
<pdfrwt beam="2">  1       -1 0.48539452E-01 0.15009112E+04</pdfrwt>
<totfact> 0.17135357E+01</totfact>
</mgrwt>
</event>
<event>
12    1  0.1980523E-007  0.1421157E+04  0.7818608E-02  0.8938645E-01
         -1   -1    0    0    0  501 -0.00000000000E+00  0.00000000000E+00  0.39238817866E+03  0.39238817866E+03  0.00000000000E+00 0.  1.
          1   -1    0    0  501    0  0.00000000000E+00 -0.00000000000E+00 -0.12867920579E+04  0.12867920579E+04  0.00000000000E+00 0. -1.
         23    2    1    2    0    0  0.29962410341E+03 -0.23917089051E+03 -0.77241225477E+02  0.40180847986E+03  0.92230848200E+02 0.  0.
        254    2    1    2    0    0 -0.29962410341E+03  0.23917089051E+03 -0.81716265372E+03  0.12773717567E+04  0.90385091906E+03 0.  0.
        -24    2    4    4    0    0 -0.30055100630E+03 -0.30258430064E+03 -0.37436937470E+03  0.57298851804E+03  0.79216454793E+02 0.  0.
         24    2    4    4    0    0  0.92690288611E+00  0.54175519116E+03 -0.44279327902E+03  0.70438323863E+03  0.81180740444E+02 0.  0.
         13    1    3    3    0    0  0.15316560632E+03 -0.12576040085E+03 -0.86737294369E+02  0.21633016344E+03  0.00000000000E+00 0. -1.
        -13    1    3    3    0    0  0.14645849709E+03 -0.11341048966E+03  0.94960688914E+01  0.18547831642E+03  0.00000000000E+00 0.  1.
          2    1    6    6  502    0  0.22915809698E+02  0.54169673127E+02 -0.35616280326E+02  0.68760506434E+02  0.00000000000E+00 0. -1.
          1    1    5    5  503    0 -0.84883812267E+02 -0.68103587566E+02 -0.14082053089E+03  0.17797129584E+03  0.00000000000E+00 0. -1.
         -2    1    5    5    0  503 -0.21566719403E+03 -0.23448071308E+03 -0.23354884381E+03  0.39501722219E+03  0.00000000000E+00 0.  1.
         -1    1    6    6    0  502 -0.21988906812E+02  0.48758551803E+03 -0.40717699869E+03  0.63562273219E+03  0.00000000000E+00 0.  1.
<mgrwt>
<rscale>  0 0.14211573E+04</rscale>
<asrwt>0</asrwt>
<pdfrwt beam="1">  1        1 0.19796801E+00 0.14211573E+04</pdfrwt>
<pdfrwt beam="2">  1       -1 0.60367413E-01 0.14211573E+04</pdfrwt>
<totfact> 0.25040840E+01</totfact>
</mgrwt>
</event>
<event>
12    1  0.1980523E-007  0.2251236E+04  0.7818608E-02  0.8497400E-01
          1   -1    0    0  501    0  0.00000000000E+00  0.00000000000E+00  0.85424867875E+03  0.85424867875E+03  0.00000000000E+00 0. -1.
         -1   -1    0    0    0  501 -0.00000000000E+00 -0.00000000000E+00 -0.14831928596E+04  0.14831928596E+04  0.00000000000E+00 0.  1.
         23    2    1    2    0    0 -0.64348451032E+03  0.52258567388E+03  0.20534146485E+03  0.85950073482E+03  0.96996362768E+02 0.  0.
        254    2    1    2    0    0  0.64348451032E+03 -0.52258567388E+03 -0.83428564567E+03  0.14779408035E+04  0.89504657897E+03 0.  0.
        -24    2    4    4    0    0  0.50078876006E+03 -0.54594502065E+02 -0.83971820702E+03  0.98230038918E+03  0.77572195519E+02 0.  0.
         24    2    4    4    0    0  0.14269575026E+03 -0.46799117182E+03  0.54325613526E+01  0.49564041432E+03  0.79070181159E+02 0.  0.
         11    1    3    3    0    0 -0.16156107510E+03  0.13523970376E+03  0.94037911072E+01  0.21090327107E+03  0.00000000000E+00 0. -1.
        -11    1    3    3    0    0 -0.48192343522E+03  0.38734597013E+03  0.19593767375E+03  0.64859746375E+03  0.00000000000E+00 0.  1.
          4    1    6    6  502    0  0.12651659303E+02 -0.96101504066E+02  0.28384214222E+02  0.10100112467E+03  0.00000000000E+00 0. -1.
          1    1    5    5  503    0  0.19021362629E+03 -0.54436160411E+02 -0.29346042867E+03  0.35392589956E+03  0.00000000000E+00 0. -1.
         -2    1    5    5    0  503  0.31057513377E+03 -0.15834165458E+00 -0.54625777836E+03  0.62837448962E+03  0.00000000000E+00 0.  1.
         -3    1    6    6    0  502  0.13004409096E+03 -0.37188966775E+03 -0.22951652870E+02  0.39463928966E+03  0.00000000000E+00 0.  1.
<mgrwt>
<rscale>  0 0.22512357E+04</rscale>
<asrwt>0</asrwt>
<pdfrwt beam="1">  1        1 0.13142288E+00 0.22512357E+04</pdfrwt>
<pdfrwt beam="2">  1       -1 0.22818351E+00 0.22512357E+04</pdfrwt>
<totfact> 0.17496433E+00</totfact>
</mgrwt>
</event>
<event>
12    1  0.1980523E-007  0.1891273E+04  0.7818608E-02  0.8659213E-01
         -2   -1    0    0    0  501 -0.00000000000E+00  0.00000000000E+00  0.40228183727E+03  0.40228183727E+03  0.00000000000E+00 0.  1.
          2   -1    0    0  501    0  0.00000000000E+00 -0.00000000000E+00 -0.22228899394E+04  0.22228899394E+04  0.00000000000E+00 0. -1.
         23    2    1    2    0    0  0.42977144362E+03  0.58762429526E+03 -0.67921094694E+03  0.99977517237E+03  0.90648103724E+02 0.  0.
        254    2    1    2    0    0 -0.42977144362E+03 -0.58762429526E+03 -0.11413971552E+04  0.16253966043E+04  0.89951145034E+03 0.  0.
        -24    2    4    4    0    0 -0.46434479195E+03 -0.29125987793E+03 -0.11893133833E+04  0.13120284025E+04  0.80646159296E+02 0.  0.
         24    2    4    4    0    0  0.34573348331E+02 -0.29636441733E+03  0.47916228124E+02  0.31336820178E+03  0.82924548198E+02 0.  0.
         11    1    3    3    0    0  0.11061775212E+03  0.15426132695E+03 -0.23387468016E+03  0.30121455824E+03  0.00000000000E+00 0. -1.
        -11    1    3    3    0    0  0.31915369150E+03  0.43336296831E+03 -0.44533626679E+03  0.69856061413E+03  0.00000000000E+00 0.  1.
          2    1    6    6  502    0  0.52829553823E+02 -0.26779855072E+03  0.55699900679E+02  0.27858482453E+03  0.00000000000E+00 0. -1.
          1    1    5    5  503    0 -0.33244354201E+03 -0.19680222064E+03 -0.74871672962E+03  0.84251205564E+03  0.00000000000E+00 0. -1.
         -2    1    5    5    0  503 -0.13190124994E+03 -0.94457657287E+02 -0.44059665369E+03  0.46951634689E+03  0.00000000000E+00 0.  1.
         -1    1    6    6    0  502 -0.18256205492E+02 -0.28565866615E+02 -0.77836725543E+01  0.34783377249E+02  0.00000000000E+00 0.  1.
<mgrwt>
<rscale>  0 0.18912729E+04</rscale>
<asrwt>0</asrwt>
<pdfrwt beam="1">  1        2 0.34198307E+00 0.18912729E+04</pdfrwt>
<pdfrwt beam="2">  1       -2 0.61889514E-01 0.18912729E+04</pdfrwt>
<totfact> 0.11394189E+01</totfact>
</mgrwt>
</event>
<event>
12    1  0.1980523E-007  0.1610199E+04  0.7818608E-02  0.8814307E-01
         -1   -1    0    0    0  501 -0.00000000000E+00  0.00000000000E+00  0.51692135956E+03  0.51692135956E+03  0.00000000000E+00 0.  1.
          1   -1    0    0  501    0  0.00000000000E+00 -0.00000000000E+00 -0.12539332395E+04  0.12539332395E+04  0.00000000000E+00 0. -1.
         23    2    1    2    0    0 -0.35562888140E+03 -0.37959826384E+02  0.20220749672E+03  0.42134578286E+03  0.93442748760E+02 0.  0.
        254    2    1    2    0    0  0.35562888140E+03  0.37959826384E+02 -0.93921937665E+03  0.13495088162E+04  0.90062653625E+03 0.  0.
        -24    2    4    4    0    0  0.25305333294E+03 -0.41787070841E+03 -0.47321578392E+03  0.68487031297E+03  0.80388115917E+02 0.  0.
         24    2    4    4    0    0  0.10257554846E+03  0.45583053479E+03 -0.46600359273E+03  0.66463850322E+03  0.79257630106E+02 0.  0.
         11    1    3    3    0    0 -0.68173383882E+02  0.23259730681E+02  0.17185126384E+02  0.74053723135E+02  0.00000000000E+00 0. -1.
        -11    1    3    3    0    0 -0.28745549752E+03 -0.61219557065E+02  0.18502237034E+03  0.34729205972E+03  0.00000000000E+00 0.  1.
          4    1    6    6  502    0  0.74310158049E+02  0.29114473725E+03 -0.24575297758E+03  0.38817751559E+03  0.00000000000E+00 0. -1.
          1    1    5    5  503    0  0.12799738304E+03 -0.26740240625E+03 -0.32122325340E+03  0.43711755337E+03  0.00000000000E+00 0. -1.
         -2    1    5    5    0  503  0.12505594990E+03 -0.15046830216E+03 -0.15199253052E+03  0.24775275960E+03  0.00000000000E+00 0.  1.
         -3    1    6    6    0  502  0.28265390416E+02  0.16468579754E+03 -0.22025061515E+03  0.27646098763E+03  0.00000000000E+00 0.  1.
<mgrwt>
<rscale>  0 0.16101986E+04</rscale>
<asrwt>0</asrwt>
<pdfrwt beam="1">  1        1 0.19291281E+00 0.16101986E+04</pdfrwt>
<pdfrwt beam="2">  1       -1 0.79526363E-01 0.16101986E+04</pdfrwt>
<totfact> 0.14787104E+01</totfact>
</mgrwt>
</event>
<event>
12    1  0.1980523E-007  0.1454498E+04  0.7818608E-02  0.8915288E-01
          1   -1    0    0  501    0  0.00000000000E+00  0.00000000000E+00  0.15437371861E+04  0.15437371861E+04  0.00000000000E+00 0. -1.
         -1   -1    0    0    0  501 -0.00000000000E+00 -0.00000000000E+00 -0.34260422639E+03  0.34260422639E+03  0.00000000000E+00 0.  1.
         23    2    1    2    0    0 -0.17268593347E+03 -0.41668295678E+03  0.36841440038E+03  0.58943164279E+03  0.90859083352E+02 0.  0.
        254    2    1    2    0    0  0.17268593347E+03  0.41668295678E+03  0.83271855931E+03  0.12969097697E+04  0.88606412497E+03 0.  0.
        -24    2    4    4    0    0 -0.10440767434E+03  0.15342657281E+03  0.88051613400E+03  0.90338955950E+03  0.79770660516E+02 0.  0.
         24    2    4    4    0    0  0.27709360781E+03  0.26325638397E+03 -0.47797574689E+02  0.39352021017E+03  0.80552817938E+02 0.  0.
         13    1    3    3    0    0 -0.16315892361E+03 -0.30257943544E+03  0.25278259284E+03  0.42670152138E+03  0.00000000000E+00 0. -1.
        -13    1    3    3    0    0 -0.95270098536E+01 -0.11410352134E+03  0.11563180755E+03  0.16273012141E+03  0.00000000000E+00 0.  1.
          4    1    6    6  502    0  0.17561202126E+03  0.20172701006E+03 -0.54476519299E+01  0.26751270158E+03  0.00000000000E+00 0. -1.
          1    1    5    5  503    0 -0.63113654730E+02  0.58091500391E+02  0.55793803611E+03  0.56449340826E+03  0.00000000000E+00 0. -1.
         -2    1    5    5    0  503 -0.41294019608E+02  0.95335072420E+02  0.32257809789E+03  0.33889615125E+03  0.00000000000E+00 0.  1.
         -3    1    6    6    0  502  0.10148158655E+03  0.61529373912E+02 -0.42349922759E+02  0.12600750859E+03  0.00000000000E+00 0.  1.
<mgrwt>
<rscale>  0 0.14544977E+04</rscale>
<asrwt>0</asrwt>
<pdfrwt beam="1">  1        1 0.23749802E+00 0.14544977E+04</pdfrwt>
<pdfrwt beam="2">  1       -1 0.52708343E-01 0.14544977E+04</pdfrwt>
<totfact> 0.21488690E+01</totfact>
</mgrwt>
</event>
<event>
12    1  0.1980523E-007  0.1744915E+04  0.7818608E-02  0.8736154E-01
         -1   -1    0    0    0  501 -0.00000000000E+00  0.00000000000E+00  0.12630341339E+04  0.12630341339E+04  0.00000000000E+00 0.  1.
          1   -1    0    0  501    0  0.00000000000E+00 -0.00000000000E+00 -0.60266158800E+03  0.60266158800E+03  0.00000000000E+00 0. -1.
         23    2    1    2    0    0 -0.49506208506E+03  0.39421304961E+03  0.19054939397E+03  0.66682059475E+03  0.88601565981E+02 0.  0.
        254    2    1    2    0    0  0.49506208506E+03 -0.39421304961E+03  0.46982315190E+03  0.11988751271E+04  0.90337001268E+03 0.  0.
        -24    2    4    4    0    0  0.18136623787E+03 -0.64320551225E+03  0.17875732796E+03  0.69679584102E+03  0.83445901838E+02 0.  0.
         24    2    4    4    0    0  0.31369584719E+03  0.24899246264E+03  0.29106582393E+03  0.50207928609E+03  0.83438388447E+02 0.  0.
         11    1    3    3    0    0 -0.22071443048E+03  0.12346650593E+03  0.60642450266E+02  0.26006988423E+03  0.00000000000E+00 0.  1.
        -11    1    3    3    0    0 -0.27434765458E+03  0.27074654368E+03  0.12990694371E+03  0.40675071052E+03  0.00000000000E+00 0. -1.
          2    1    6    6  502    0  0.10260916106E+03  0.13357681015E+03  0.12489592778E+03  0.20969119419E+03  0.00000000000E+00 0. -1.
          3    1    5    5  503    0 -0.87001939476E+00  0.40866296256E+00  0.58023899267E+01  0.58814681862E+01  0.00000000000E+00 0. -1.
         -4    1    5    5    0  503  0.18223625726E+03 -0.64361417521E+03  0.17295493804E+03  0.69091437283E+03  0.00000000000E+00 0.  1.
         -1    1    6    6    0  502  0.21108668613E+03  0.11541565248E+03  0.16616989615E+03  0.29238809191E+03  0.00000000000E+00 0.  1.
<mgrwt>
<rscale>  0 0.17449151E+04</rscale>
<asrwt>0</asrwt>
<pdfrwt beam="1">  1        1 0.92717167E-01 0.17449151E+04</pdfrwt>
<pdfrwt beam="2">  1       -1 0.19431294E+00 0.17449151E+04</pdfrwt>
<totfact> 0.53165224E+00</totfact>
</mgrwt>
</event>
<event>
12    1  0.1980523E-007  0.1987794E+04  0.7818608E-02  0.8612349E-01
          2   -1    0    0  501    0  0.00000000000E+00  0.00000000000E+00  0.34955880835E+04  0.34955880835E+04  0.00000000000E+00 0. -1.
         -2   -1    0    0    0  501 -0.00000000000E+00 -0.00000000000E+00 -0.28259383500E+03  0.28259383500E+03  0.00000000000E+00 0.  1.
         23    2    1    2    0    0  0.30683579438E+03 -0.63640451258E+03  0.19408345392E+04  0.20674459661E+04  0.91297347211E+02 0.  0.
        254    2    1    2    0    0 -0.30683579438E+03  0.63640451258E+03  0.12721597093E+04  0.17107359525E+04  0.89948222035E+03 0.  0.
        -24    2    4    4    0    0  0.40246468031E+02  0.34031289261E+03  0.11898674765E+04  0.12404325723E+04  0.73862789807E+02 0.  0.
         24    2    4    4    0    0 -0.34708226241E+03  0.29609161997E+03  0.82292232802E+02  0.47030338017E+03  0.79226974688E+02 0.  0.
         11    1    3    3    0    0  0.20956209326E+03 -0.52018030204E+03  0.15342915378E+04  0.16335710393E+04  0.00000000000E+00 0.  1.
        -11    1    3    3    0    0  0.97273701120E+02 -0.11622421054E+03  0.40654300144E+03  0.43387492675E+03  0.00000000000E+00 0. -1.
          4    1    6    6  502    0 -0.21574227084E+03  0.16561309064E+03  0.85625176365E+02  0.28513872772E+03  0.00000000000E+00 0. -1.
          3    1    5    5  503    0  0.70354248250E+01  0.29343756844E+02  0.20207033040E+03  0.20431096812E+03  0.00000000000E+00 0. -1.
         -4    1    5    5    0  503  0.33211043206E+02  0.31096913576E+03  0.98779714610E+03  0.10361216042E+04  0.00000000000E+00 0.  1.
         -3    1    6    6    0  502 -0.13133999157E+03  0.13047852933E+03 -0.33329435627E+01  0.18516465245E+03  0.00000000000E+00 0.  1.
<mgrwt>
<rscale>  0 0.19877944E+04</rscale>
<asrwt>0</asrwt>
<pdfrwt beam="1">  1        2 0.53778275E+00 0.19877944E+04</pdfrwt>
<pdfrwt beam="2">  1       -2 0.43475977E-01 0.19877944E+04</pdfrwt>
<totfact> 0.38419589E+00</totfact>
</mgrwt>
</event>
<event>
12    1  0.1980523E-007  0.1376535E+04  0.7818608E-02  0.8970981E-01
          2   -1    0    0  501    0  0.00000000000E+00  0.00000000000E+00  0.12551010752E+04  0.12551010752E+04  0.00000000000E+00 0.  1.
         -2   -1    0    0    0  501 -0.00000000000E+00 -0.00000000000E+00 -0.37742922231E+03  0.37742922231E+03  0.00000000000E+00 0. -1.
         23    2    1    2    0    0 -0.37478998994E+03 -0.61952390204E+02  0.33206006709E+03  0.51305431623E+03  0.93033370560E+02 0.  0.
        254    2    1    2    0    0  0.37478998994E+03  0.61952390204E+02  0.54561178584E+03  0.11194759813E+04  0.90068230618E+03 0.  0.
        -24    2    4    4    0    0  0.15693991086E+03  0.29881180405E+03 -0.12777189007E+03  0.36977480865E+03  0.80555095168E+02 0.  0.
         24    2    4    4    0    0  0.21785007908E+03 -0.23685941385E+03  0.67338367590E+03  0.74970117266E+03  0.71029813652E+02 0.  0.
         11    1    3    3    0    0 -0.19454606417E+03 -0.57040321820E+02  0.12364219783E+03  0.23746402355E+03  0.00000000000E+00 0. -1.
        -11    1    3    3    0    0 -0.18024392577E+03 -0.49120683840E+01  0.20841786926E+03  0.27559029268E+03  0.00000000000E+00 0.  1.
          2    1    6    6  502    0  0.22775181115E+02 -0.45736083103E+02  0.63791348420E+02  0.81730253307E+02  0.00000000000E+00 0. -1.
          3    1    5    5  503    0 -0.81168187116E+01  0.39189377362E+01 -0.24204592300E+01  0.93327081741E+01  0.00000000000E+00 0. -1.
         -2    1    5    5    0  503  0.16505672958E+03  0.29489286632E+03 -0.12535143084E+03  0.36044210048E+03  0.00000000000E+00 0.  1.
         -1    1    6    6    0  502  0.19507489796E+03 -0.19112333075E+03  0.60959232748E+03  0.66797091935E+03  0.00000000000E+00 0.  1.
<mgrwt>
<rscale>  0 0.13765345E+04</rscale>
<asrwt>0</asrwt>
<pdfrwt beam="1">  1        2 0.19309247E+00 0.13765345E+04</pdfrwt>
<pdfrwt beam="2">  1       -2 0.58066035E-01 0.13765345E+04</pdfrwt>
<totfact> 0.47525137E+01</totfact>
</mgrwt>
</event>
<event>
12    1  0.1980523E-007  0.1812712E+04  0.7818608E-02  0.8699569E-01
         -1   -1    0    0    0  501 -0.00000000000E+00  0.00000000000E+00  0.79793784121E+03  0.79793784121E+03  0.00000000000E+00 0.  1.
          1   -1    0    0  501    0  0.00000000000E+00 -0.00000000000E+00 -0.10295049295E+04  0.10295049295E+04  0.00000000000E+00 0. -1.
         23    2    1    2    0    0 -0.39082729247E+03 -0.51680132687E+03 -0.29198788251E+03  0.71659352189E+03  0.91759294338E+02 0.  0.
        254    2    1    2    0    0  0.39082729247E+03  0.51680132687E+03  0.60420794223E+02  0.11108492488E+04  0.90028095460E+03 0.  0.
        -24    2    4    4    0    0  0.48283235196E+03  0.71907712902E+03  0.10640840602E+02  0.86990286699E+03  0.80117244945E+02 0.  0.
         24    2    4    4    0    0 -0.92005059491E+02 -0.20227580215E+03  0.49779953621E+02  0.24094638182E+03  0.78719019450E+02 0.  0.
         13    1    3    3    0    0 -0.30088690095E+03 -0.43302466169E+03 -0.26747933010E+03  0.59126007545E+03  0.00000000000E+00 0. -1.
        -13    1    3    3    0    0 -0.89940391524E+02 -0.83776665182E+02 -0.24508552404E+02  0.12533344644E+03  0.00000000000E+00 0.  1.
          2    1    6    6  502    0 -0.82987199476E+02 -0.15786523052E+03  0.67833886456E+01  0.17847778754E+03  0.00000000000E+00 0. -1.
          1    1    5    5  503    0  0.92820113292E+02  0.11492469307E+03  0.29085147748E+02  0.15056295802E+03  0.00000000000E+00 0. -1.
         -2    1    5    5    0  503  0.39001223867E+03  0.60415243594E+03 -0.18444307146E+02  0.71933990897E+03  0.00000000000E+00 0.  1.
         -1    1    6    6    0  502 -0.90178600150E+01 -0.44410571631E+02  0.42996564976E+02  0.62468594281E+02  0.00000000000E+00 0.  1.
<mgrwt>
<rscale>  0 0.18127117E+04</rscale>
<asrwt>0</asrwt>
<pdfrwt beam="1">  1        1 0.15838537E+00 0.18127117E+04</pdfrwt>
<pdfrwt beam="2">  1       -1 0.12275967E+00 0.18127117E+04</pdfrwt>
<totfact> 0.79196451E+00</totfact>
</mgrwt>
</event>
<event>
12    1  0.1980523E-007  0.1243965E+04  0.7818608E-02  0.9075221E-01
          2   -1    0    0  501    0  0.00000000000E+00  0.00000000000E+00  0.33907868375E+03  0.33907868375E+03  0.00000000000E+00 0. -1.
         -2   -1    0    0    0  501 -0.00000000000E+00 -0.00000000000E+00 -0.11409215804E+04  0.11409215804E+04  0.00000000000E+00 0.  1.
         23    2    1    2    0    0  0.28236915056E+03  0.66724870140E+01 -0.15548043843E+03  0.33554633427E+03  0.92953302437E+02 0.  0.
        254    2    1    2    0    0 -0.28236915056E+03 -0.66724870140E+01 -0.64636245826E+03  0.11444539299E+04  0.90122888935E+03 0.  0.
        -24    2    4    4    0    0 -0.16719090108E+03  0.43906475389E+03 -0.31672826556E+03  0.57275421896E+03  0.83665677662E+02 0.  0.
         24    2    4    4    0    0 -0.11517824948E+03 -0.44573724090E+03 -0.32963419270E+03  0.57169971097E+03  0.78956579493E+02 0.  0.
         11    1    3    3    0    0  0.24275894829E+03  0.26147223103E+02 -0.15883511152E+03  0.29128023774E+03  0.00000000000E+00 0.  1.
        -11    1    3    3    0    0  0.39610202278E+02 -0.19474736089E+02  0.33546730849E+01  0.44266096527E+02  0.00000000000E+00 0. -1.
          2    1    6    6  502    0  0.56505941124E+01 -0.72374027411E+02 -0.72090032750E+02  0.10230787789E+03  0.00000000000E+00 0. -1.
          1    1    5    5  503    0 -0.42236782231E+02  0.10337027026E+03 -0.12067936009E+03  0.16441674640E+03  0.00000000000E+00 0. -1.
         -2    1    5    5    0  503 -0.12495411885E+03  0.33569448363E+03 -0.19604890548E+03  0.40833747256E+03  0.00000000000E+00 0.  1.
         -1    1    6    6    0  502 -0.12082884360E+03 -0.37336321349E+03 -0.25754415995E+03  0.46939183307E+03  0.00000000000E+00 0.  1.
<mgrwt>
<rscale>  0 0.12439649E+04</rscale>
<asrwt>0</asrwt>
<pdfrwt beam="1">  1        2 0.52165951E-01 0.12439649E+04</pdfrwt>
<pdfrwt beam="2">  1       -2 0.17552640E+00 0.12439649E+04</pdfrwt>
<totfact> 0.18331318E+01</totfact>
</mgrwt>
</event>
<event>
12    1  0.1980523E-007  0.1666889E+04  0.7818608E-02  0.8780477E-01
          2   -1    0    0  501    0  0.00000000000E+00  0.00000000000E+00  0.71330562543E+03  0.71330562543E+03  0.00000000000E+00 0. -1.
         -2   -1    0    0    0  501 -0.00000000000E+00 -0.00000000000E+00 -0.97381821433E+03  0.97381821433E+03  0.00000000000E+00 0.  1.
         23    2    1    2    0    0 -0.36475378712E+02  0.50032755695E+03 -0.39980040915E+03  0.64675054530E+03  0.82388003927E+02 0.  0.
        254    2    1    2    0    0  0.36475378712E+02 -0.50032755695E+03  0.13928782025E+03  0.10403732945E+04  0.90073157903E+03 0.  0.
        -24    2    4    4    0    0  0.22949398621E+03  0.18940618645E+03  0.21025067314E+02  0.31022853255E+03  0.85190937222E+02 0.  0.
         24    2    4    4    0    0 -0.19301860749E+03 -0.68973374340E+03  0.11826275294E+03  0.73014476191E+03  0.78335655890E+02 0.  0.
         13    1    3    3    0    0  0.22005348608E+02  0.17924351044E+03 -0.16587923434E+03  0.24521091286E+03  0.00000000000E+00 0.  1.
        -13    1    3    3    0    0 -0.58480727320E+02  0.32108404651E+03 -0.23392117481E+03  0.40153963243E+03  0.00000000000E+00 0. -1.
          2    1    6    6  502    0 -0.44635840482E+02 -0.24058618778E+03  0.70898719854E+02  0.25475615887E+03  0.00000000000E+00 0. -1.
          1    1    5    5  503    0  0.65544180219E+02  0.64014399290E+02 -0.32131935630E+02  0.97089361746E+02  0.00000000000E+00 0. -1.
         -2    1    5    5    0  503  0.16394980599E+03  0.12539178716E+03  0.53157002944E+02  0.21313917081E+03  0.00000000000E+00 0.  1.
         -1    1    6    6    0  502 -0.14838276701E+03 -0.44914755563E+03  0.47364033083E+02  0.47538860304E+03  0.00000000000E+00 0.  1.
<mgrwt>
<rscale>  0 0.16668893E+04</rscale>
<asrwt>0</asrwt>
<pdfrwt beam="1">  1        2 0.10973933E+00 0.16668893E+04</pdfrwt>
<pdfrwt beam="2">  1       -2 0.14981819E+00 0.16668893E+04</pdfrwt>
<totfact> 0.11465048E+01</totfact>
</mgrwt>
</event>
<event>
12    1  0.1980523E-007  0.2125667E+04  0.7818608E-02  0.8550020E-01
         -1   -1    0    0    0  501 -0.00000000000E+00  0.00000000000E+00  0.10264898831E+04  0.10264898831E+04  0.00000000000E+00 0.  1.
          1   -1    0    0  501    0  0.00000000000E+00 -0.00000000000E+00 -0.11004637182E+04  0.11004637182E+04  0.00000000000E+00 0. -1.
         23    2    1    2    0    0 -0.24739249808E+03  0.61303109491E+03  0.53493291937E+03  0.85527211761E+03  0.91252372598E+02 0.  0.
        254    2    1    2    0    0  0.24739249808E+03 -0.61303109491E+03 -0.60890675447E+03  0.12716814838E+04  0.89966448693E+03 0.  0.
        -24    2    4    4    0    0  0.52246736962E+03 -0.33090898851E+03 -0.11393242878E+03  0.63404261081E+03  0.80972359480E+02 0.  0.
         24    2    4    4    0    0 -0.27507487155E+03 -0.28212210641E+03 -0.49497432569E+03  0.63763887294E+03  0.79527865033E+02 0.  0.
         13    1    3    3    0    0 -0.13984917611E+03  0.23707545729E+03  0.24476127643E+03  0.36833496568E+03  0.00000000000E+00 0.  1.
        -13    1    3    3    0    0 -0.10754332197E+03  0.37595563762E+03  0.29017164294E+03  0.48693715193E+03  0.00000000000E+00 0. -1.
          4    1    6    6  502    0 -0.28324922933E+02 -0.19886854378E+01 -0.41276357081E+02  0.50099838151E+02  0.00000000000E+00 0. -1.
          3    1    5    5  503    0  0.18592211704E+03 -0.74044796443E+02 -0.28573879897E+02  0.20215373382E+03  0.00000000000E+00 0. -1.
         -2    1    5    5    0  503  0.33654525258E+03 -0.25686419206E+03 -0.85358548880E+02  0.43188887699E+03  0.00000000000E+00 0.  1.
         -1    1    6    6    0  502 -0.24674994861E+03 -0.28013342097E+03 -0.45369796861E+03  0.58753903479E+03  0.00000000000E+00 0.  1.
<mgrwt>
<rscale>  0 0.21256668E+04</rscale>
<asrwt>0</asrwt>
<pdfrwt beam="1">  1        1 0.16930211E+00 0.21256668E+04</pdfrwt>
<pdfrwt beam="2">  1       -1 0.15792152E+00 0.21256668E+04</pdfrwt>
<totfact> 0.35235661E+00</totfact>
</mgrwt>
</event>
<event>
12    1  0.1980523E-007  0.2343632E+04  0.7818608E-02  0.8460914E-01
          2   -1    0    0  501    0  0.00000000000E+00  0.00000000000E+00  0.13944762938E+04  0.13944762938E+04  0.00000000000E+00 0. -1.
         -2   -1    0    0    0  501 -0.00000000000E+00 -0.00000000000E+00 -0.98470872344E+03  0.98470872344E+03  0.00000000000E+00 0.  1.
         23    2    1    2    0    0 -0.66716670062E+03 -0.55006194618E+03  0.67797753723E+03  0.11025861529E+04  0.91450163613E+02 0.  0.
        254    2    1    2    0    0  0.66716670062E+03  0.55006194618E+03 -0.26820996685E+03  0.12765988644E+04  0.90004917824E+03 0.  0.
        -24    2    4    4    0    0  0.72759030064E+03  0.54470036663E+03 -0.48761102125E+03  0.10344558685E+04  0.79046194438E+02 0.  0.
         24    2    4    4    0    0 -0.60423600019E+02  0.53615795450E+01  0.21940105440E+03  0.24214299590E+03  0.82563005139E+02 0.  0.
         13    1    3    3    0    0 -0.41380986097E+03 -0.31690697421E+03  0.35608009497E+03  0.63123820018E+03  0.00000000000E+00 0.  1.
        -13    1    3    3    0    0 -0.25335683965E+03 -0.23315497197E+03  0.32189744226E+03  0.47134795267E+03  0.00000000000E+00 0. -1.
          2    1    6    6  502    0 -0.62699006518E+02  0.12315974674E+02  0.22437460756E+03  0.23329554896E+03  0.00000000000E+00 0. -1.
          3    1    5    5  503    0  0.61637331012E+03  0.48373474981E+03 -0.44247550851E+03  0.89983328525E+03  0.00000000000E+00 0. -1.
         -2    1    5    5    0  503  0.11121699052E+03  0.60965616821E+02 -0.45135512739E+02  0.13462258326E+03  0.00000000000E+00 0.  1.
         -1    1    6    6    0  502  0.22754064999E+01 -0.69543951292E+01 -0.49735531541E+01  0.88474469385E+01  0.00000000000E+00 0.  1.
<mgrwt>
<rscale>  0 0.23436322E+04</rscale>
<asrwt>0</asrwt>
<pdfrwt beam="1">  1        2 0.21453481E+00 0.23436322E+04</pdfrwt>
<pdfrwt beam="2">  1       -2 0.15149365E+00 0.23436322E+04</pdfrwt>
<totfact> 0.38435037E+00</totfact>
</mgrwt>
</event>
<event>
12    1  0.1980523E-007  0.1354669E+04  0.7818608E-02  0.8987301E-01
         -2   -1    0    0    0  501 -0.00000000000E+00  0.00000000000E+00  0.37227074490E+03  0.37227074490E+03  0.00000000000E+00 0.  1.
          2   -1    0    0  501    0  0.00000000000E+00 -0.00000000000E+00 -0.12323880345E+04  0.12323880345E+04  0.00000000000E+00 0. -1.
         23    2    1    2    0    0  0.22518638387E+03  0.23251742355E+03 -0.45399505223E+03  0.56544173605E+03  0.94019092144E+02 0.  0.
        254    2    1    2    0    0 -0.22518638387E+03 -0.23251742355E+03 -0.40612223739E+03  0.10392170434E+04  0.90014639465E+03 0.  0.
        -24    2    4    4    0    0 -0.82873917613E+02 -0.40132546983E+03  0.14403257144E+03  0.44094538284E+03  0.75876413041E+02 0.  0.
         24    2    4    4    0    0 -0.14231246626E+03  0.16880804629E+03 -0.55015480883E+03  0.59827166053E+03  0.80682535727E+02 0.  0.
         11    1    3    3    0    0 -0.15749222288E+01  0.31731699011E+01  0.39609002728E+01  0.53139550449E+01  0.00000000000E+00 0.  1.
        -11    1    3    3    0    0  0.22676130610E+03  0.22934425364E+03 -0.45795595250E+03  0.56012778101E+03  0.00000000000E+00 0. -1.
          2    1    6    6  502    0  0.87367872359E+01  0.18475190143E+02 -0.70564289033E+02  0.73464161254E+02  0.00000000000E+00 0. -1.
          1    1    5    5  503    0 -0.34724388192E+02 -0.91070082204E+02  0.50680416543E+01  0.97597274830E+02  0.00000000000E+00 0. -1.
         -2    1    5    5    0  503 -0.48149529420E+02 -0.31025538763E+03  0.13896452979E+03  0.34334810801E+03  0.00000000000E+00 0.  1.
         -1    1    6    6    0  502 -0.15104925350E+03  0.15033285614E+03 -0.47959051980E+03  0.52480749928E+03  0.00000000000E+00 0.  1.
<mgrwt>
<rscale>  0 0.13546690E+04</rscale>
<asrwt>0</asrwt>
<pdfrwt beam="1">  1        2 0.18959816E+00 0.13546690E+04</pdfrwt>
<pdfrwt beam="2">  1       -2 0.57272423E-01 0.13546690E+04</pdfrwt>
<totfact> 0.50534172E+01</totfact>
</mgrwt>
</event>
<event>
12    1  0.1980523E-007  0.2478199E+04  0.7818608E-02  0.8410794E-01
         -2   -1    0    0    0  501 -0.00000000000E+00  0.00000000000E+00  0.37587712714E+03  0.37587712714E+03  0.00000000000E+00 0. -1.
          2   -1    0    0  501    0  0.00000000000E+00 -0.00000000000E+00 -0.40847601741E+04  0.40847601741E+04  0.00000000000E+00 0.  1.
         23    2    1    2    0    0  0.51173571432E+02  0.57970408244E+03 -0.32325046009E+04  0.32857347093E+04  0.91055078764E+02 0.  0.
        254    2    1    2    0    0 -0.51173571432E+02 -0.57970408244E+03 -0.47637844609E+03  0.11749025920E+04  0.90265393099E+03 0.  0.
        -24    2    4    4    0    0  0.29487043795E+03 -0.63245698687E+03 -0.22631418411E+03  0.73794750498E+03  0.79987466283E+02 0.  0.
         24    2    4    4    0    0 -0.34604400938E+03  0.52752904428E+02 -0.25006426198E+03  0.43695508700E+03  0.76604749107E+02 0.  0.
         11    1    3    3    0    0  0.58016767261E+02  0.34667901902E+03 -0.17419935978E+04  0.17771026933E+04  0.00000000000E+00 0. -1.
        -11    1    3    3    0    0 -0.68431958293E+01  0.23302506342E+03 -0.14905110031E+04  0.15086320160E+04  0.00000000000E+00 0.  1.
          2    1    6    6  502    0 -0.25629452834E+03  0.13746985464E+02 -0.15139415380E+03  0.29798666862E+03  0.00000000000E+00 0. -1.
          1    1    5    5  503    0  0.77403433636E+02 -0.18448730679E+03 -0.10261823608E+03  0.22484963927E+03  0.00000000000E+00 0. -1.
         -2    1    5    5    0  503  0.21746700431E+03 -0.44796968008E+03 -0.12369594803E+03  0.51309786571E+03  0.00000000000E+00 0.  1.
         -1    1    6    6    0  502 -0.89749481033E+02  0.39005918964E+02 -0.98670108185E+02  0.13896841839E+03  0.00000000000E+00 0.  1.
<mgrwt>
<rscale>  0 0.24781993E+04</rscale>
<asrwt>0</asrwt>
<pdfrwt beam="1">  1        2 0.62842469E+00 0.24781993E+04</pdfrwt>
<pdfrwt beam="2">  1       -2 0.57827246E-01 0.24781993E+04</pdfrwt>
<totfact> 0.73194082E-01</totfact>
</mgrwt>
</event>
<event>
12    1  0.1980523E-007  0.1659763E+04  0.7818608E-02  0.8784651E-01
         -2   -1    0    0    0  501 -0.00000000000E+00  0.00000000000E+00  0.17476880759E+04  0.17476880759E+04  0.00000000000E+00 0.  1.
          2   -1    0    0  501    0  0.00000000000E+00 -0.00000000000E+00 -0.39406555938E+03  0.39406555938E+03  0.00000000000E+00 0. -1.
         23    2    1    2    0    0 -0.27944651286E+03 -0.17321632311E+03  0.10916920862E+04  0.11438419847E+04  0.92133744018E+02 0.  0.
        254    2    1    2    0    0  0.27944651286E+03  0.17321632311E+03  0.26193043032E+03  0.99791165057E+03  0.90505572418E+03 0.  0.
        -24    2    4    4    0    0 -0.55579056851E+02  0.21942588691E+03  0.51425346688E+03  0.56768290011E+03  0.81058592886E+02 0.  0.
         24    2    4    4    0    0  0.33502556971E+03 -0.46209563800E+02 -0.25232303656E+03  0.43022875045E+03  0.83978609124E+02 0.  0.
         11    1    3    3    0    0 -0.91454095465E+02 -0.10532656450E+03  0.38790940170E+03  0.41222717122E+03  0.00000000000E+00 0. -1.
        -11    1    3    3    0    0 -0.18799241740E+03 -0.67889758608E+02  0.70378268449E+03  0.73161481349E+03  0.00000000000E+00 0.  1.
          2    1    6    6  502    0  0.74878562740E+02 -0.44759683158E+02 -0.78446553129E+02  0.11732045897E+03  0.00000000000E+00 0. -1.
          1    1    5    5  503    0  0.67191534026E+01  0.12821445610E+03  0.30862410661E+03  0.33426476475E+03  0.00000000000E+00 0. -1.
         -4    1    5    5    0  503 -0.62298210254E+02  0.91211430807E+02  0.20562936027E+03  0.23341813536E+03  0.00000000000E+00 0.  1.
         -1    1    6    6    0  502  0.26014700697E+03 -0.14498806414E+01 -0.17387648343E+03  0.31290829149E+03  0.00000000000E+00 0.  1.
<mgrwt>
<rscale>  0 0.16597635E+04</rscale>
<asrwt>0</asrwt>
<pdfrwt beam="1">  1        2 0.60625472E-01 0.16597635E+04</pdfrwt>
<pdfrwt beam="2">  1       -2 0.26887508E+00 0.16597635E+04</pdfrwt>
<totfact> 0.38046762E+00</totfact>
</mgrwt>
</event>
<event>
12    1  0.1980523E-007  0.2509039E+04  0.7818608E-02  0.8399772E-01
          1   -1    0    0  501    0  0.00000000000E+00  0.00000000000E+00  0.15443511618E+04  0.15443511618E+04  0.00000000000E+00 0. -1.
         -1   -1    0    0    0  501 -0.00000000000E+00 -0.00000000000E+00 -0.10190812577E+04  0.10190812577E+04  0.00000000000E+00 0.  1.
         23    2    1    2    0    0  0.50915738817E+03 -0.88505330434E+03  0.61988565833E+03  0.11979495213E+04  0.90907803609E+02 0.  0.
        254    2    1    2    0    0 -0.50915738817E+03  0.88505330434E+03 -0.94615754188E+02  0.13654828981E+04  0.90168220937E+03 0.  0.
        -24    2    4    4    0    0  0.91668267273E+02 -0.11845295016E+03 -0.92481998442E+02  0.19308493443E+03  0.79339140670E+02 0.  0.
         24    2    4    4    0    0 -0.60082565544E+03  0.10035062545E+04 -0.21337557459E+01  0.11723979637E+04  0.80598767442E+02 0.  0.
         11    1    3    3    0    0  0.22799008630E+03 -0.47816180807E+03  0.29725934941E+03  0.60743832194E+03  0.00000000000E+00 0.  1.
        -11    1    3    3    0    0  0.28116730187E+03 -0.40689149627E+03  0.32262630892E+03  0.59051119938E+03  0.00000000000E+00 0. -1.
          4    1    6    6  502    0 -0.19303358052E+03  0.27820714232E+03 -0.29259074193E+02  0.33987831744E+03  0.00000000000E+00 0. -1.
          3    1    5    5  503    0  0.85340204937E+02 -0.10284035015E+03 -0.42333971324E+02  0.14018292808E+03  0.00000000000E+00 0. -1.
         -4    1    5    5    0  503  0.63280623356E+01 -0.15612600012E+02 -0.50148027118E+02  0.52902006351E+02  0.00000000000E+00 0.  1.
         -3    1    6    6    0  502 -0.40779207492E+03  0.72529911218E+03  0.27125318447E+02  0.83251964626E+03  0.00000000000E+00 0.  1.
<mgrwt>
<rscale>  0 0.25090391E+04</rscale>
<asrwt>0</asrwt>
<pdfrwt beam="1">  1        1 0.23759249E+00 0.25090391E+04</pdfrwt>
<pdfrwt beam="2">  1       -1 0.15678173E+00 0.25090391E+04</pdfrwt>
<totfact> 0.16731878E+00</totfact>
</mgrwt>
</event>
<event>
12    1  0.1980523E-007  0.3242945E+04  0.7818608E-02  0.8177567E-01
         -1   -1    0    0    0  501 -0.00000000000E+00  0.00000000000E+00  0.94635886936E+03  0.94635886936E+03  0.00000000000E+00 0.  1.
          1   -1    0    0  501    0  0.00000000000E+00 -0.00000000000E+00 -0.27781991051E+04  0.27781991051E+04  0.00000000000E+00 0. -1.
         23    2    1    2    0    0 -0.99846750355E+03  0.76351753358E+03  0.83546375673E+02  0.12629571933E+04  0.90468202119E+02 0.  0.
        254    2    1    2    0    0  0.99846750355E+03 -0.76351753358E+03 -0.19153866114E+04  0.24616007811E+04  0.90048662105E+03 0.  0.
        -24    2    4    4    0    0 -0.72578169144E+02 -0.39750497829E+03 -0.50338219743E+03  0.65043885112E+03  0.79995399594E+02 0.  0.
         24    2    4    4    0    0  0.10710456727E+04 -0.36601255529E+03 -0.14120044140E+04  0.18111619300E+04  0.73804118664E+02 0.  0.
         13    1    3    3    0    0 -0.34935046424E+03  0.32233490351E+03  0.31463383540E+02  0.47637745684E+03  0.00000000000E+00 0. -1.
        -13    1    3    3    0    0 -0.64911703932E+03  0.44118263007E+03  0.52082992133E+02  0.78657973650E+03  0.00000000000E+00 0.  1.
          2    1    6    6  502    0  0.12872146375E+03 -0.35029092200E+02 -0.13277876727E+03  0.18821916366E+03  0.00000000000E+00 0. -1.
          3    1    5    5  503    0 -0.12992876721E+02 -0.61447594083E+02 -0.38301971094E+02  0.73564003791E+02  0.00000000000E+00 0. -1.
         -4    1    5    5    0  503 -0.59585292424E+02 -0.33605738421E+03 -0.46508022634E+03  0.57687484733E+03  0.00000000000E+00 0.  1.
         -1    1    6    6    0  502  0.94232420894E+03 -0.33098346309E+03 -0.12792256467E+04  0.16229427663E+04  0.00000000000E+00 0.  1.
<mgrwt>
<rscale>  0 0.32429452E+04</rscale>
<asrwt>0</asrwt>
<pdfrwt beam="1">  1        1 0.42741524E+00 0.32429452E+04</pdfrwt>
<pdfrwt beam="2">  1       -1 0.14559367E+00 0.32429452E+04</pdfrwt>
<totfact> 0.27196719E-01</totfact>
</mgrwt>
</event>
<event>
12    1  0.1980523E-007  0.1314040E+04  0.7818608E-02  0.9018505E-01
         -2   -1    0    0    0  501 -0.00000000000E+00  0.00000000000E+00  0.14505112749E+04  0.14505112749E+04  0.00000000000E+00 0.  1.
          2   -1    0    0  501    0  0.00000000000E+00 -0.00000000000E+00 -0.29760198184E+03  0.29760198184E+03  0.00000000000E+00 0. -1.
         23    2    1    2    0    0 -0.30703588205E+03 -0.14543642235E+03  0.27911747156E+03  0.44910283176E+03  0.91454932889E+02 0.  0.
        254    2    1    2    0    0  0.30703588205E+03  0.14543642235E+03  0.87379182150E+03  0.12990104250E+04  0.89916247202E+03 0.  0.
        -24    2    4    4    0    0  0.53436304104E+03  0.24732677297E+03  0.84871384566E+03  0.10359841553E+04  0.78953061976E+02 0.  0.
         24    2    4    4    0    0 -0.22732715899E+03 -0.10189035062E+03  0.25077975841E+02  0.26302626967E+03  0.80589285292E+02 0.  0.
         13    1    3    3    0    0 -0.15509890036E+03 -0.33967950226E+02  0.16407672557E+03  0.22832140156E+03  0.00000000000E+00 0.  1.
        -13    1    3    3    0    0 -0.15193698169E+03 -0.11146847212E+03  0.11504074598E+03  0.22078143020E+03  0.00000000000E+00 0. -1.
          2    1    6    6  502    0 -0.68213420817E+02 -0.72961631554E+01 -0.21965528439E+02  0.72033250767E+02  0.00000000000E+00 0. -1.
          1    1    5    5  503    0  0.75063194392E+02  0.58797700090E+02  0.17218901066E+03  0.19682659393E+03  0.00000000000E+00 0. -1.
         -2    1    5    5    0  503  0.45929984665E+03  0.18852907288E+03  0.67652483500E+03  0.83915756138E+03  0.00000000000E+00 0.  1.
         -1    1    6    6    0  502 -0.15911373817E+03 -0.94594187466E+02  0.47043504280E+02  0.19099301891E+03  0.00000000000E+00 0.  1.
<mgrwt>
<rscale>  0 0.13140396E+04</rscale>
<asrwt>0</asrwt>
<pdfrwt beam="1">  1        2 0.45784921E-01 0.13140396E+04</pdfrwt>
<pdfrwt beam="2">  1       -2 0.22315558E+00 0.13140396E+04</pdfrwt>
<totfact> 0.10240188E+01</totfact>
</mgrwt>
</event>
<event>
12    1  0.1980523E-007  0.1989788E+04  0.7818608E-02  0.8611410E-01
         -2   -1    0    0    0  501 -0.00000000000E+00  0.00000000000E+00  0.11446605920E+04  0.11446605920E+04  0.00000000000E+00 0.  1.
          2   -1    0    0  501    0  0.00000000000E+00 -0.00000000000E+00 -0.86472237494E+03  0.86472237494E+03  0.00000000000E+00 0. -1.
         23    2    1    2    0    0 -0.37176398602E+03  0.71611643519E+02  0.81059122961E+03  0.89870381506E+03  0.85286088504E+02 0.  0.
        254    2    1    2    0    0  0.37176398602E+03 -0.71611643519E+02 -0.53065301259E+03  0.11106791518E+04  0.89926573923E+03 0.  0.
        -24    2    4    4    0    0  0.14430992478E+03 -0.44890125292E+03 -0.98457501810E+02  0.48828120122E+03  0.79918474355E+02 0.  0.
         24    2    4    4    0    0  0.22745406124E+03  0.37728960940E+03 -0.43219551078E+03  0.62239795061E+03  0.80643970943E+02 0.  0.
         11    1    3    3    0    0 -0.35982133758E+03  0.50386113268E+02  0.74902439440E+03  0.83249486413E+03  0.00000000000E+00 0.  1.
        -11    1    3    3    0    0 -0.11942648445E+02  0.21225530251E+02  0.61566835210E+02  0.66208950936E+02  0.00000000000E+00 0. -1.
          2    1    6    6  502    0  0.66638566347E+02  0.51578374921E+02 -0.91252080080E+02  0.12420937728E+03  0.00000000000E+00 0. -1.
          1    1    5    5  503    0  0.37482547526E+02 -0.15700672526E+03  0.25913963838E+01  0.16143967444E+03  0.00000000000E+00 0. -1.
         -2    1    5    5    0  503  0.10682737725E+03 -0.29189452766E+03 -0.10104889819E+03  0.32684152679E+03  0.00000000000E+00 0.  1.
         -1    1    6    6    0  502  0.16081549490E+03  0.32571123448E+03 -0.34094343070E+03  0.49818857334E+03  0.00000000000E+00 0.  1.
<mgrwt>
<rscale>  0 0.19897876E+04</rscale>
<asrwt>0</asrwt>
<pdfrwt beam="1">  1        2 0.13303421E+00 0.19897876E+04</pdfrwt>
<pdfrwt beam="2">  1       -2 0.17610163E+00 0.19897876E+04</pdfrwt>
<totfact> 0.55611557E+00</totfact>
</mgrwt>
</event>
<event>
12    1  0.1980523E-007  0.2210017E+04  0.7818608E-02  0.8514270E-01
         -2   -1    0    0    0  501 -0.00000000000E+00  0.00000000000E+00  0.15693106810E+04  0.15693106810E+04  0.00000000000E+00 0.  1.
          2   -1    0    0  501    0  0.00000000000E+00 -0.00000000000E+00 -0.77807669277E+03  0.77807669277E+03  0.00000000000E+00 0. -1.
         23    2    1    2    0    0  0.75210635280E+03  0.51519335354E+03  0.20619421689E+03  0.93901233266E+03  0.90221662345E+02 0.  0.
        254    2    1    2    0    0 -0.75210635280E+03 -0.51519335354E+03  0.58503977130E+03  0.14083750411E+04  0.90008919828E+03 0.  0.
        -24    2    4    4    0    0 -0.26265480772E+03 -0.50148959924E+03 -0.81683810591E+02  0.57735631843E+03  0.78668337652E+02 0.  0.
         24    2    4    4    0    0 -0.48945154508E+03 -0.13703754294E+02  0.66672358189E+03  0.83101872264E+03  0.79505816618E+02 0.  0.
         13    1    3    3    0    0  0.39657828362E+03  0.32052000169E+03  0.94790836565E+02  0.51864507056E+03  0.00000000000E+00 0. -1.
        -13    1    3    3    0    0  0.35552806918E+03  0.19467335185E+03  0.11140338033E+03  0.42036726210E+03  0.00000000000E+00 0.  1.
          2    1    6    6  502    0 -0.86583360437E+02  0.16891186899E+02  0.83109894737E+02  0.12119919597E+03  0.00000000000E+00 0. -1.
          3    1    5    5  503    0 -0.23909516062E+03 -0.46170418276E+03 -0.52280845624E+02  0.52256151315E+03  0.00000000000E+00 0. -1.
         -2    1    5    5    0  503 -0.23559647100E+02 -0.39785416481E+02 -0.29402964967E+02  0.54794805273E+02  0.00000000000E+00 0.  1.
         -3    1    6    6    0  502 -0.40286818464E+03 -0.30594941193E+02  0.58361368715E+03  0.70981952668E+03  0.00000000000E+00 0.  1.
<mgrwt>
<rscale>  0 0.22100173E+04</rscale>
<asrwt>0</asrwt>
<pdfrwt beam="1">  1        2 0.11970411E+00 0.22100173E+04</pdfrwt>
<pdfrwt beam="2">  1       -2 0.24143241E+00 0.22100173E+04</pdfrwt>
<totfact> 0.23682995E+00</totfact>
</mgrwt>
</event>
<event>
12    1  0.1980523E-007  0.1706709E+04  0.7818608E-02  0.8757547E-01
         -2   -1    0    0    0  501 -0.00000000000E+00  0.00000000000E+00  0.87147610693E+03  0.87147610693E+03  0.00000000000E+00 0.  1.
          2   -1    0    0  501    0  0.00000000000E+00 -0.00000000000E+00 -0.83560945342E+03  0.83560945342E+03  0.00000000000E+00 0. -1.
         23    2    1    2    0    0 -0.15685942823E+02  0.50901474360E+03 -0.32235497818E+03  0.60953682020E+03  0.90996402250E+02 0.  0.
        254    2    1    2    0    0  0.15685942823E+02 -0.50901474360E+03  0.35822163168E+03  0.10975487401E+04  0.90385200204E+03 0.  0.
        -24    2    4    4    0    0  0.32285545243E+03 -0.39509974413E+03 -0.10249128917E+03  0.52664311524E+03  0.80678717737E+02 0.  0.
         24    2    4    4    0    0 -0.30716950961E+03 -0.11391499947E+03  0.46071292085E+03  0.57090562491E+03  0.79668703898E+02 0.  0.
         13    1    3    3    0    0  0.85551097283E+01  0.32087940003E+03 -0.15448806988E+03  0.35623495477E+03  0.00000000000E+00 0.  1.
        -13    1    3    3    0    0 -0.24241052551E+02  0.18813534357E+03 -0.16786690830E+03  0.25330186543E+03  0.00000000000E+00 0. -1.
          2    1    6    6  502    0 -0.12135963286E+03 -0.23682092117E+02  0.11898484799E+03  0.17159952222E+03  0.00000000000E+00 0. -1.
          1    1    5    5  503    0  0.10560658850E+03 -0.16222143077E+03 -0.52136394475E+01  0.19363813202E+03  0.00000000000E+00 0. -1.
         -2    1    5    5    0  503  0.21724886394E+03 -0.23287831336E+03 -0.97277649718E+02  0.33300498322E+03  0.00000000000E+00 0.  1.
         -1    1    6    6    0  502 -0.18580987675E+03 -0.90232907352E+02  0.34172807286E+03  0.39930610270E+03  0.00000000000E+00 0.  1.
<mgrwt>
<rscale>  0 0.17067087E+04</rscale>
<asrwt>0</asrwt>
<pdfrwt beam="1">  1        2 0.12855530E+00 0.17067087E+04</pdfrwt>
<pdfrwt beam="2">  1       -2 0.13407325E+00 0.17067087E+04</pdfrwt>
<totfact> 0.12402867E+01</totfact>
</mgrwt>
</event>
<event>
12    1  0.1980523E-007  0.1345691E+04  0.7818608E-02  0.8994096E-01
         -2   -1    0    0    0  501 -0.00000000000E+00  0.00000000000E+00  0.36030280490E+03  0.36030280490E+03  0.00000000000E+00 0.  1.
          2   -1    0    0  501    0  0.00000000000E+00 -0.00000000000E+00 -0.12565024398E+04  0.12565024398E+04  0.00000000000E+00 0. -1.
         23    2    1    2    0    0  0.28827393975E+03  0.11250581253E+03 -0.19454485104E+02  0.32260126418E+03  0.89071187653E+02 0.  0.
        254    2    1    2    0    0 -0.28827393975E+03 -0.11250581253E+03 -0.87674514975E+03  0.12942039805E+04  0.90029021057E+03 0.  0.
        -24    2    4    4    0    0 -0.45089897488E+03 -0.13739917797E+03 -0.97555956489E+03  0.10863191499E+04  0.78641027585E+02 0.  0.
         24    2    4    4    0    0  0.16262503513E+03  0.24893365442E+02  0.98814415139E+02  0.20788483053E+03  0.79907649383E+02 0.  0.
         11    1    3    3    0    0  0.52993646823E+02 -0.12422276976E+02 -0.13793641167E+02  0.56150726670E+02  0.00000000000E+00 0.  1.
        -11    1    3    3    0    0  0.23528029293E+03  0.12492808950E+03 -0.56608439367E+01  0.26645053751E+03  0.00000000000E+00 0. -1.
          2    1    6    6  502    0  0.11749494881E+03  0.53113929983E+02  0.61340642447E+02  0.14278944978E+03  0.00000000000E+00 0. -1.
          3    1    5    5  503    0 -0.37666331676E+03 -0.14126052724E+03 -0.79287874905E+03  0.88909307806E+03  0.00000000000E+00 0. -1.
         -4    1    5    5    0  503 -0.74235658119E+02  0.38613492727E+01 -0.18268081584E+03  0.19722607188E+03  0.00000000000E+00 0.  1.
         -1    1    6    6    0  502  0.45130086323E+02 -0.28220564541E+02  0.37473772692E+02  0.65095380745E+02  0.00000000000E+00 0.  1.
<mgrwt>
<rscale>  0 0.13456914E+04</rscale>
<asrwt>0</asrwt>
<pdfrwt beam="1">  1        2 0.19330807E+00 0.13456914E+04</pdfrwt>
<pdfrwt beam="2">  1       -2 0.55431201E-01 0.13456914E+04</pdfrwt>
<totfact> 0.52391189E+01</totfact>
</mgrwt>
</event>
<event>
12    1  0.1980523E-007  0.1922507E+04  0.7818608E-02  0.8643733E-01
         -2   -1    0    0    0  501 -0.00000000000E+00  0.00000000000E+00  0.35735760587E+03  0.35735760587E+03  0.00000000000E+00 0. -1.
          2   -1    0    0  501    0  0.00000000000E+00 -0.00000000000E+00 -0.25856697850E+04  0.25856697850E+04  0.00000000000E+00 0.  1.
         23    2    1    2    0    0 -0.12547596313E+03 -0.61570756601E+03 -0.25579097276E+03  0.68478745192E+03  0.93084952596E+02 0.  0.
        254    2    1    2    0    0  0.12547596313E+03  0.61570756601E+03 -0.19725212063E+04  0.22582399389E+04  0.90220157840E+03 0.  0.
        -24    2    4    4    0    0 -0.71447409396E+02 -0.16772787733E+02 -0.13222502271E+04  0.13266434820E+04  0.79064571187E+02 0.  0.
         24    2    4    4    0    0  0.19692337253E+03  0.63248035374E+03 -0.65027097922E+03  0.93159645694E+03  0.78799744026E+02 0.  0.
         11    1    3    3    0    0 -0.22907099410E+02 -0.34434454197E+03 -0.14125342635E+03  0.37289466240E+03  0.00000000000E+00 0.  1.
        -11    1    3    3    0    0 -0.10256886372E+03 -0.27136302404E+03 -0.11453754641E+03  0.31189278952E+03  0.00000000000E+00 0. -1.
          2    1    6    6  502    0  0.15864838696E+03  0.58174960823E+03 -0.57667096839E+03  0.83435683203E+03  0.00000000000E+00 0. -1.
          1    1    5    5  503    0 -0.30096913459E+02  0.29040037746E+02 -0.72715878893E+03  0.72836052358E+03  0.00000000000E+00 0. -1.
         -2    1    5    5    0  503 -0.41350495938E+02 -0.45812825478E+02 -0.59509143819E+03  0.59828295839E+03  0.00000000000E+00 0.  1.
         -1    1    6    6    0  502  0.38274985569E+02  0.50730745507E+02 -0.73600010826E+02  0.97239624914E+02  0.00000000000E+00 0.  1.
<mgrwt>
<rscale>  0 0.19225075E+04</rscale>
<asrwt>0</asrwt>
<pdfrwt beam="1">  1        2 0.39779535E+00 0.19225075E+04</pdfrwt>
<pdfrwt beam="2">  1       -2 0.54978093E-01 0.19225075E+04</pdfrwt>
<totfact> 0.90350530E+00</totfact>
</mgrwt>
</event>
<event>
12    1  0.1980523E-007  0.1786717E+04  0.7818608E-02  0.8713395E-01
         -1   -1    0    0    0  501 -0.00000000000E+00  0.00000000000E+00  0.13272441818E+04  0.13272441818E+04  0.00000000000E+00 0.  1.
          1   -1    0    0  501    0  0.00000000000E+00 -0.00000000000E+00 -0.60131306095E+03  0.60131306095E+03  0.00000000000E+00 0. -1.
         23    2    1    2    0    0  0.56865484197E+02  0.62733988116E+03  0.48872931332E+02  0.63839001530E+03  0.91456210463E+02 0.  0.
        254    2    1    2    0    0 -0.56865484197E+02 -0.62733988116E+03  0.67705818951E+03  0.12901672274E+04  0.89963029795E+03 0.  0.
        -24    2    4    4    0    0 -0.45699583760E+03 -0.46376209745E+03  0.45137923258E+03  0.79602491797E+03  0.77407879498E+02 0.  0.
         24    2    4    4    0    0  0.40013035340E+03 -0.16357778371E+03  0.22567895693E+03  0.49414230947E+03  0.79897680628E+02 0.  0.
         13    1    3    3    0    0 -0.70075721871E+01  0.17917907762E+03  0.48272650906E+02  0.18570001818E+03  0.00000000000E+00 0.  1.
        -13    1    3    3    0    0  0.63873056385E+02  0.44816080354E+03  0.60028042695E+00  0.45268999712E+03  0.00000000000E+00 0. -1.
          4    1    6    6  502    0  0.80725552381E+02 -0.23826819281E+01  0.28584210768E+02  0.85670001084E+02  0.00000000000E+00 0. -1.
          1    1    5    5  503    0 -0.10064273715E+03 -0.14995950987E+03  0.13427456795E+03  0.22504771658E+03  0.00000000000E+00 0. -1.
         -2    1    5    5    0  503 -0.35635310045E+03 -0.31380258758E+03  0.31710466463E+03  0.57097720139E+03  0.00000000000E+00 0.  1.
         -3    1    6    6    0  502  0.31940480102E+03 -0.16119510178E+03  0.19709474616E+03  0.40847230839E+03  0.00000000000E+00 0.  1.
<mgrwt>
<rscale>  0 0.17867168E+04</rscale>
<asrwt>0</asrwt>
<pdfrwt beam="1">  1        1 0.92509702E-01 0.17867168E+04</pdfrwt>
<pdfrwt beam="2">  1       -1 0.20419141E+00 0.17867168E+04</pdfrwt>
<totfact> 0.45413730E+00</totfact>
</mgrwt>
</event>
<event>
12    1  0.1980523E-007  0.2820799E+04  0.7818608E-02  0.8296840E-01
          2   -1    0    0  501    0  0.00000000000E+00  0.00000000000E+00  0.37236636558E+04  0.37236636558E+04  0.00000000000E+00 0. -1.
         -2   -1    0    0    0  501 -0.00000000000E+00 -0.00000000000E+00 -0.53421216359E+03  0.53421216359E+03  0.00000000000E+00 0.  1.
         23    2    1    2    0    0 -0.41388424816E+03  0.10777141615E+04  0.22204173468E+04  0.25042789191E+04  0.91606364113E+02 0.  0.
        254    2    1    2    0    0  0.41388424816E+03 -0.10777141615E+04  0.96903414538E+03  0.17535969003E+04  0.89627391402E+03 0.  0.
        -24    2    4    4    0    0  0.39021160015E+02 -0.94057998178E+03  0.95913395711E+03  0.13465502602E+04  0.83942256222E+02 0.  0.
         24    2    4    4    0    0  0.37486308815E+03 -0.13713417970E+03  0.99001882680E+01  0.40704664010E+03  0.79125440889E+02 0.  0.
         13    1    3    3    0    0 -0.28082039597E+03  0.77991894059E+03  0.16717834193E+04  0.18660100348E+04  0.00000000000E+00 0. -1.
        -13    1    3    3    0    0 -0.13306385219E+03  0.29779522089E+03  0.54863392752E+03  0.63826888438E+03  0.00000000000E+00 0.  1.
          4    1    6    6  502    0  0.17505045075E+03 -0.97574607093E+02  0.28857827427E+02  0.20247527864E+03  0.00000000000E+00 0. -1.
          1    1    5    5  503    0  0.17692285860E+02 -0.48616995986E+03  0.55518884598E+03  0.73817945078E+03  0.00000000000E+00 0. -1.
         -2    1    5    5    0  503  0.21328874155E+02 -0.45441002192E+03  0.40394511113E+03  0.60837080938E+03  0.00000000000E+00 0.  1.
         -3    1    6    6    0  502  0.19981263740E+03 -0.39559572605E+02 -0.18957639159E+02  0.20457136146E+03  0.00000000000E+00 0.  1.
<mgrwt>
<rscale>  0 0.28207988E+04</rscale>
<asrwt>0</asrwt>
<pdfrwt beam="1">  1        2 0.57287132E+00 0.28207988E+04</pdfrwt>
<pdfrwt beam="2">  1       -2 0.82186489E-01 0.28207988E+04</pdfrwt>
<totfact> 0.63339871E-01</totfact>
</mgrwt>
</event>
<event>
12    1  0.1980523E-007  0.1838457E+04  0.7818608E-02  0.8686111E-01
          1   -1    0    0  501    0  0.00000000000E+00  0.00000000000E+00  0.95350197509E+03  0.95350197509E+03  0.00000000000E+00 0. -1.
         -1   -1    0    0    0  501 -0.00000000000E+00 -0.00000000000E+00 -0.88618732085E+03  0.88618732085E+03  0.00000000000E+00 0.  1.
         23    2    1    2    0    0 -0.53836667926E+03  0.36771206086E+03  0.26648855100E+03  0.71049736152E+03  0.93485356473E+02 0.  0.
        254    2    1    2    0    0  0.53836667926E+03 -0.36771206086E+03 -0.19917389676E+03  0.11291919344E+04  0.90019628003E+03 0.  0.
        -24    2    4    4    0    0  0.20323248258E+02  0.92701082080E+02  0.26376180931E+03  0.29178953842E+03  0.81020476697E+02 0.  0.
         24    2    4    4    0    0  0.51804343100E+03 -0.46041314294E+03 -0.46293570607E+03  0.83740239600E+03  0.81142136324E+02 0.  0.
         13    1    3    3    0    0 -0.18284159804E+03  0.13156828382E+03  0.14051010688E+03  0.26548889509E+03  0.00000000000E+00 0. -1.
        -13    1    3    3    0    0 -0.35552508122E+03  0.23614377704E+03  0.12597844412E+03  0.44500846643E+03  0.00000000000E+00 0.  1.
          2    1    6    6  502    0  0.33769673630E+03 -0.28091070044E+03 -0.33607643995E+03  0.55307981415E+03  0.00000000000E+00 0. -1.
          3    1    5    5  503    0  0.86152104851E+01  0.96047978303E+02  0.26237298288E+03  0.27953357246E+03  0.00000000000E+00 0. -1.
         -4    1    5    5    0  503  0.11708037773E+02 -0.33468962229E+01  0.13888264309E+01  0.12255965963E+02  0.00000000000E+00 0.  1.
         -1    1    6    6    0  502  0.18034669470E+03 -0.17950244250E+03 -0.12685926611E+03  0.28432258185E+03  0.00000000000E+00 0.  1.
<mgrwt>
<rscale>  0 0.18384574E+04</rscale>
<asrwt>0</asrwt>
<pdfrwt beam="1">  1        1 0.14669261E+00 0.18384574E+04</pdfrwt>
<pdfrwt beam="2">  1       -1 0.13633651E+00 0.18384574E+04</pdfrwt>
<totfact> 0.69570573E+00</totfact>
</mgrwt>
</event>
<event>
12    1  0.2644771E-007  0.3496878E+04  0.7818608E-02  0.8114530E-01
          2   -1    0    0  501    0  0.00000000000E+00  0.00000000000E+00  0.18329980766E+04  0.18329980766E+04  0.00000000000E+00 0. -1.
         -2   -1    0    0    0  501 -0.00000000000E+00 -0.00000000000E+00 -0.16677812237E+04  0.16677812237E+04  0.00000000000E+00 0.  1.
         23    2    1    2    0    0 -0.49842023356E+03 -0.14981341144E+04  0.48803907705E+03  0.16550530798E+04  0.90498631844E+02 0.  0.
        254    2    1    2    0    0  0.49842023356E+03  0.14981341144E+04 -0.32282222413E+03  0.18457262205E+04  0.89981250207E+03 0.  0.
        -24    2    4    4    0    0  0.92161448679E+02  0.76817707867E+03 -0.57771466724E+03  0.96886308413E+03  0.79697441762E+02 0.  0.
         24    2    4    4    0    0  0.40625878488E+03  0.72995703568E+03  0.25489244311E+03  0.87686313638E+03  0.77687374543E+02 0.  0.
         11    1    3    3    0    0 -0.18484806408E+03 -0.45336175773E+03  0.17918215927E+03  0.52135586346E+03  0.00000000000E+00 0. -1.
        -11    1    3    3    0    0 -0.31357216948E+03 -0.10447723566E+04  0.30885691778E+03  0.11336972163E+04  0.00000000000E+00 0.  1.
          4    1    6    6  502    0  0.17393728612E+03  0.24196933276E+03  0.75691112968E+02  0.30746135055E+03  0.00000000000E+00 0. -1.
          1    1    5    5  503    0 -0.57123271407E+01  0.25758577455E+03 -0.18008586151E+03  0.31434690940E+03  0.00000000000E+00 0. -1.
         -2    1    5    5    0  503  0.97873775820E+02  0.51059130412E+03 -0.39762880573E+03  0.65451617473E+03  0.00000000000E+00 0.  1.
         -3    1    6    6    0  502  0.23232149876E+03  0.48798770292E+03  0.17920133014E+03  0.56940178584E+03  0.00000000000E+00 0.  1.
<mgrwt>
<rscale>  0 0.34968785E+04</rscale>
<asrwt>0</asrwt>
<pdfrwt beam="1">  1        2 0.28199970E+00 0.34968785E+04</pdfrwt>
<pdfrwt beam="2">  1       -2 0.25658173E+00 0.34968785E+04</pdfrwt>
<totfact> 0.39810860E-01</totfact>
</mgrwt>
</event>
<event>
12    1  0.1980523E-007  0.4024835E+04  0.7818608E-02  0.7999555E-01
          2   -1    0    0  501    0  0.00000000000E+00  0.00000000000E+00  0.27801821084E+04  0.27801821084E+04  0.00000000000E+00 0. -1.
         -2   -1    0    0    0  501 -0.00000000000E+00 -0.00000000000E+00 -0.14566760478E+04  0.14566760478E+04  0.00000000000E+00 0.  1.
         23    2    1    2    0    0 -0.17152531315E+04  0.18905318290E+03 -0.23595466889E+03  0.17434153216E+04  0.77381952946E+02 0.  0.
        254    2    1    2    0    0  0.17152531315E+04 -0.18905318290E+03  0.15594607295E+04  0.24934428346E+04  0.89861281522E+03 0.  0.
        -24    2    4    4    0    0  0.70463371755E+03 -0.16709844783E+03  0.12259681167E+04  0.14262115757E+04  0.81554082176E+02 0.  0.
         24    2    4    4    0    0  0.10106194140E+04 -0.21954735067E+02  0.33349261274E+03  0.10672312589E+04  0.77017056161E+02 0.  0.
         11    1    3    3    0    0 -0.15933787576E+04  0.18881961608E+03 -0.23418814973E+03  0.16215279221E+04  0.00000000000E+00 0. -1.
        -11    1    3    3    0    0 -0.12187437393E+03  0.23356681605E+00 -0.17665191601E+01  0.12188739953E+03  0.00000000000E+00 0.  1.
          2    1    6    6  502    0  0.20274594915E+03 -0.13423676548E+02  0.36427754805E+02  0.20642939788E+03  0.00000000000E+00 0. -1.
          1    1    5    5  503    0  0.33799326529E+02 -0.26175853929E+02  0.85531383182E+02  0.95620015226E+02  0.00000000000E+00 0. -1.
         -2    1    5    5    0  503  0.67083439102E+03 -0.14092259390E+03  0.11404367336E+04  0.13305915605E+04  0.00000000000E+00 0.  1.
         -1    1    6    6    0  502  0.80787346483E+03 -0.85310585189E+01  0.29706485793E+03  0.86080186103E+03  0.00000000000E+00 0.  1.
<mgrwt>
<rscale>  0 0.40248352E+04</rscale>
<asrwt>0</asrwt>
<pdfrwt beam="1">  1        2 0.42772032E+00 0.40248352E+04</pdfrwt>
<pdfrwt beam="2">  1       -2 0.22410401E+00 0.40248352E+04</pdfrwt>
<totfact> 0.17420348E-01</totfact>
</mgrwt>
</event>
<event>
12    1  0.1980523E-007  0.1114411E+04  0.7818608E-02  0.9191258E-01
          2   -1    0    0  501    0  0.00000000000E+00  0.00000000000E+00  0.95107928169E+03  0.95107928169E+03  0.00000000000E+00 0. -1.
         -2   -1    0    0    0  501 -0.00000000000E+00 -0.00000000000E+00 -0.32644830208E+03  0.32644830208E+03  0.00000000000E+00 0.  1.
         23    2    1    2    0    0  0.13323239902E+03  0.14486688043E+02  0.25788773999E+03  0.30451322591E+03  0.90892695180E+02 0.  0.
        254    2    1    2    0    0 -0.13323239902E+03 -0.14486688043E+02  0.36674323963E+03  0.97301435786E+03  0.89123262985E+03 0.  0.
        -24    2    4    4    0    0 -0.13358811796E+02  0.75469000589E+02  0.64093195697E+03  0.65037929138E+03  0.79532517161E+02 0.  0.
         24    2    4    4    0    0 -0.11987358723E+03 -0.89955688631E+02 -0.27418871735E+03  0.32263506648E+03  0.80325777731E+02 0.  0.
         11    1    3    3    0    0  0.98617567704E+02  0.28453609595E+02  0.24396093833E+03  0.26467333071E+03  0.00000000000E+00 0. -1.
        -11    1    3    3    0    0  0.34614831320E+02 -0.13966921552E+02  0.13926801658E+02  0.39839895198E+02  0.00000000000E+00 0.  1.
          4    1    6    6  502    0 -0.72709931127E+02 -0.42727818962E+02 -0.22332524355E+03  0.23871858957E+03  0.00000000000E+00 0. -1.
          1    1    5    5  503    0 -0.21284645652E+02  0.61303792863E+02  0.62227549010E+03  0.62565004335E+03  0.00000000000E+00 0. -1.
         -2    1    5    5    0  503  0.79258338554E+01  0.14165207725E+02  0.18656466874E+02  0.24729248036E+02  0.00000000000E+00 0.  1.
         -3    1    6    6    0  502 -0.47163656100E+02 -0.47227869670E+02 -0.50863473795E+02  0.83916476909E+02  0.00000000000E+00 0.  1.
<mgrwt>
<rscale>  0 0.11144114E+04</rscale>
<asrwt>0</asrwt>
<pdfrwt beam="1">  1        2 0.14631989E+00 0.11144114E+04</pdfrwt>
<pdfrwt beam="2">  1       -2 0.50222816E-01 0.11144114E+04</pdfrwt>
<totfact> 0.10081934E+02</totfact>
</mgrwt>
</event>
<event>
12    1  0.1980523E-007  0.2293806E+04  0.7818608E-02  0.8480367E-01
         -2   -1    0    0    0  501 -0.00000000000E+00  0.00000000000E+00  0.10733998680E+04  0.10733998680E+04  0.00000000000E+00 0.  1.
          2   -1    0    0  501    0  0.00000000000E+00 -0.00000000000E+00 -0.12254394276E+04  0.12254394276E+04  0.00000000000E+00 0. -1.
         23    2    1    2    0    0 -0.17844287486E+03 -0.17923349339E+02  0.88893747194E+03  0.91214661417E+03  0.98175917059E+02 0.  0.
        254    2    1    2    0    0  0.17844287486E+03  0.17923349339E+02 -0.10409770315E+04  0.13866926815E+04  0.89839874592E+03 0.  0.
        -24    2    4    4    0    0  0.15031431768E+03  0.10419982019E+03  0.11091334000E+03  0.22844119049E+03  0.80197330976E+02 0.  0.
         24    2    4    4    0    0  0.28128557185E+02 -0.86276470846E+02 -0.11518903715E+04  0.11582514910E+04  0.80375638234E+02 0.  0.
         13    1    3    3    0    0 -0.17319239299E+03 -0.40813291568E+02  0.82654117484E+03  0.84547716910E+03  0.00000000000E+00 0.  1.
        -13    1    3    3    0    0 -0.52504818737E+01  0.22889942230E+02  0.62396297098E+02  0.66669445076E+02  0.00000000000E+00 0. -1.
          4    1    6    6  502    0  0.54874989719E+02 -0.61337590788E+02 -0.68386480283E+03  0.68879941426E+03  0.00000000000E+00 0. -1.
          3    1    5    5  503    0  0.31348404987E+02  0.36613422403E+02  0.71180779025E+02  0.85964925975E+02  0.00000000000E+00 0. -1.
         -4    1    5    5    0  503  0.11896591269E+03  0.67586397783E+02  0.39732560974E+02  0.14247626451E+03  0.00000000000E+00 0.  1.
         -3    1    6    6    0  502 -0.26746432535E+02 -0.24938880058E+02 -0.46802556870E+03  0.46945207674E+03  0.00000000000E+00 0.  1.
<mgrwt>
<rscale>  0 0.22938060E+04</rscale>
<asrwt>0</asrwt>
<pdfrwt beam="1">  1        2 0.18852914E+00 0.22938060E+04</pdfrwt>
<pdfrwt beam="2">  1       -2 0.16513844E+00 0.22938060E+04</pdfrwt>
<totfact> 0.38324080E+00</totfact>
</mgrwt>
</event>
<event>
12    1  0.1980523E-007  0.1413126E+04  0.7818608E-02  0.8944371E-01
         -2   -1    0    0    0  501 -0.00000000000E+00  0.00000000000E+00  0.45254316137E+03  0.45254316137E+03  0.00000000000E+00 0.  1.
          2   -1    0    0  501    0  0.00000000000E+00 -0.00000000000E+00 -0.11031690806E+04  0.11031690806E+04  0.00000000000E+00 0. -1.
         23    2    1    2    0    0 -0.16572124364E+03  0.38269509976E+03 -0.20581007702E+03  0.47401873795E+03  0.91743698155E+02 0.  0.
        254    2    1    2    0    0  0.16572124364E+03 -0.38269509976E+03 -0.44481584216E+03  0.10816935040E+04  0.89346551872E+03 0.  0.
        -24    2    4    4    0    0  0.33140319836E+02 -0.15919425929E+03  0.26612667569E+03  0.32046123580E+03  0.73694661601E+02 0.  0.
         24    2    4    4    0    0  0.13258092380E+03 -0.22350084047E+03 -0.71094251785E+03  0.76123226817E+03  0.80653427567E+02 0.  0.
         11    1    3    3    0    0 -0.19738267505E+02  0.12977036807E+02 -0.33001384222E+02  0.40584406475E+02  0.00000000000E+00 0. -1.
        -11    1    3    3    0    0 -0.14598297613E+03  0.36971806295E+03 -0.17280869280E+03  0.43343433147E+03  0.00000000000E+00 0.  1.
          2    1    6    6  502    0  0.86051366161E+01 -0.64439985451E+02 -0.11516511187E+03  0.13224811187E+03  0.00000000000E+00 0. -1.
          1    1    5    5  503    0  0.92168476597E+01 -0.48002663286E+02  0.27424256565E+02  0.56047264086E+02  0.00000000000E+00 0. -1.
         -2    1    5    5    0  503  0.23923472177E+02 -0.11119159600E+03  0.23870241912E+03  0.26441397172E+03  0.00000000000E+00 0.  1.
         -1    1    6    6    0  502  0.12397578719E+03 -0.15906085502E+03 -0.59577740598E+03  0.62898415630E+03  0.00000000000E+00 0.  1.
<mgrwt>
<rscale>  0 0.14131265E+04</rscale>
<asrwt>0</asrwt>
<pdfrwt beam="1">  1        2 0.16971832E+00 0.14131265E+04</pdfrwt>
<pdfrwt beam="2">  1       -2 0.69622026E-01 0.14131265E+04</pdfrwt>
<totfact> 0.39675995E+01</totfact>
</mgrwt>
</event>
<event>
12    1  0.1980523E-007  0.1892582E+04  0.7818608E-02  0.8658558E-01
         -1   -1    0    0    0  501 -0.00000000000E+00  0.00000000000E+00  0.20962913146E+03  0.20962913146E+03  0.00000000000E+00 0.  1.
          1   -1    0    0  501    0  0.00000000000E+00 -0.00000000000E+00 -0.42716686315E+04  0.42716686315E+04  0.00000000000E+00 0. -1.
         23    2    1    2    0    0 -0.13135072372E+03 -0.55715754489E+03 -0.50747354184E+03  0.77034176889E+03  0.90661473484E+02 0.  0.
        254    2    1    2    0    0  0.13135072372E+03  0.55715754489E+03 -0.35545659582E+04  0.37109559941E+04  0.89920948413E+03 0.  0.
        -24    2    4    4    0    0  0.22457725354E+03  0.75349862085E+03 -0.22195050879E+04  0.23560369410E+04  0.80697692700E+02 0.  0.
         24    2    4    4    0    0 -0.93226529823E+02 -0.19634107595E+03 -0.13350608703E+04  0.13549190531E+04  0.78594586888E+02 0.  0.
         11    1    3    3    0    0 -0.16346905756E+02 -0.48869320017E+02 -0.85315583313E+02  0.99670359298E+02  0.00000000000E+00 0. -1.
        -11    1    3    3    0    0 -0.11500381796E+03 -0.50828822488E+03 -0.42215795853E+03  0.67067140959E+03  0.00000000000E+00 0.  1.
          4    1    6    6  502    0 -0.56256006597E+02 -0.17170753577E+03 -0.11748232426E+04  0.11886369788E+04  0.00000000000E+00 0. -1.
          3    1    5    5  503    0  0.19055444155E+03  0.70933142799E+03 -0.20507381565E+04  0.21782995792E+04  0.00000000000E+00 0. -1.
         -4    1    5    5    0  503  0.34022811991E+02  0.44167192853E+02 -0.16876693142E+03  0.17773736186E+03  0.00000000000E+00 0.  1.
         -3    1    6    6    0  502 -0.36970523227E+02 -0.24633540180E+02 -0.16023762768E+03  0.16628207424E+03  0.00000000000E+00 0.  1.
<mgrwt>
<rscale>  0 0.18925815E+04</rscale>
<asrwt>0</asrwt>
<pdfrwt beam="1">  1        1 0.65717977E+00 0.18925815E+04</pdfrwt>
<pdfrwt beam="2">  1       -1 0.32250637E-01 0.18925815E+04</pdfrwt>
<totfact> 0.46124517E-01</totfact>
</mgrwt>
</event>
<event>
12    1  0.1980523E-007  0.2065602E+04  0.7818608E-02  0.8576549E-01
          2   -1    0    0  501    0  0.00000000000E+00  0.00000000000E+00  0.17897800741E+04  0.17897800741E+04  0.00000000000E+00 0. -1.
         -2   -1    0    0    0  501 -0.00000000000E+00 -0.00000000000E+00 -0.59598239190E+03  0.59598239190E+03  0.00000000000E+00 0.  1.
         23    2    1    2    0    0  0.72888973296E+03 -0.20106997348E+03  0.77594841313E+02  0.76558305190E+03  0.91580963630E+02 0.  0.
        254    2    1    2    0    0 -0.72888973296E+03  0.20106997348E+03  0.11162028409E+04  0.16201794141E+04  0.89853390298E+03 0.  0.
        -24    2    4    4    0    0 -0.23670781983E+03  0.39072249913E+03  0.10310345818E+03  0.47521327734E+03  0.80639150409E+02 0.  0.
         24    2    4    4    0    0 -0.49218191313E+03 -0.18965252564E+03  0.10130993827E+04  0.11449661367E+04  0.79787085282E+02 0.  0.
         11    1    3    3    0    0  0.74036052097E+02 -0.18107238533E+02  0.36235989964E+02  0.84393459854E+02  0.00000000000E+00 0. -1.
        -11    1    3    3    0    0  0.65485368086E+03 -0.18296273495E+03  0.41358851348E+02  0.68118959204E+03  0.00000000000E+00 0.  1.
          2    1    6    6  502    0 -0.26576383331E+03 -0.65412743462E+02  0.56400728264E+03  0.62690785365E+03  0.00000000000E+00 0. -1.
          1    1    5    5  503    0 -0.21271916340E+03  0.29309350979E+03  0.66387141257E+02  0.36818541590E+03  0.00000000000E+00 0. -1.
         -2    1    5    5    0  503 -0.23988656439E+02  0.97628989337E+02  0.36716316918E+02  0.10702786144E+03  0.00000000000E+00 0.  1.
         -1    1    6    6    0  502 -0.22641807981E+03 -0.12423978218E+03  0.44909210006E+03  0.51805828309E+03  0.00000000000E+00 0.  1.
<mgrwt>
<rscale>  0 0.20656015E+04</rscale>
<asrwt>0</asrwt>
<pdfrwt beam="1">  1        2 0.27535078E+00 0.20656015E+04</pdfrwt>
<pdfrwt beam="2">  1       -2 0.91689599E-01 0.20656015E+04</pdfrwt>
<totfact> 0.81780350E+00</totfact>
</mgrwt>
</event>
<event>
12    1  0.1980523E-007  0.2746671E+04  0.7818608E-02  0.8320019E-01
         -2   -1    0    0    0  501 -0.00000000000E+00  0.00000000000E+00  0.14583966372E+04  0.14583966372E+04  0.00000000000E+00 0.  1.
          2   -1    0    0  501    0  0.00000000000E+00 -0.00000000000E+00 -0.12932357965E+04  0.12932357965E+04  0.00000000000E+00 0. -1.
         23    2    1    2    0    0  0.47729230527E+02  0.59079974371E+03  0.11467178629E+04  0.12942035694E+04  0.93159032481E+02 0.  0.
        254    2    1    2    0    0 -0.47729230527E+02 -0.59079974371E+03 -0.98155702215E+03  0.14574288644E+04  0.89962341586E+03 0.  0.
        -24    2    4    4    0    0  0.18023417331E+03  0.10525661317E+02  0.80438678840E+02  0.21341891947E+03  0.80511535584E+02 0.  0.
         24    2    4    4    0    0 -0.22796340383E+03 -0.60132540503E+03 -0.10619957010E+04  0.12440099449E+04  0.78525905687E+02 0.  0.
         13    1    3    3    0    0  0.73519613842E+02  0.36559892209E+03  0.68981116648E+03  0.78416015638E+03  0.00000000000E+00 0.  1.
        -13    1    3    3    0    0 -0.25790383315E+02  0.22520082162E+03  0.45690669638E+03  0.51004341298E+03  0.00000000000E+00 0. -1.
          2    1    6    6  502    0 -0.20735376608E+02 -0.35699678754E+02 -0.38788442625E+02  0.56647737709E+02  0.00000000000E+00 0. -1.
          1    1    5    5  503    0  0.38933498739E+02  0.27908552759E+02  0.47146157272E+02  0.67212088100E+02  0.00000000000E+00 0. -1.
         -2    1    5    5    0  503  0.14130067457E+03 -0.17382891443E+02  0.33292521568E+02  0.14620683137E+03  0.00000000000E+00 0.  1.
         -1    1    6    6    0  502 -0.20722802723E+03 -0.56562572627E+03 -0.10232072584E+04  0.11873622072E+04  0.00000000000E+00 0.  1.
<mgrwt>
<rscale>  0 0.27466712E+04</rscale>
<asrwt>0</asrwt>
<pdfrwt beam="1">  1        2 0.19895935E+00 0.27466712E+04</pdfrwt>
<pdfrwt beam="2">  1       -2 0.22436871E+00 0.27466712E+04</pdfrwt>
<totfact> 0.13522875E+00</totfact>
</mgrwt>
</event>
<event>
12    1  0.1980523E-007  0.2799955E+04  0.7818608E-02  0.8303282E-01
          2   -1    0    0  501    0  0.00000000000E+00  0.00000000000E+00  0.27247198446E+04  0.27247198446E+04  0.00000000000E+00 0. -1.
         -2   -1    0    0    0  501 -0.00000000000E+00 -0.00000000000E+00 -0.71931702890E+03  0.71931702890E+03  0.00000000000E+00 0.  1.
         23    2    1    2    0    0  0.10610282766E+04  0.35509442779E+03  0.21231102727E+03  0.11429469879E+04  0.96844145257E+02 0.  0.
        254    2    1    2    0    0 -0.10610282766E+04 -0.35509442779E+03  0.17930917884E+04  0.23010898855E+04  0.90992496568E+03 0.  0.
        -24    2    4    4    0    0 -0.51006366215E+03  0.15985610498E+03  0.12688333506E+04  0.13788529194E+04  0.74688607240E+02 0.  0.
         24    2    4    4    0    0 -0.55096461450E+03 -0.51495053277E+03  0.52425843781E+03  0.92223696611E+03  0.83294984364E+02 0.  0.
         13    1    3    3    0    0  0.39254410432E+03  0.10994466561E+03  0.12015940388E+03  0.42499057128E+03  0.00000000000E+00 0. -1.
        -13    1    3    3    0    0  0.66848417232E+03  0.24514976218E+03  0.92151623386E+02  0.71795641667E+03  0.00000000000E+00 0.  1.
          2    1    6    6  502    0 -0.18882394354E+03 -0.12478234745E+03  0.16217290472E+03  0.27843341558E+03  0.00000000000E+00 0. -1.
          3    1    5    5  503    0 -0.11492696299E+03  0.91554542891E+01  0.31647842883E+03  0.33682432376E+03  0.00000000000E+00 0. -1.
         -4    1    5    5    0  503 -0.39513669915E+03  0.15070065069E+03  0.95235492179E+03  0.10420285957E+04  0.00000000000E+00 0.  1.
         -1    1    6    6    0  502 -0.36214067096E+03 -0.39016818532E+03  0.36208553309E+03  0.64380355053E+03  0.00000000000E+00 0.  1.
<mgrwt>
<rscale>  0 0.27999553E+04</rscale>
<asrwt>0</asrwt>
<pdfrwt beam="1">  1        2 0.41918766E+00 0.27999553E+04</pdfrwt>
<pdfrwt beam="2">  1       -2 0.11066416E+00 0.27999553E+04</pdfrwt>
<totfact> 0.14456616E+00</totfact>
</mgrwt>
</event>
<event>
12    1  0.1980523E-007  0.1601298E+04  0.7818608E-02  0.8819751E-01
          1   -1    0    0  501    0  0.00000000000E+00  0.00000000000E+00  0.67605963807E+03  0.67605963807E+03  0.00000000000E+00 0. -1.
         -1   -1    0    0    0  501 -0.00000000000E+00 -0.00000000000E+00 -0.94819855254E+03  0.94819855254E+03  0.00000000000E+00 0.  1.
         23    2    1    2    0    0 -0.10606677545E+03 -0.53121271055E+03 -0.61410498536E+02  0.55282437982E+03  0.91686645119E+02 0.  0.
        254    2    1    2    0    0  0.10606677545E+03  0.53121271055E+03 -0.21072841594E+03  0.10714338108E+04  0.90007046441E+03 0.  0.
        -24    2    4    4    0    0 -0.27615413734E+03  0.19323594820E+03  0.21028518012E+03  0.40515823247E+03  0.79574475301E+02 0.  0.
         24    2    4    4    0    0  0.38222091279E+03  0.33797676235E+03 -0.42101359606E+03  0.66627557831E+03  0.79684252670E+02 0.  0.
         11    1    3    3    0    0 -0.86329333391E+01 -0.27362527711E+03 -0.38824029733E+02  0.27650067830E+03  0.00000000000E+00 0.  1.
        -11    1    3    3    0    0 -0.97433842114E+02 -0.25758743343E+03 -0.22586468803E+02  0.27632370153E+03  0.00000000000E+00 0. -1.
          4    1    6    6  502    0  0.97117349003E+02  0.49036452634E+02 -0.67774297620E+02  0.12817842479E+03  0.00000000000E+00 0. -1.
          1    1    5    5  503    0 -0.14273304240E+03  0.13220773156E+03  0.85340320442E+02  0.21244899616E+03  0.00000000000E+00 0. -1.
         -2    1    5    5    0  503 -0.13342109494E+03  0.61028216636E+02  0.12494485968E+03  0.19270923631E+03  0.00000000000E+00 0.  1.
         -1    1    6    6    0  502  0.28510356379E+03  0.28894030972E+03 -0.35323929844E+03  0.53809715352E+03  0.00000000000E+00 0.  1.
<mgrwt>
<rscale>  0 0.16012979E+04</rscale>
<asrwt>0</asrwt>
<pdfrwt beam="1">  1        1 0.10400918E+00 0.16012979E+04</pdfrwt>
<pdfrwt beam="2">  1       -1 0.14587670E+00 0.16012979E+04</pdfrwt>
<totfact> 0.10360935E+01</totfact>
</mgrwt>
</event>
<event>
12    1  0.1980523E-007  0.3954944E+04  0.7818608E-02  0.8013698E-01
          2   -1    0    0  501    0  0.00000000000E+00  0.00000000000E+00  0.23107804080E+04  0.23107804080E+04  0.00000000000E+00 0. -1.
         -2   -1    0    0    0  501 -0.00000000000E+00 -0.00000000000E+00 -0.16922405819E+04  0.16922405819E+04  0.00000000000E+00 0.  1.
         23    2    1    2    0    0 -0.11157576907E+04 -0.97739128887E+03  0.14522805605E+04  0.20779268121E+04  0.91935054449E+02 0.  0.
        254    2    1    2    0    0  0.11157576907E+04  0.97739128887E+03 -0.83374073445E+03  0.19250941777E+04  0.90036382914E+03 0.  0.
        -24    2    4    4    0    0  0.96369409979E+03  0.51059979015E+03 -0.18700141048E+03  0.11093065682E+04  0.78568893174E+02 0.  0.
         24    2    4    4    0    0  0.15206359087E+03  0.46679149872E+03 -0.64673932397E+03  0.81578760951E+03  0.78867177766E+02 0.  0.
         11    1    3    3    0    0 -0.38627179509E+03 -0.30786124921E+03  0.43263955079E+03  0.65662883684E+03  0.00000000000E+00 0.  1.
        -11    1    3    3    0    0 -0.72948589557E+03 -0.66953003965E+03  0.10196410098E+04  0.14212979753E+04  0.00000000000E+00 0. -1.
          2    1    6    6  502    0  0.12190129018E+03  0.29202091483E+03 -0.45913774761E+03  0.55762317969E+03  0.00000000000E+00 0. -1.
          3    1    5    5  503    0  0.34790205015E+03  0.20276074971E+03 -0.34375581326E+02  0.40414037006E+03  0.00000000000E+00 0. -1.
         -4    1    5    5    0  503  0.61579204964E+03  0.30783904044E+03 -0.15262582915E+03  0.70516619810E+03  0.00000000000E+00 0.  1.
         -1    1    6    6    0  502  0.30162300692E+02  0.17477058389E+03 -0.18760157635E+03  0.25816442983E+03  0.00000000000E+00 0.  1.
<mgrwt>
<rscale>  0 0.39549444E+04</rscale>
<asrwt>0</asrwt>
<pdfrwt beam="1">  1        2 0.35550468E+00 0.39549444E+04</pdfrwt>
<pdfrwt beam="2">  1       -2 0.26034471E+00 0.39549444E+04</pdfrwt>
<totfact> 0.19651991E-01</totfact>
</mgrwt>
</event>
<event>
12    1  0.1980523E-007  0.2150705E+04  0.7818608E-02  0.8539230E-01
          2   -1    0    0  501    0  0.00000000000E+00  0.00000000000E+00  0.89554494674E+03  0.89554494674E+03  0.00000000000E+00 0. -1.
         -2   -1    0    0    0  501 -0.00000000000E+00 -0.00000000000E+00 -0.12912622378E+04  0.12912622378E+04  0.00000000000E+00 0.  1.
         23    2    1    2    0    0  0.49978200780E+03 -0.28565615598E+03  0.51959503072E+03  0.78050969211E+03  0.88514906994E+02 0.  0.
        254    2    1    2    0    0 -0.49978200780E+03  0.28565615598E+03 -0.91531232181E+03  0.14062974925E+04  0.89916321992E+03 0.  0.
        -24    2    4    4    0    0 -0.40630674316E+03  0.23491269434E+03  0.55218262702E+01  0.47597827403E+03  0.79092877581E+02 0.  0.
         24    2    4    4    0    0 -0.93475264642E+02  0.50743461641E+02 -0.92083414808E+03  0.93031921843E+03  0.79030348002E+02 0.  0.
         13    1    3    3    0    0  0.12951028367E+03 -0.10743781737E+03  0.11489908138E+03  0.20375867363E+03  0.00000000000E+00 0.  1.
        -13    1    3    3    0    0  0.37027172413E+03 -0.17821833861E+03  0.40469594934E+03  0.57675101848E+03  0.00000000000E+00 0. -1.
          2    1    6    6  502    0  0.11072871640E+02 -0.13162141267E+01 -0.32930589827E+02  0.34767292853E+02  0.00000000000E+00 0. -1.
          1    1    5    5  503    0 -0.31957222414E+03  0.15741869191E+03 -0.20364152211E+02  0.35682173378E+03  0.00000000000E+00 0. -1.
         -4    1    5    5    0  503 -0.86734519024E+02  0.77494002424E+02  0.25885978481E+02  0.11915654025E+03  0.00000000000E+00 0.  1.
         -1    1    6    6    0  502 -0.10454813628E+03  0.52059675768E+02 -0.88790355826E+03  0.89555192558E+03  0.00000000000E+00 0.  1.
<mgrwt>
<rscale>  0 0.21507053E+04</rscale>
<asrwt>0</asrwt>
<pdfrwt beam="1">  1        2 0.13777615E+00 0.21507053E+04</pdfrwt>
<pdfrwt beam="2">  1       -2 0.19865573E+00 0.21507053E+04</pdfrwt>
<totfact> 0.36768217E+00</totfact>
</mgrwt>
</event>
<event>
12    1  0.1980523E-007  0.1514224E+04  0.7818608E-02  0.8875049E-01
         -1   -1    0    0    0  501 -0.00000000000E+00  0.00000000000E+00  0.41064270370E+03  0.41064270370E+03  0.00000000000E+00 0.  1.
          1   -1    0    0  501    0  0.00000000000E+00 -0.00000000000E+00 -0.13959057789E+04  0.13959057789E+04  0.00000000000E+00 0. -1.
         23    2    1    2    0    0  0.47791114112E+03 -0.42045650553E+02 -0.38775214400E+03  0.62400731069E+03  0.94162110651E+02 0.  0.
        254    2    1    2    0    0 -0.47791114112E+03  0.42045650553E+02 -0.59751093117E+03  0.11825411719E+04  0.90067608760E+03 0.  0.
        -24    2    4    4    0    0 -0.11365277257E+03  0.30040045260E+03 -0.64615659151E+03  0.72607077015E+03  0.80641415445E+02 0.  0.
         24    2    4    4    0    0 -0.36425836854E+03 -0.25835480204E+03  0.48645660341E+02  0.45647040172E+03  0.81039895020E+02 0.  0.
         13    1    3    3    0    0  0.37300892652E+03 -0.29339418211E+01 -0.26317092990E+03  0.45651199943E+03  0.00000000000E+00 0.  1.
        -13    1    3    3    0    0  0.10490221460E+03 -0.39111708732E+02 -0.12458121410E+03  0.16749531126E+03  0.00000000000E+00 0. -1.
          2    1    6    6  502    0 -0.15311570277E+03 -0.12677908132E+03 -0.15976448326E+02  0.19943069171E+03  0.00000000000E+00 0. -1.
          3    1    5    5  503    0 -0.98103079520E+02  0.23691343268E+03 -0.43419029129E+03  0.50425529035E+03  0.00000000000E+00 0. -1.
         -4    1    5    5    0  503 -0.15549693054E+02  0.63487019921E+02 -0.21196630021E+03  0.22181547980E+03  0.00000000000E+00 0.  1.
         -1    1    6    6    0  502 -0.21114266577E+03 -0.13157572072E+03  0.64622108667E+02  0.25703971001E+03  0.00000000000E+00 0.  1.
<mgrwt>
<rscale>  0 0.15142239E+04</rscale>
<asrwt>0</asrwt>
<pdfrwt beam="1">  1        1 0.21475474E+00 0.15142239E+04</pdfrwt>
<pdfrwt beam="2">  1       -1 0.63175800E-01 0.15142239E+04</pdfrwt>
<totfact> 0.18989205E+01</totfact>
</mgrwt>
</event>
<event>
12    1  0.1980523E-007  0.2587674E+04  0.7818608E-02  0.8372400E-01
          1   -1    0    0  501    0  0.00000000000E+00  0.00000000000E+00  0.66091588459E+03  0.66091588459E+03  0.00000000000E+00 0. -1.
         -1   -1    0    0    0  501 -0.00000000000E+00 -0.00000000000E+00 -0.25328707288E+04  0.25328707288E+04  0.00000000000E+00 0.  1.
         23    2    1    2    0    0  0.68515308729E+03  0.88085010024E+03 -0.56713024254E+03  0.12551985397E+04  0.92493297452E+02 0.  0.
        254    2    1    2    0    0 -0.68515308729E+03 -0.88085010024E+03 -0.13048246016E+04  0.19385880736E+04  0.90012489466E+03 0.  0.
        -24    2    4    4    0    0 -0.25492574283E+02  0.16072530607E+03 -0.76327840580E+02  0.19624058492E+03  0.78752349602E+02 0.  0.
         24    2    4    4    0    0 -0.65966051300E+03 -0.10415754063E+04 -0.12284967610E+04  0.17423474887E+04  0.80865072516E+02 0.  0.
         13    1    3    3    0    0  0.54534339591E+03  0.64184850543E+03 -0.44495715301E+03  0.95255225127E+03  0.00000000000E+00 0. -1.
        -13    1    3    3    0    0  0.13980969138E+03  0.23900159481E+03 -0.12217308953E+03  0.30264628848E+03  0.00000000000E+00 0.  1.
          4    1    6    6  502    0 -0.10921279065E+03 -0.13098453009E+03 -0.19422624076E+03  0.25847284841E+03  0.00000000000E+00 0. -1.
          3    1    5    5  503    0  0.22463742200E+02  0.20450313765E+02 -0.21029280571E+01  0.30450900695E+02  0.00000000000E+00 0. -1.
         -4    1    5    5    0  503 -0.47956316484E+02  0.14027499231E+03 -0.74224912523E+02  0.16578968423E+03  0.00000000000E+00 0.  1.
         -3    1    6    6    0  502 -0.55044772236E+03 -0.91059087622E+03 -0.10342705203E+04  0.14838746403E+04  0.00000000000E+00 0.  1.
<mgrwt>
<rscale>  0 0.25876742E+04</rscale>
<asrwt>0</asrwt>
<pdfrwt beam="1">  1        1 0.10167936E+00 0.25876742E+04</pdfrwt>
<pdfrwt beam="2">  1       -1 0.38967243E+00 0.25876742E+04</pdfrwt>
<totfact> 0.22036972E-01</totfact>
</mgrwt>
</event>
<event>
12    1  0.1980523E-007  0.1526766E+04  0.7818608E-02  0.8866846E-01
         -2   -1    0    0    0  501 -0.00000000000E+00  0.00000000000E+00  0.39265658789E+03  0.39265658789E+03  0.00000000000E+00 0.  1.
          2   -1    0    0  501    0  0.00000000000E+00 -0.00000000000E+00 -0.14841307715E+04  0.14841307715E+04  0.00000000000E+00 0. -1.
         23    2    1    2    0    0 -0.28860405413E+03 -0.27480977308E+03 -0.71332316969E+03  0.82280744422E+03  0.96795838809E+02 0.  0.
        254    2    1    2    0    0  0.28860405413E+03  0.27480977308E+03 -0.37815101391E+03  0.10539799152E+04  0.89947916084E+03 0.  0.
        -24    2    4    4    0    0  0.60514071693E+03  0.22973932490E+03 -0.22220992991E+03  0.68896047557E+03  0.79459670636E+02 0.  0.
         24    2    4    4    0    0 -0.31653666280E+03  0.45070448182E+02 -0.15594108401E+03  0.36501943959E+03  0.81821546093E+02 0.  0.
         11    1    3    3    0    0 -0.13575064911E+03 -0.19094095629E+03 -0.37416011863E+03  0.44145496022E+03  0.00000000000E+00 0. -1.
        -11    1    3    3    0    0 -0.15285340502E+03 -0.83868816790E+02 -0.33916305105E+03  0.38135248401E+03  0.00000000000E+00 0.  1.
          4    1    6    6  502    0 -0.10156844918E+02  0.10836523283E+02 -0.27079124477E+02  0.30884797522E+02  0.00000000000E+00 0. -1.
          1    1    5    5  503    0  0.38342254125E+03  0.18097664713E+03 -0.16399181261E+03  0.45459730152E+03  0.00000000000E+00 0. -1.
         -2    1    5    5    0  503  0.22171817567E+03  0.48762677768E+02 -0.58218117297E+02  0.23436317405E+03  0.00000000000E+00 0.  1.
         -3    1    6    6    0  502 -0.30637981788E+03  0.34233924899E+02 -0.12886195953E+03  0.33413464207E+03  0.00000000000E+00 0.  1.
<mgrwt>
<rscale>  0 0.15267662E+04</rscale>
<asrwt>0</asrwt>
<pdfrwt beam="1">  1        2 0.22832781E+00 0.15267662E+04</pdfrwt>
<pdfrwt beam="2">  1       -2 0.60408705E-01 0.15267662E+04</pdfrwt>
<totfact> 0.31897043E+01</totfact>
</mgrwt>
</event>
<event>
12    1  0.1980523E-007  0.1201817E+04  0.7818608E-02  0.9111267E-01
          2   -1    0    0  501    0  0.00000000000E+00  0.00000000000E+00  0.23402360029E+04  0.23402360029E+04  0.00000000000E+00 0. -1.
         -2   -1    0    0    0  501 -0.00000000000E+00 -0.00000000000E+00 -0.15429690620E+03  0.15429690620E+03  0.00000000000E+00 0.  1.
         23    2    1    2    0    0 -0.23020188985E+03  0.99776690820E+02  0.46116330395E+03  0.53264369961E+03  0.89941201385E+02 0.  0.
        254    2    1    2    0    0  0.23020188985E+03 -0.99776690820E+02  0.17247757927E+04  0.19618892095E+04  0.90067165876E+03 0.  0.
        -24    2    4    4    0    0  0.46929312456E+03  0.19305381322E+03  0.71524998658E+03  0.88085754555E+03  0.82593345247E+02 0.  0.
         24    2    4    4    0    0 -0.23909123471E+03 -0.29283050404E+03  0.10095258062E+04  0.10810316639E+04  0.81072698881E+02 0.  0.
         13    1    3    3    0    0 -0.74848085618E+02  0.84457135668E+01  0.21317741461E+03  0.22609329070E+03  0.00000000000E+00 0. -1.
        -13    1    3    3    0    0 -0.15535380423E+03  0.91330977253E+02  0.24798588934E+03  0.30655040892E+03  0.00000000000E+00 0.  1.
          2    1    6    6  502    0 -0.91820116974E+02 -0.16620473236E+03  0.43739568234E+03  0.47683323067E+03  0.00000000000E+00 0. -1.
          3    1    5    5  503    0  0.38511262021E+03  0.17176531155E+03  0.63726418416E+03  0.76414703619E+03  0.00000000000E+00 0. -1.
         -4    1    5    5    0  503  0.84180504343E+02  0.21288501676E+02  0.77985802422E+02  0.11671050936E+03  0.00000000000E+00 0.  1.
         -1    1    6    6    0  502 -0.14727111773E+03 -0.12662577168E+03  0.57213012381E+03  0.60419843325E+03  0.00000000000E+00 0.  1.
<mgrwt>
<rscale>  0 0.12018172E+04</rscale>
<asrwt>0</asrwt>
<pdfrwt beam="1">  1        2 0.36003628E+00 0.12018172E+04</pdfrwt>
<pdfrwt beam="2">  1       -2 0.23737987E-01 0.12018172E+04</pdfrwt>
<totfact> 0.67151559E+01</totfact>
</mgrwt>
</event>
<event>
12    1  0.1980523E-007  0.1821514E+04  0.7818608E-02  0.8694941E-01
          1   -1    0    0  501    0  0.00000000000E+00  0.00000000000E+00  0.72233758520E+03  0.72233758520E+03  0.00000000000E+00 0. -1.
         -1   -1    0    0    0  501 -0.00000000000E+00 -0.00000000000E+00 -0.11483253608E+04  0.11483253608E+04  0.00000000000E+00 0.  1.
         23    2    1    2    0    0  0.47461288127E+03 -0.46513862099E+03 -0.64865208982E+01  0.67489876843E+03  0.11762205946E+03 0.  0.
        254    2    1    2    0    0 -0.47461288127E+03  0.46513862099E+03 -0.41950125469E+03  0.11957641776E+04  0.90125431585E+03 0.  0.
        -24    2    4    4    0    0  0.97309560983E+02  0.24699107174E+03  0.18365919462E+03  0.33277803376E+03  0.80850354385E+02 0.  0.
         24    2    4    4    0    0 -0.57192244225E+03  0.21814754925E+03 -0.60316044931E+03  0.86298614380E+03  0.79113359063E+02 0.  0.
         13    1    3    3    0    0  0.20254880734E+03 -0.22268222564E+03 -0.58891606259E+02  0.30672726364E+03  0.00000000000E+00 0.  1.
        -13    1    3    3    0    0  0.27206407393E+03 -0.24245639534E+03  0.52405085361E+02  0.36817150479E+03  0.00000000000E+00 0. -1.
          2    1    6    6  502    0  0.22637535998E+01  0.35645539527E+01 -0.45416836461E+01  0.62014123862E+01  0.00000000000E+00 0. -1.
          3    1    5    5  503    0  0.90151201316E+02  0.16893080438E+03  0.16362890875E+03  0.25187154573E+03  0.00000000000E+00 0. -1.
         -4    1    5    5    0  503  0.71583596671E+01  0.78060267357E+02  0.20030285866E+02  0.80906488027E+02  0.00000000000E+00 0.  1.
         -1    1    6    6    0  502 -0.57418619585E+03  0.21458299529E+03 -0.59861876566E+03  0.85678473141E+03  0.00000000000E+00 0.  1.
<mgrwt>
<rscale>  0 0.18215143E+04</rscale>
<asrwt>0</asrwt>
<pdfrwt beam="1">  1        1 0.11112886E+00 0.18215143E+04</pdfrwt>
<pdfrwt beam="2">  1       -1 0.17666544E+00 0.18215143E+04</pdfrwt>
<totfact> 0.53790036E+00</totfact>
</mgrwt>
</event>
<event>
12    1  0.1980523E-007  0.1168851E+04  0.7818608E-02  0.9140567E-01
          2   -1    0    0  501    0  0.00000000000E+00  0.00000000000E+00  0.79382409693E+03  0.79382409693E+03  0.00000000000E+00 0. -1.
         -2   -1    0    0    0  501 -0.00000000000E+00 -0.00000000000E+00 -0.43026286767E+03  0.43026286767E+03  0.00000000000E+00 0.  1.
         23    2    1    2    0    0 -0.94717798101E+02 -0.20026055976E+03  0.68282455242E+02  0.24956735844E+03  0.92442520689E+02 0.  0.
        254    2    1    2    0    0  0.94717798101E+02  0.20026055976E+03  0.29527877402E+03  0.97451960616E+03  0.90189974794E+03 0.  0.
        -24    2    4    4    0    0 -0.20947880833E+03  0.55923918529E+02 -0.24237837518E+03  0.33518422934E+03  0.81193195795E+02 0.  0.
         24    2    4    4    0    0  0.30419660643E+03  0.14433664123E+03  0.53765714920E+03  0.63933537682E+03  0.79409524620E+02 0.  0.
         11    1    3    3    0    0  0.21311908380E+01 -0.90089615108E+02  0.46066084085E+02  0.10120654538E+03  0.00000000000E+00 0. -1.
        -11    1    3    3    0    0 -0.96848988939E+02 -0.11017094465E+03  0.22216371156E+02  0.14836081306E+03  0.00000000000E+00 0.  1.
          4    1    6    6  502    0  0.28080957009E+03  0.15138799824E+03  0.47601033154E+03  0.57302545877E+03  0.00000000000E+00 0. -1.
          3    1    5    5  503    0 -0.19077202801E+03  0.66902971108E+02 -0.18574089222E+03  0.27453534063E+03  0.00000000000E+00 0. -1.
         -4    1    5    5    0  503 -0.18706780315E+02 -0.10979052579E+02 -0.56637482964E+02  0.60648888711E+02  0.00000000000E+00 0.  1.
         -3    1    6    6    0  502  0.23387036341E+02 -0.70513570018E+01  0.61646817657E+02  0.66309918048E+02  0.00000000000E+00 0.  1.
<mgrwt>
<rscale>  0 0.11688508E+04</rscale>
<asrwt>0</asrwt>
<pdfrwt beam="1">  1        2 0.12212678E+00 0.11688508E+04</pdfrwt>
<pdfrwt beam="2">  1       -2 0.66194287E-01 0.11688508E+04</pdfrwt>
<totfact> 0.72261089E+01</totfact>
</mgrwt>
</event>
<event>
12    1  0.1980523E-007  0.1703174E+04  0.7818608E-02  0.8759556E-01
          1   -1    0    0  501    0  0.00000000000E+00  0.00000000000E+00  0.11788569480E+04  0.11788569480E+04  0.00000000000E+00 0. -1.
         -1   -1    0    0    0  501 -0.00000000000E+00 -0.00000000000E+00 -0.61517245768E+03  0.61517245768E+03  0.00000000000E+00 0.  1.
         23    2    1    2    0    0  0.30816983380E+03  0.48867348918E+03  0.40819091366E+03  0.71316515498E+03  0.90632724711E+02 0.  0.
        254    2    1    2    0    0 -0.30816983380E+03 -0.48867348918E+03  0.15549357664E+03  0.10808642507E+04  0.90017712176E+03 0.  0.
        -24    2    4    4    0    0  0.18640478601E+03  0.89641931853E+02 -0.13804118489E+03  0.26121939738E+03  0.79986152842E+02 0.  0.
         24    2    4    4    0    0 -0.49457461981E+03 -0.57831542103E+03  0.29353476153E+03  0.81964485331E+03  0.81254221810E+02 0.  0.
         11    1    3    3    0    0  0.41340759141E+02  0.99565635370E+02  0.11524548294E+03  0.15780968110E+03  0.00000000000E+00 0. -1.
        -11    1    3    3    0    0  0.26682907466E+03  0.38910785381E+03  0.29294543073E+03  0.55535547388E+03  0.00000000000E+00 0.  1.
          4    1    6    6  502    0 -0.77102957427E+02 -0.61211256212E+02  0.59615935749E+02  0.11509015478E+03  0.00000000000E+00 0. -1.
          3    1    5    5  503    0  0.11903920315E+03  0.14659514894E+02 -0.62432697976E+02  0.13521492166E+03  0.00000000000E+00 0. -1.
         -4    1    5    5    0  503  0.67365582862E+02  0.74982416959E+02 -0.75608486916E+02  0.12600447572E+03  0.00000000000E+00 0.  1.
         -3    1    6    6    0  502 -0.41747166238E+03 -0.51710416482E+03  0.23391882578E+03  0.70455469853E+03  0.00000000000E+00 0.  1.
<mgrwt>
<rscale>  0 0.17031739E+04</rscale>
<asrwt>0</asrwt>
<pdfrwt beam="1">  1        1 0.18136261E+00 0.17031739E+04</pdfrwt>
<pdfrwt beam="2">  1       -1 0.94641917E-01 0.17031739E+04</pdfrwt>
<totfact> 0.11379002E+01</totfact>
</mgrwt>
</event>
<event>
12    1  0.2204865E-007  0.3622455E+04  0.7818608E-02  0.8085367E-01
         -1   -1    0    0    0  501 -0.00000000000E+00  0.00000000000E+00  0.14939053892E+04  0.14939053892E+04  0.00000000000E+00 0.  1.
          1   -1    0    0  501    0  0.00000000000E+00 -0.00000000000E+00 -0.21959521887E+04  0.21959521887E+04  0.00000000000E+00 0. -1.
         23    2    1    2    0    0 -0.14981209227E+04 -0.79711836100E+03 -0.37868856488E+03  0.17407929302E+04  0.84799860105E+02 0.  0.
        254    2    1    2    0    0  0.14981209227E+04  0.79711836100E+03 -0.32335823466E+03  0.19490646477E+04  0.90251231169E+03 0.  0.
        -24    2    4    4    0    0  0.39184658402E+03  0.13557153315E+03 -0.49038976640E+03  0.64687791422E+03  0.77752986525E+02 0.  0.
         24    2    4    4    0    0  0.11062743387E+04  0.66154682785E+03  0.16703153173E+03  0.13021867335E+04  0.79395456738E+02 0.  0.
         11    1    3    3    0    0 -0.48528671060E+03 -0.29694323717E+03 -0.10557910694E+03  0.57864101601E+03  0.00000000000E+00 0.  1.
        -11    1    3    3    0    0 -0.10128342121E+04 -0.50017512383E+03 -0.27310945794E+03  0.11621519142E+04  0.00000000000E+00 0. -1.
          4    1    6    6  502    0  0.89558693747E+03  0.50343559770E+03  0.11654907170E+03  0.10339763294E+04  0.00000000000E+00 0. -1.
          3    1    5    5  503    0  0.31641028243E+03  0.10873738606E+03 -0.43811590149E+03  0.55125749800E+03  0.00000000000E+00 0. -1.
         -4    1    5    5    0  503  0.75436301587E+02  0.26834147089E+02 -0.52273864902E+02  0.95620416225E+02  0.00000000000E+00 0.  1.
         -3    1    6    6    0  502  0.21068740119E+03  0.15811123016E+03  0.50482460036E+02  0.26821040415E+03  0.00000000000E+00 0.  1.
<mgrwt>
<rscale>  0 0.36224549E+04</rscale>
<asrwt>0</asrwt>
<pdfrwt beam="1">  1        1 0.33783880E+00 0.36224549E+04</pdfrwt>
<pdfrwt beam="2">  1       -1 0.22983160E+00 0.36224549E+04</pdfrwt>
<totfact> 0.16756081E-01</totfact>
</mgrwt>
</event>
<event>
12    1  0.1980523E-007  0.1814320E+04  0.7818608E-02  0.8698721E-01
         -2   -1    0    0    0  501 -0.00000000000E+00  0.00000000000E+00  0.65433989884E+03  0.65433989884E+03  0.00000000000E+00 0.  1.
          2   -1    0    0  501    0  0.00000000000E+00 -0.00000000000E+00 -0.12576631713E+04  0.12576631713E+04  0.00000000000E+00 0. -1.
         23    2    1    2    0    0 -0.14866814914E+03 -0.66030958338E+03 -0.30232069990E+03  0.74702670137E+03  0.92412783195E+02 0.  0.
        254    2    1    2    0    0  0.14866814914E+03  0.66030958338E+03 -0.30100257255E+03  0.11649763688E+04  0.89914205031E+03 0.  0.
        -24    2    4    4    0    0 -0.29767226235E+03  0.32119696100E+03 -0.39045174702E+03  0.59206199588E+03  0.79426549047E+02 0.  0.
         24    2    4    4    0    0  0.44634041149E+03  0.33911262238E+03  0.89449174472E+02  0.57291437288E+03  0.77540894066E+02 0.  0.
         13    1    3    3    0    0 -0.11057168839E+02 -0.53621247124E+02  0.13521490211E+01  0.54766115736E+02  0.00000000000E+00 0.  1.
        -13    1    3    3    0    0 -0.13761098031E+03 -0.60668833625E+03 -0.30367284892E+03  0.69226058563E+03  0.00000000000E+00 0. -1.
          4    1    6    6  502    0  0.41397115215E+01 -0.22643027591E+01  0.66750950612E+01  0.81744218476E+01  0.00000000000E+00 0. -1.
          3    1    5    5  503    0 -0.33821353890E+02  0.80172389203E+02 -0.63757279238E+02  0.10787254806E+03  0.00000000000E+00 0. -1.
         -4    1    5    5    0  503 -0.26385090846E+03  0.24102457179E+03 -0.32669446778E+03  0.48418944782E+03  0.00000000000E+00 0.  1.
         -3    1    6    6    0  502  0.44220069997E+03  0.34137692514E+03  0.82774079411E+02  0.56473995103E+03  0.00000000000E+00 0.  1.
<mgrwt>
<rscale>  0 0.18143199E+04</rscale>
<asrwt>0</asrwt>
<pdfrwt beam="1">  1        2 0.19348664E+00 0.18143199E+04</pdfrwt>
<pdfrwt beam="2">  1       -2 0.10066768E+00 0.18143199E+04</pdfrwt>
<totfact> 0.13422764E+01</totfact>
</mgrwt>
</event>
<event>
12    1  0.1980523E-007  0.5124415E+04  0.7818608E-02  0.7809596E-01
          2   -1    0    0  501    0  0.00000000000E+00  0.00000000000E+00  0.26529081204E+04  0.26529081204E+04  0.00000000000E+00 0. -1.
         -2   -1    0    0    0  501 -0.00000000000E+00 -0.00000000000E+00 -0.24746081525E+04  0.24746081525E+04  0.00000000000E+00 0.  1.
         23    2    1    2    0    0 -0.36466253625E+03  0.23738350464E+04  0.71272757531E+03  0.25068977624E+04  0.92109723825E+02 0.  0.
        254    2    1    2    0    0  0.36466253625E+03 -0.23738350464E+04 -0.53442760741E+03  0.26206185105E+04  0.90219560906E+03 0.  0.
        -24    2    4    4    0    0  0.31936340630E+03 -0.19372559014E+04 -0.77578510828E+03  0.21126496152E+04  0.80575738765E+02 0.  0.
         24    2    4    4    0    0  0.45299129955E+02 -0.43657914503E+03  0.24135750087E+03  0.50796889528E+03  0.84413235290E+02 0.  0.
         13    1    3    3    0    0 -0.13828670948E+03  0.76237155245E+03  0.19078502559E+03  0.79795521428E+03  0.00000000000E+00 0.  1.
        -13    1    3    3    0    0 -0.22637582678E+03  0.16114634940E+04  0.52194254972E+03  0.17089425481E+04  0.00000000000E+00 0. -1.
          2    1    6    6  502    0  0.17301945800E+02 -0.14444486244E+03  0.36252077753E+02  0.14992627773E+03  0.00000000000E+00 0. -1.
          1    1    5    5  503    0  0.97774895391E+02 -0.57144513305E+03 -0.18999358030E+03  0.61008772386E+03  0.00000000000E+00 0. -1.
         -2    1    5    5    0  503  0.22158851091E+03 -0.13658107684E+04 -0.58579152798E+03  0.15025618914E+04  0.00000000000E+00 0.  1.
         -1    1    6    6    0  502  0.27997184154E+02 -0.29213428260E+03  0.20510542312E+03  0.35804261755E+03  0.00000000000E+00 0.  1.
<mgrwt>
<rscale>  0 0.51244153E+04</rscale>
<asrwt>0</asrwt>
<pdfrwt beam="1">  1        2 0.40813971E+00 0.51244153E+04</pdfrwt>
<pdfrwt beam="2">  1       -2 0.38070895E+00 0.51244153E+04</pdfrwt>
<totfact> 0.20234967E-02</totfact>
</mgrwt>
</event>
<event>
12    1  0.1980523E-007  0.1341040E+04  0.7818608E-02  0.8997638E-01
         -2   -1    0    0    0  501 -0.00000000000E+00  0.00000000000E+00  0.23703024309E+03  0.23703024309E+03  0.00000000000E+00 0.  1.
          2   -1    0    0  501    0  0.00000000000E+00 -0.00000000000E+00 -0.18967930411E+04  0.18967930411E+04  0.00000000000E+00 0. -1.
         23    2    1    2    0    0  0.33211426501E+03 -0.11697950021E+03 -0.32527710328E+03  0.48812463108E+03  0.92067220334E+02 0.  0.
        254    2    1    2    0    0 -0.33211426501E+03  0.11697950021E+03 -0.13344856948E+04  0.16456986531E+04  0.89637486517E+03 0.  0.
        -24    2    4    4    0    0  0.22696743751E+03 -0.80231409011E+02 -0.97941620471E+02  0.27207157052E+03  0.80492743660E+02 0.  0.
         24    2    4    4    0    0 -0.55908170252E+03  0.19721090922E+03 -0.12365440743E+04  0.13736270826E+04  0.79659410071E+02 0.  0.
         13    1    3    3    0    0  0.28277486526E+03 -0.86064070767E+02 -0.22237140963E+03  0.36988875696E+03  0.00000000000E+00 0.  1.
        -13    1    3    3    0    0  0.49339399743E+02 -0.30915429443E+02 -0.10290569365E+03  0.11823587412E+03  0.00000000000E+00 0. -1.
          4    1    6    6  502    0 -0.92532136351E+02  0.56452948779E+02 -0.18009081376E+03  0.21019474990E+03  0.00000000000E+00 0. -1.
          1    1    5    5  503    0  0.50442589103E+02 -0.54431813663E+02 -0.16818333966E+02  0.76092926685E+02  0.00000000000E+00 0. -1.
         -2    1    5    5    0  503  0.17652484841E+03 -0.25799595348E+02 -0.81123286506E+02  0.19597864384E+03  0.00000000000E+00 0.  1.
         -3    1    6    6    0  502 -0.46654956617E+03  0.14075796044E+03 -0.10564532605E+04  0.11634323327E+04  0.00000000000E+00 0.  1.
<mgrwt>
<rscale>  0 0.13410404E+04</rscale>
<asrwt>0</asrwt>
<pdfrwt beam="1">  1        2 0.29181432E+00 0.13410404E+04</pdfrwt>
<pdfrwt beam="2">  1       -2 0.36466190E-01 0.13410404E+04</pdfrwt>
<totfact> 0.52778552E+01</totfact>
</mgrwt>
</event>
<event>
12    1  0.1980523E-007  0.2981777E+04  0.7818608E-02  0.8248954E-01
          2   -1    0    0  501    0  0.00000000000E+00  0.00000000000E+00  0.19684663538E+04  0.19684663538E+04  0.00000000000E+00 0. -1.
         -2   -1    0    0    0  501 -0.00000000000E+00 -0.00000000000E+00 -0.11291777676E+04  0.11291777676E+04  0.00000000000E+00 0.  1.
         23    2    1    2    0    0 -0.89429977237E+03  0.97309718112E+03  0.68472034092E+03  0.14912935577E+04  0.91784111779E+02 0.  0.
        254    2    1    2    0    0  0.89429977237E+03 -0.97309718112E+03  0.15456824533E+03  0.16063505637E+04  0.89987809412E+03 0.  0.
        -24    2    4    4    0    0  0.18707681480E+03 -0.76403552555E+03 -0.15006384762E+03  0.80460640353E+03  0.78257825796E+02 0.  0.
         24    2    4    4    0    0  0.70722295756E+03 -0.20906165557E+03  0.30463209294E+03  0.80174416017E+03  0.78242563748E+02 0.  0.
         11    1    3    3    0    0 -0.37311055771E+03  0.35386913122E+03  0.29714214655E+03  0.59390934120E+03  0.00000000000E+00 0.  1.
        -11    1    3    3    0    0 -0.52118921465E+03  0.61922804989E+03  0.38757819437E+03  0.89738421649E+03  0.00000000000E+00 0. -1.
          2    1    6    6  502    0  0.37711017838E+03 -0.11014897253E+03  0.11999041557E+03  0.41078288988E+03  0.00000000000E+00 0. -1.
          3    1    5    5  503    0  0.15168494717E+02 -0.80643528177E+02 -0.40324802316E+02  0.91430583235E+02  0.00000000000E+00 0. -1.
         -4    1    5    5    0  503  0.17190832008E+03 -0.68339199737E+03 -0.10973904530E+03  0.71317582029E+03  0.00000000000E+00 0.  1.
         -1    1    6    6    0  502  0.33011277918E+03 -0.98912683034E+02  0.18464167737E+03  0.39096127029E+03  0.00000000000E+00 0.  1.
<mgrwt>
<rscale>  0 0.29817769E+04</rscale>
<asrwt>0</asrwt>
<pdfrwt beam="1">  1        2 0.30284098E+00 0.29817769E+04</pdfrwt>
<pdfrwt beam="2">  1       -2 0.17371966E+00 0.29817769E+04</pdfrwt>
<totfact> 0.11964687E+00</totfact>
</mgrwt>
</event>
<event>
12    1  0.1980523E-007  0.2104813E+04  0.7818608E-02  0.8559126E-01
          2   -1    0    0  501    0  0.00000000000E+00  0.00000000000E+00  0.29473402566E+04  0.29473402566E+04  0.00000000000E+00 0. -1.
         -2   -1    0    0    0  501 -0.00000000000E+00 -0.00000000000E+00 -0.37578260483E+03  0.37578260483E+03  0.00000000000E+00 0.  1.
         23    2    1    2    0    0  0.79493629171E+03 -0.22168197082E+03  0.68661399518E+03  0.10774712430E+04  0.91863469463E+02 0.  0.
        254    2    1    2    0    0 -0.79493629171E+03  0.22168197082E+03  0.18849436566E+04  0.22456516184E+04  0.89937311436E+03 0.  0.
        -24    2    4    4    0    0 -0.56085935748E+03  0.32161703813E+03  0.18678558151E+04  0.19782071248E+04  0.80108331091E+02 0.  0.
         24    2    4    4    0    0 -0.23407693422E+03 -0.99935067308E+02  0.17087841452E+02  0.26744449356E+03  0.80346337798E+02 0.  0.
         11    1    3    3    0    0  0.52051897998E+03 -0.18983409318E+03  0.45255696801E+03  0.71539136195E+03  0.00000000000E+00 0.  1.
        -11    1    3    3    0    0  0.27441731173E+03 -0.31847877645E+02  0.23405702716E+03  0.36207988104E+03  0.00000000000E+00 0. -1.
          4    1    6    6  502    0 -0.17693865908E+03 -0.41323622270E+02 -0.78688789442E+01  0.18187042115E+03  0.00000000000E+00 0. -1.
          1    1    5    5  503    0 -0.31547297345E+03  0.18105779699E+03  0.11697695528E+04  0.12250167058E+04  0.00000000000E+00 0. -1.
         -2    1    5    5    0  503 -0.24538638403E+03  0.14055924113E+03  0.69808626232E+03  0.75319041907E+03  0.00000000000E+00 0.  1.
         -3    1    6    6    0  502 -0.57138275147E+02 -0.58611445038E+02  0.24956720396E+02  0.85574072411E+02  0.00000000000E+00 0.  1.
<mgrwt>
<rscale>  0 0.21048128E+04</rscale>
<asrwt>0</asrwt>
<pdfrwt beam="1">  1        2 0.45343695E+00 0.21048128E+04</pdfrwt>
<pdfrwt beam="2">  1       -2 0.57812710E-01 0.21048128E+04</pdfrwt>
<totfact> 0.48533159E+00</totfact>
</mgrwt>
</event>
<event>
12    1  0.1980523E-007  0.2967908E+04  0.7818608E-02  0.8252955E-01
          1   -1    0    0  501    0  0.00000000000E+00  0.00000000000E+00  0.19825318715E+04  0.19825318715E+04  0.00000000000E+00 0. -1.
         -1   -1    0    0    0  501 -0.00000000000E+00 -0.00000000000E+00 -0.11107613738E+04  0.11107613738E+04  0.00000000000E+00 0.  1.
         23    2    1    2    0    0  0.12448437102E+04  0.13947177779E+03  0.91106096313E+03  0.15513967388E+04  0.87815277992E+02 0.  0.
        254    2    1    2    0    0 -0.12448437102E+04 -0.13947177779E+03 -0.39290465457E+02  0.15418965065E+04  0.89822761950E+03 0.  0.
        -24    2    4    4    0    0 -0.63917881907E+03 -0.17898332674E+03  0.40799518883E+03  0.78364459462E+03  0.83989181319E+02 0.  0.
         24    2    4    4    0    0 -0.60566489110E+03  0.39511548951E+02 -0.44728565428E+03  0.75825191184E+03  0.80562910047E+02 0.  0.
         13    1    3    3    0    0  0.10257511187E+04  0.82478484056E+02  0.73449500698E+03  0.12642986091E+04  0.00000000000E+00 0. -1.
        -13    1    3    3    0    0  0.21909259148E+03  0.56993293735E+02  0.17656595615E+03  0.28709812964E+03  0.00000000000E+00 0.  1.
          2    1    6    6  502    0 -0.23566185849E+03 -0.12050773647E+02 -0.20843344796E+03  0.31484319100E+03  0.00000000000E+00 0. -1.
          1    1    5    5  503    0 -0.48071897128E+03 -0.10985855857E+03  0.33408278106E+03  0.59562650784E+03  0.00000000000E+00 0. -1.
         -2    1    5    5    0  503 -0.15845984779E+03 -0.69124768168E+02  0.73912407761E+02  0.18801808678E+03  0.00000000000E+00 0.  1.
         -1    1    6    6    0  502 -0.37000303260E+03  0.51562322598E+02 -0.23885220632E+03  0.44340872084E+03  0.00000000000E+00 0.  1.
<mgrwt>
<rscale>  0 0.29679082E+04</rscale>
<asrwt>0</asrwt>
<pdfrwt beam="1">  1        1 0.30500490E+00 0.29679082E+04</pdfrwt>
<pdfrwt beam="2">  1       -1 0.17088637E+00 0.29679082E+04</pdfrwt>
<totfact> 0.63349814E-01</totfact>
</mgrwt>
</event>
<event>
12    1  0.1980523E-007  0.1437665E+04  0.7818608E-02  0.8926997E-01
          2   -1    0    0  501    0  0.00000000000E+00  0.00000000000E+00  0.90076603967E+03  0.90076603967E+03  0.00000000000E+00 0. -1.
         -2   -1    0    0    0  501 -0.00000000000E+00 -0.00000000000E+00 -0.57364558599E+03  0.57364558599E+03  0.00000000000E+00 0.  1.
         23    2    1    2    0    0 -0.63867575059E+02  0.41837515724E+03  0.39037572688E+02  0.43507823099E+03  0.93017716906E+02 0.  0.
        254    2    1    2    0    0  0.63867575059E+02 -0.41837515724E+03  0.28808288099E+03  0.10393333947E+04  0.90449174658E+03 0.  0.
        -24    2    4    4    0    0 -0.23837603479E+03 -0.58183448107E+03  0.26237582570E+03  0.68618340159E+03  0.81560341947E+02 0.  0.
         24    2    4    4    0    0  0.30224360985E+03  0.16345932383E+03  0.25707055289E+02  0.35314999309E+03  0.77355766979E+02 0.  0.
         11    1    3    3    0    0  0.12520652852E+02  0.18741351008E+03  0.38874721886E+02  0.19181197697E+03  0.00000000000E+00 0. -1.
        -11    1    3    3    0    0 -0.76388227911E+02  0.23096164716E+03  0.16285080182E+00  0.24326625402E+03  0.00000000000E+00 0.  1.
          4    1    6    6  502    0  0.15272251172E+03  0.38917881049E+02  0.13130556581E+02  0.15814922879E+03  0.00000000000E+00 0. -1.
          3    1    5    5  503    0 -0.13385727967E+02 -0.86089046929E+02  0.15841652620E+02  0.88552016759E+02  0.00000000000E+00 0. -1.
         -4    1    5    5    0  503 -0.22499030682E+03 -0.49574543415E+03  0.24653417308E+03  0.59763138483E+03  0.00000000000E+00 0.  1.
         -3    1    6    6    0  502  0.14952109813E+03  0.12454144279E+03  0.12576498707E+02  0.19500076429E+03  0.00000000000E+00 0.  1.
<mgrwt>
<rscale>  0 0.14376654E+04</rscale>
<asrwt>0</asrwt>
<pdfrwt beam="1">  1        2 0.13857939E+00 0.14376654E+04</pdfrwt>
<pdfrwt beam="2">  1       -2 0.88253167E-01 0.14376654E+04</pdfrwt>
<totfact> 0.31439263E+01</totfact>
</mgrwt>
</event>
<event>
12    1  0.1980523E-007  0.1151939E+04  0.7818608E-02  0.9155997E-01
         -2   -1    0    0    0  501 -0.00000000000E+00  0.00000000000E+00  0.15457300202E+03  0.15457300202E+03  0.00000000000E+00 0.  1.
          2   -1    0    0  501    0  0.00000000000E+00 -0.00000000000E+00 -0.21461743669E+04  0.21461743669E+04  0.00000000000E+00 0. -1.
         23    2    1    2    0    0  0.14442993037E+03 -0.15212173280E+03 -0.35808914915E+03  0.42461609314E+03  0.89832964108E+02 0.  0.
        254    2    1    2    0    0 -0.14442993037E+03  0.15212173280E+03 -0.16335122158E+04  0.18761312758E+04  0.89861303053E+03 0.  0.
        -24    2    4    4    0    0 -0.36683175141E+02 -0.19489377972E+02  0.96238758033E+02  0.13280436153E+03  0.81545132904E+02 0.  0.
         24    2    4    4    0    0 -0.10774675523E+03  0.17161111077E+03 -0.17297509738E+04  0.17433269143E+04  0.78042053486E+02 0.  0.
         13    1    3    3    0    0  0.88821327167E+02 -0.58841169628E+02 -0.10676195983E+03  0.15082979636E+03  0.00000000000E+00 0.  1.
        -13    1    3    3    0    0  0.55608603205E+02 -0.93280563168E+02 -0.25132718932E+03  0.27378629678E+03  0.00000000000E+00 0. -1.
          2    1    6    6  502    0 -0.43313967451E+02  0.13596942308E+03 -0.10678246162E+04  0.10773175923E+04  0.00000000000E+00 0. -1.
          3    1    5    5  503    0 -0.42040463828E+02 -0.43022111226E+01  0.10590250546E+03  0.11402302522E+03  0.00000000000E+00 0. -1.
         -4    1    5    5    0  503  0.53572886870E+01 -0.15187166850E+02 -0.96637474232E+01  0.18781336301E+02  0.00000000000E+00 0.  1.
         -1    1    6    6    0  502 -0.64432787780E+02  0.35641687687E+02 -0.66192635763E+03  0.66600932198E+03  0.00000000000E+00 0.  1.
<mgrwt>
<rscale>  0 0.11519386E+04</rscale>
<asrwt>0</asrwt>
<pdfrwt beam="1">  1        2 0.33018066E+00 0.11519386E+04</pdfrwt>
<pdfrwt beam="2">  1       -2 0.23780463E-01 0.11519386E+04</pdfrwt>
<totfact> 0.86314155E+01</totfact>
</mgrwt>
</event>
<event>
12    1  0.1980523E-007  0.1957817E+04  0.7818608E-02  0.8626601E-01
         -1   -1    0    0    0  501 -0.00000000000E+00  0.00000000000E+00  0.60457432288E+03  0.60457432288E+03  0.00000000000E+00 0.  1.
          1   -1    0    0  501    0  0.00000000000E+00 -0.00000000000E+00 -0.15850190045E+04  0.15850190045E+04  0.00000000000E+00 0. -1.
         23    2    1    2    0    0  0.64818495265E+02  0.16793685036E+03  0.44839867510E+03  0.49196039881E+03  0.92517236904E+02 0.  0.
        254    2    1    2    0    0 -0.64818495265E+02 -0.16793685036E+03 -0.14288433568E+04  0.16976329286E+04  0.89886595167E+03 0.  0.
        -24    2    4    4    0    0  0.39667714331E+03  0.10760950106E+02 -0.76456240566E+03  0.86519232216E+03  0.80830242528E+02 0.  0.
         24    2    4    4    0    0 -0.46149563857E+03 -0.17869780047E+03 -0.66428095109E+03  0.83244060643E+03  0.82322857954E+02 0.  0.
         11    1    3    3    0    0  0.51275528205E+02  0.35591100363E+02  0.88803038691E+02  0.10854439598E+03  0.00000000000E+00 0. -1.
        -11    1    3    3    0    0  0.13542967060E+02  0.13234575000E+03  0.35959563641E+03  0.38341600283E+03  0.00000000000E+00 0.  1.
          2    1    6    6  502    0 -0.25717775980E+03 -0.70436009896E+02 -0.40647304718E+03  0.48612958119E+03  0.00000000000E+00 0. -1.
          3    1    5    5  503    0  0.35059305143E+03  0.70414792541E+01 -0.60724193687E+03  0.70121882464E+03  0.00000000000E+00 0. -1.
         -4    1    5    5    0  503  0.46084091879E+02  0.37194708523E+01 -0.15732046879E+03  0.16397349752E+03  0.00000000000E+00 0.  1.
         -1    1    6    6    0  502 -0.20431787878E+03 -0.10826179057E+03 -0.25780790391E+03  0.34631102524E+03  0.00000000000E+00 0.  1.
<mgrwt>
<rscale>  0 0.19578169E+04</rscale>
<asrwt>0</asrwt>
<pdfrwt beam="1">  1        1 0.24384908E+00 0.19578169E+04</pdfrwt>
<pdfrwt beam="2">  1       -1 0.93011435E-01 0.19578169E+04</pdfrwt>
<totfact> 0.59725062E+00</totfact>
</mgrwt>
</event>
<event>
12    1  0.2528247E-007  0.2277410E+04  0.7818608E-02  0.8486882E-01
          1   -1    0    0  501    0  0.00000000000E+00  0.00000000000E+00  0.21957163826E+04  0.21957163826E+04  0.00000000000E+00 0. -1.
         -1   -1    0    0    0  501 -0.00000000000E+00 -0.00000000000E+00 -0.59053581108E+03  0.59053581108E+03  0.00000000000E+00 0.  1.
         23    2    1    2    0    0  0.69154288605E+03 -0.54476568737E+03  0.21518733067E+03  0.91074429103E+03  0.90268261154E+02 0.  0.
        254    2    1    2    0    0 -0.69154288605E+03  0.54476568737E+03  0.13899932409E+04  0.18755079027E+04  0.90024855790E+03 0.  0.
        -24    2    4    4    0    0  0.35232150163E+02 -0.17915308078E+00  0.76413698058E+03  0.76942430548E+03  0.82867968866E+02 0.  0.
         24    2    4    4    0    0 -0.72677503621E+03  0.54494484045E+03  0.62585626030E+03  0.11060835972E+04  0.80981683636E+02 0.  0.
         13    1    3    3    0    0  0.23068875114E+03 -0.19244397857E+03  0.30552965998E+02  0.30196931718E+03  0.00000000000E+00 0. -1.
        -13    1    3    3    0    0  0.46085413491E+03 -0.35232170880E+03  0.18463436467E+03  0.60877497384E+03  0.00000000000E+00 0.  1.
          4    1    6    6  502    0 -0.71034189256E+03  0.53350198827E+03  0.62469243336E+03  0.10860251434E+04  0.00000000000E+00 0. -1.
          1    1    5    5  503    0  0.52490699229E+02 -0.24445682947E+02  0.58148276570E+03  0.58435868414E+03  0.00000000000E+00 0. -1.
         -4    1    5    5    0  503 -0.17258549066E+02  0.24266529866E+02  0.18265421488E+03  0.18506562134E+03  0.00000000000E+00 0.  1.
         -3    1    6    6    0  502 -0.16433143649E+02  0.11442852176E+02  0.11638269445E+01  0.20058453810E+02  0.00000000000E+00 0.  1.
<mgrwt>
<rscale>  0 0.22774101E+04</rscale>
<asrwt>0</asrwt>
<pdfrwt beam="1">  1        1 0.33780252E+00 0.22774101E+04</pdfrwt>
<pdfrwt beam="2">  1       -1 0.90851664E-01 0.22774101E+04</pdfrwt>
<totfact> 0.23493677E+00</totfact>
</mgrwt>
</event>
<event>
12    1  0.1980523E-007  0.2406486E+04  0.7818608E-02  0.8437079E-01
          2   -1    0    0  501    0  0.00000000000E+00  0.00000000000E+00  0.12271640967E+04  0.12271640967E+04  0.00000000000E+00 0. -1.
         -2   -1    0    0    0  501 -0.00000000000E+00 -0.00000000000E+00 -0.11797883753E+04  0.11797883753E+04  0.00000000000E+00 0.  1.
         23    2    1    2    0    0  0.52537545474E+03  0.78381058299E+03  0.43887244578E+03  0.10447093882E+04  0.91816576410E+02 0.  0.
        254    2    1    2    0    0 -0.52537545474E+03 -0.78381058299E+03 -0.39149672441E+03  0.13622430838E+04  0.90114268334E+03 0.  0.
        -24    2    4    4    0    0 -0.10855871400E+03 -0.86142795557E+03 -0.24472379768E+03  0.90631638569E+03  0.87615847829E+02 0.  0.
         24    2    4    4    0    0 -0.41681674073E+03  0.77617372587E+02 -0.14677292673E+03  0.45592669812E+03  0.81032155074E+02 0.  0.
         13    1    3    3    0    0  0.37704816598E+03  0.49424181222E+03  0.31144543798E+03  0.69529745380E+03  0.00000000000E+00 0.  1.
        -13    1    3    3    0    0  0.14832728876E+03  0.28956877077E+03  0.12742700779E+03  0.34941193441E+03  0.00000000000E+00 0. -1.
          4    1    6    6  502    0 -0.35913982631E+03  0.72795732806E+02 -0.15421664674E+03  0.39757188996E+03  0.00000000000E+00 0. -1.
          3    1    5    5  503    0 -0.10218798680E+03 -0.84864187864E+03 -0.25077935137E+03  0.89080059828E+03  0.00000000000E+00 0. -1.
         -4    1    5    5    0  503 -0.63707272026E+01 -0.12786076938E+02  0.60555536880E+01  0.15515787412E+02  0.00000000000E+00 0.  1.
         -3    1    6    6    0  502 -0.57676914423E+02  0.48216397806E+01  0.74437200109E+01  0.58354808157E+02  0.00000000000E+00 0.  1.
<mgrwt>
<rscale>  0 0.24064862E+04</rscale>
<asrwt>0</asrwt>
<pdfrwt beam="1">  1        2 0.18879448E+00 0.24064862E+04</pdfrwt>
<pdfrwt beam="2">  1       -2 0.18150590E+00 0.24064862E+04</pdfrwt>
<totfact> 0.29035047E+00</totfact>
</mgrwt>
</event>
<event>
12    1  0.1980523E-007  0.1303822E+04  0.7818608E-02  0.9026540E-01
         -2   -1    0    0    0  501 -0.00000000000E+00  0.00000000000E+00  0.20258090301E+03  0.20258090301E+03  0.00000000000E+00 0.  1.
          2   -1    0    0  501    0  0.00000000000E+00 -0.00000000000E+00 -0.20978664861E+04  0.20978664861E+04  0.00000000000E+00 0. -1.
         23    2    1    2    0    0  0.53202509839E+02  0.31350651250E+03 -0.67399373429E+03  0.75085148601E+03  0.91616372688E+02 0.  0.
        254    2    1    2    0    0 -0.53202509839E+02 -0.31350651250E+03 -0.12212918488E+04  0.15495959031E+04  0.89920900935E+03 0.  0.
        -24    2    4    4    0    0 -0.22012597341E+03 -0.35236244844E+03 -0.13332514599E+03  0.44533933882E+03  0.89088680037E+02 0.  0.
         24    2    4    4    0    0  0.16692346357E+03  0.38855935937E+02 -0.10879667028E+04  0.11042565643E+04  0.79610218299E+02 0.  0.
         13    1    3    3    0    0  0.27749462098E+02  0.26947699684E+03 -0.62040718950E+03  0.67697338593E+03  0.00000000000E+00 0. -1.
        -13    1    3    3    0    0  0.25453047741E+02  0.44029515663E+02 -0.53586544787E+02  0.73878100077E+02  0.00000000000E+00 0.  1.
          4    1    6    6  502    0  0.18191802821E+02  0.20306180052E+02 -0.35938030972E+03  0.36041294323E+03  0.00000000000E+00 0. -1.
          3    1    5    5  503    0 -0.30249281100E+02 -0.90334642123E+02 -0.62946551913E+02  0.11418246351E+03  0.00000000000E+00 0. -1.
         -4    1    5    5    0  503 -0.18987669231E+03 -0.26202780632E+03 -0.70378594073E+02  0.33115687532E+03  0.00000000000E+00 0.  1.
         -1    1    6    6    0  502  0.14873166075E+03  0.18549755885E+02 -0.72858639309E+03  0.74384362103E+03  0.00000000000E+00 0.  1.
<mgrwt>
<rscale>  0 0.13038216E+04</rscale>
<asrwt>0</asrwt>
<pdfrwt beam="1">  1        2 0.32274871E+00 0.13038216E+04</pdfrwt>
<pdfrwt beam="2">  1       -2 0.31166291E-01 0.13038216E+04</pdfrwt>
<totfact> 0.55200681E+01</totfact>
</mgrwt>
</event>
<event>
12    1  0.1980523E-007  0.1827938E+04  0.7818608E-02  0.8691582E-01
          1   -1    0    0  501    0  0.00000000000E+00  0.00000000000E+00  0.12914701370E+04  0.12914701370E+04  0.00000000000E+00 0. -1.
         -1   -1    0    0    0  501 -0.00000000000E+00 -0.00000000000E+00 -0.64681265421E+03  0.64681265421E+03  0.00000000000E+00 0.  1.
         23    2    1    2    0    0 -0.31475005206E+03 -0.39858715251E+03  0.73306437410E+03  0.89631768469E+03  0.89792549242E+02 0.  0.
        254    2    1    2    0    0  0.31475005206E+03  0.39858715251E+03 -0.88406891293E+02  0.10419651065E+04  0.90550328072E+03 0.  0.
        -24    2    4    4    0    0 -0.90800045671E+02 -0.74891741541E+02  0.27955883764E+03  0.31379687724E+03  0.80386038712E+02 0.  0.
         24    2    4    4    0    0  0.40555009773E+03  0.47347889405E+03 -0.36796572893E+03  0.72816822929E+03  0.78594195723E+02 0.  0.
         13    1    3    3    0    0 -0.82522140662E+02 -0.50402265672E+02  0.15396738614E+03  0.18181377307E+03  0.00000000000E+00 0. -1.
        -13    1    3    3    0    0 -0.23222791140E+03 -0.34818488684E+03  0.57909698796E+03  0.71450391162E+03  0.00000000000E+00 0.  1.
          2    1    6    6  502    0  0.36417823129E+03  0.45561105199E+03 -0.34294392496E+03  0.67662231009E+03  0.00000000000E+00 0. -1.
          3    1    5    5  503    0 -0.68486474618E+02 -0.89657274322E+02  0.24776083100E+03  0.27223933114E+03  0.00000000000E+00 0. -1.
         -4    1    5    5    0  503 -0.22313571053E+02  0.14765532781E+02  0.31798006644E+02  0.41557546101E+02  0.00000000000E+00 0.  1.
         -1    1    6    6    0  502  0.41371866441E+02  0.17867842061E+02 -0.25021803979E+02  0.51545919208E+02  0.00000000000E+00 0.  1.
<mgrwt>
<rscale>  0 0.18279379E+04</rscale>
<asrwt>0</asrwt>
<pdfrwt beam="1">  1        1 0.19868771E+00 0.18279379E+04</pdfrwt>
<pdfrwt beam="2">  1       -1 0.99509640E-01 0.18279379E+04</pdfrwt>
<totfact> 0.83246277E+00</totfact>
</mgrwt>
</event>
<event>
12    1  0.1980523E-007  0.1872999E+04  0.7818608E-02  0.8668414E-01
         -2   -1    0    0    0  501 -0.00000000000E+00  0.00000000000E+00  0.11002166368E+04  0.11002166368E+04  0.00000000000E+00 0.  1.
          2   -1    0    0  501    0  0.00000000000E+00 -0.00000000000E+00 -0.79714423910E+03  0.79714423910E+03  0.00000000000E+00 0. -1.
         23    2    1    2    0    0 -0.44725044887E+03  0.12976258615E+03 -0.43524941667E+03  0.64398574114E+03  0.91674900120E+02 0.  0.
        254    2    1    2    0    0  0.44725044887E+03 -0.12976258615E+03  0.73832181439E+03  0.12533751348E+04  0.89942138851E+03 0.  0.
        -24    2    4    4    0    0 -0.26316037637E+03 -0.10445406787E+03  0.25338168921E+03  0.38960058209E+03  0.86152754805E+02 0.  0.
         24    2    4    4    0    0  0.71041082523E+03 -0.25308518279E+02  0.48494012519E+03  0.86377455269E+03  0.74936580875E+02 0.  0.
         11    1    3    3    0    0 -0.16149722510E+03  0.65464612185E+02 -0.21919161626E+03  0.28002130955E+03  0.00000000000E+00 0. -1.
        -11    1    3    3    0    0 -0.28575322377E+03  0.64297973960E+02 -0.21605780041E+03  0.36396443159E+03  0.00000000000E+00 0.  1.
          2    1    6    6  502    0  0.29999369066E+03 -0.39025850215E+02  0.23471392079E+03  0.38289666496E+03  0.00000000000E+00 0. -1.
          3    1    5    5  503    0 -0.72078981290E+02 -0.50716922633E+02  0.35927316756E+02  0.95175405828E+02  0.00000000000E+00 0. -1.
         -4    1    5    5    0  503 -0.19108139507E+03 -0.53737145233E+02  0.21745437245E+03  0.29442517627E+03  0.00000000000E+00 0.  1.
         -1    1    6    6    0  502  0.41041713457E+03  0.13717331936E+02  0.25022620440E+03  0.48087788773E+03  0.00000000000E+00 0.  1.
<mgrwt>
<rscale>  0 0.18729990E+04</rscale>
<asrwt>0</asrwt>
<pdfrwt beam="1">  1        2 0.12263758E+00 0.18729990E+04</pdfrwt>
<pdfrwt beam="2">  1       -2 0.16926410E+00 0.18729990E+04</pdfrwt>
<totfact> 0.70042997E+00</totfact>
</mgrwt>
</event>
<event>
12    1  0.1980523E-007  0.1588918E+04  0.7818608E-02  0.8827385E-01
          2   -1    0    0  501    0  0.00000000000E+00  0.00000000000E+00  0.11386589913E+04  0.11386589913E+04  0.00000000000E+00 0. -1.
         -2   -1    0    0    0  501 -0.00000000000E+00 -0.00000000000E+00 -0.55430558664E+03  0.55430558664E+03  0.00000000000E+00 0.  1.
         23    2    1    2    0    0 -0.45311378327E+03  0.17911935235E+03 -0.29017392545E+02  0.49970796564E+03  0.10709901437E+03 0.  0.
        254    2    1    2    0    0  0.45311378327E+03 -0.17911935235E+03  0.61337079718E+03  0.11932566123E+04  0.90013430382E+03 0.  0.
        -24    2    4    4    0    0 -0.39951982322E+02  0.70697612771E+02 -0.18571643566E+03  0.21833157850E+03  0.81140435987E+02 0.  0.
         24    2    4    4    0    0  0.49306576559E+03 -0.24981696512E+03  0.79908723285E+03  0.97492503377E+03  0.80100252848E+02 0.  0.
         11    1    3    3    0    0 -0.51747468437E+02  0.25754057507E+02 -0.39331897504E+02  0.69914734706E+02  0.00000000000E+00 0.  1.
        -11    1    3    3    0    0 -0.40136631483E+03  0.15336529484E+03  0.10314504959E+02  0.42979323093E+03  0.00000000000E+00 0. -1.
          4    1    6    6  502    0  0.49432063008E+03 -0.24246346350E+03  0.79241911971E+03  0.96491941515E+03  0.00000000000E+00 0. -1.
          1    1    5    5  503    0 -0.52099598740E+02  0.73548675745E+02 -0.18505349437E+03  0.20583627395E+03  0.00000000000E+00 0. -1.
         -2    1    5    5    0  503  0.12147616418E+02 -0.28510629746E+01 -0.66294129030E+00  0.12495304554E+02  0.00000000000E+00 0.  1.
         -3    1    6    6    0  502 -0.12548644922E+01 -0.73535016256E+01  0.66681131368E+01  0.10005618614E+02  0.00000000000E+00 0.  1.
<mgrwt>
<rscale>  0 0.15889179E+04</rscale>
<asrwt>0</asrwt>
<pdfrwt beam="1">  1        2 0.17517831E+00 0.15889179E+04</pdfrwt>
<pdfrwt beam="2">  1       -2 0.85277783E-01 0.15889179E+04</pdfrwt>
<totfact> 0.23681261E+01</totfact>
</mgrwt>
</event>
<event>
12    1  0.1980523E-007  0.3047481E+04  0.7818608E-02  0.8230301E-01
          1   -1    0    0  501    0  0.00000000000E+00  0.00000000000E+00  0.12526002428E+04  0.12526002428E+04  0.00000000000E+00 0. -1.
         -1   -1    0    0    0  501 -0.00000000000E+00 -0.00000000000E+00 -0.18535723560E+04  0.18535723560E+04  0.00000000000E+00 0.  1.
         23    2    1    2    0    0  0.54399329600E+03  0.10583733922E+04  0.45479980985E+03  0.12773611059E+04  0.93410837623E+02 0.  0.
        254    2    1    2    0    0 -0.54399329600E+03 -0.10583733922E+04 -0.10557719230E+04  0.18288114928E+04  0.90211649995E+03 0.  0.
        -24    2    4    4    0    0 -0.33879456775E+03 -0.16899437085E+03 -0.78217864517E+03  0.87327248226E+03  0.86374410519E+02 0.  0.
         24    2    4    4    0    0 -0.20519872825E+03 -0.88937902132E+03 -0.27359327787E+03  0.95553901058E+03  0.71413985971E+02 0.  0.
         13    1    3    3    0    0  0.23912903087E+03  0.36735673103E+03  0.17230677766E+03  0.47098119588E+03  0.00000000000E+00 0.  1.
        -13    1    3    3    0    0  0.30486426513E+03  0.69101666114E+03  0.28249303219E+03  0.80637991007E+03  0.00000000000E+00 0. -1.
          4    1    6    6  502    0 -0.16773974889E+03 -0.80435101017E+03 -0.25884171806E+03  0.86146166829E+03  0.00000000000E+00 0. -1.
          1    1    5    5  503    0 -0.18947149151E+03 -0.63417638390E+02 -0.33373368629E+03  0.38897225649E+03  0.00000000000E+00 0. -1.
         -2    1    5    5    0  503 -0.14932307624E+03 -0.10557673246E+03 -0.44844495888E+03  0.48430022577E+03  0.00000000000E+00 0.  1.
         -3    1    6    6    0  502 -0.37458979360E+02 -0.85028011147E+02 -0.14751559808E+02  0.94077342283E+02  0.00000000000E+00 0.  1.
<mgrwt>
<rscale>  0 0.30474810E+04</rscale>
<asrwt>0</asrwt>
<pdfrwt beam="1">  1        1 0.19270773E+00 0.30474810E+04</pdfrwt>
<pdfrwt beam="2">  1       -1 0.28516498E+00 0.30474810E+04</pdfrwt>
<totfact> 0.34172418E-01</totfact>
</mgrwt>
</event>
<event>
12    1  0.1980523E-007  0.2702496E+04  0.7818608E-02  0.8334196E-01
         -2   -1    0    0    0  501 -0.00000000000E+00  0.00000000000E+00  0.89335891603E+03  0.89335891603E+03  0.00000000000E+00 0.  1.
          2   -1    0    0  501    0  0.00000000000E+00 -0.00000000000E+00 -0.20438264403E+04  0.20438264403E+04  0.00000000000E+00 0. -1.
         23    2    1    2    0    0  0.74191217758E+03  0.80399532968E+03  0.22184769226E+02  0.10976579484E+04  0.86710082557E+02 0.  0.
        254    2    1    2    0    0 -0.74191217758E+03 -0.80399532968E+03 -0.11726522935E+04  0.18395274079E+04  0.90105799679E+03 0.  0.
        -24    2    4    4    0    0 -0.37360691454E+03 -0.66229705717E+03 -0.20517319027E+03  0.79162635421E+03  0.79729092254E+02 0.  0.
         24    2    4    4    0    0 -0.36830526303E+03 -0.14169827251E+03 -0.96747910328E+03  0.10479010537E+04  0.79709697582E+02 0.  0.
         11    1    3    3    0    0  0.23034953564E+03  0.24842218924E+03 -0.33215876413E+02  0.34040826535E+03  0.00000000000E+00 0. -1.
        -11    1    3    3    0    0  0.51156264194E+03  0.55557314044E+03  0.55400645639E+02  0.75724968309E+03  0.00000000000E+00 0.  1.
          4    1    6    6  502    0 -0.19521230770E+03 -0.97702479421E+02 -0.44334923413E+03  0.49417827043E+03  0.00000000000E+00 0. -1.
          1    1    5    5  503    0 -0.82958412768E+02 -0.21582421731E+03 -0.47582685425E+02  0.23606419250E+03  0.00000000000E+00 0. -1.
         -2    1    5    5    0  503 -0.29064850178E+03 -0.44647283986E+03 -0.15759050484E+03  0.55556216171E+03  0.00000000000E+00 0.  1.
         -3    1    6    6    0  502 -0.17309295533E+03 -0.43995793090E+02 -0.52412986915E+03  0.55372278328E+03  0.00000000000E+00 0.  1.
<mgrwt>
<rscale>  0 0.27024956E+04</rscale>
<asrwt>0</asrwt>
<pdfrwt beam="1">  1        2 0.31443483E+00 0.27024956E+04</pdfrwt>
<pdfrwt beam="2">  1       -2 0.13743984E+00 0.27024956E+04</pdfrwt>
<totfact> 0.20873382E+00</totfact>
</mgrwt>
</event>
<event>
12    1  0.1980523E-007  0.2246972E+04  0.7818608E-02  0.8499128E-01
          2   -1    0    0  501    0  0.00000000000E+00  0.00000000000E+00  0.16747465347E+04  0.16747465347E+04  0.00000000000E+00 0. -1.
         -2   -1    0    0    0  501 -0.00000000000E+00 -0.00000000000E+00 -0.75367884577E+03  0.75367884577E+03  0.00000000000E+00 0.  1.
         23    2    1    2    0    0 -0.65147352862E+03  0.67108937475E+03  0.48569666560E+03  0.10580519010E+04  0.93775619942E+02 0.  0.
        254    2    1    2    0    0  0.65147352862E+03 -0.67108937475E+03  0.43537102335E+03  0.13703734795E+04  0.90199602984E+03 0.  0.
        -24    2    4    4    0    0 -0.11267064467E+03 -0.45973661465E+03  0.28668463824E+03  0.55930795409E+03  0.81147253098E+02 0.  0.
         24    2    4    4    0    0  0.76414417329E+03 -0.21135276010E+03  0.14868638510E+03  0.81106552537E+03  0.84459093994E+02 0.  0.
         11    1    3    3    0    0 -0.54341349964E+03  0.57048400954E+03  0.44518027295E+03  0.90495066835E+03  0.00000000000E+00 0. -1.
        -11    1    3    3    0    0 -0.10806002898E+03  0.10060536522E+03  0.40516392650E+02  0.15310123268E+03  0.00000000000E+00 0.  1.
          2    1    6    6  502    0  0.70401439081E+03 -0.17232457305E+03  0.14583218983E+03  0.73932337210E+03  0.00000000000E+00 0. -1.
          3    1    5    5  503    0 -0.10816481832E+03 -0.46228489213E+03  0.28548813871E+03  0.55399496997E+03  0.00000000000E+00 0. -1.
         -4    1    5    5    0  503 -0.45058263469E+01  0.25482774729E+01  0.11964995344E+01  0.53129841223E+01  0.00000000000E+00 0.  1.
         -1    1    6    6    0  502  0.60129782478E+02 -0.39028187045E+02  0.28541952699E+01  0.71742153268E+02  0.00000000000E+00 0.  1.
<mgrwt>
<rscale>  0 0.22469722E+04</rscale>
<asrwt>0</asrwt>
<pdfrwt beam="1">  1        2 0.25765331E+00 0.22469722E+04</pdfrwt>
<pdfrwt beam="2">  1       -2 0.11595059E+00 0.22469722E+04</pdfrwt>
<totfact> 0.53308282E+00</totfact>
</mgrwt>
</event>
<event>
12    1  0.1980523E-007  0.1967042E+04  0.7818608E-02  0.8622187E-01
          1   -1    0    0  501    0  0.00000000000E+00  0.00000000000E+00  0.10069170107E+04  0.10069170107E+04  0.00000000000E+00 0. -1.
         -1   -1    0    0    0  501 -0.00000000000E+00 -0.00000000000E+00 -0.96066832019E+03  0.96066832019E+03  0.00000000000E+00 0.  1.
         23    2    1    2    0    0 -0.14023367642E+03  0.73674897225E+03 -0.17559461035E+03  0.77617979206E+03  0.95692582263E+02 0.  0.
        254    2    1    2    0    0  0.14023367642E+03 -0.73674897225E+03  0.22184330082E+03  0.11914055388E+04  0.89875924233E+03 0.  0.
        -24    2    4    4    0    0 -0.32720929381E+03 -0.57287594488E+02  0.48136584436E+02  0.34491386172E+03  0.79376638932E+02 0.  0.
         24    2    4    4    0    0  0.46744297024E+03 -0.67946137776E+03  0.17370671639E+03  0.84649167708E+03  0.78761930905E+02 0.  0.
         11    1    3    3    0    0 -0.29166836359E+02  0.27074036328E+03 -0.22429502865E+02  0.27322908200E+03  0.00000000000E+00 0. -1.
        -11    1    3    3    0    0 -0.11106684006E+03  0.46600860897E+03 -0.15316510748E+03  0.50295071005E+03  0.00000000000E+00 0.  1.
          2    1    6    6  502    0  0.30373708361E+03 -0.44301322966E+03  0.74537830229E+02  0.54228481977E+03  0.00000000000E+00 0. -1.
          3    1    5    5  503    0 -0.22449615281E+03 -0.13378619674E+02  0.59500592228E+02  0.23263239363E+03  0.00000000000E+00 0. -1.
         -4    1    5    5    0  503 -0.10271314100E+03 -0.43908974815E+02 -0.11364007792E+02  0.11228146809E+03  0.00000000000E+00 0.  1.
         -1    1    6    6    0  502  0.16370588662E+03 -0.23644814810E+03  0.99168886157E+02  0.30420685732E+03  0.00000000000E+00 0.  1.
<mgrwt>
<rscale>  0 0.19670417E+04</rscale>
<asrwt>0</asrwt>
<pdfrwt beam="1">  1        1 0.15491031E+00 0.19670417E+04</pdfrwt>
<pdfrwt beam="2">  1       -1 0.14779513E+00 0.19670417E+04</pdfrwt>
<totfact> 0.50479958E+00</totfact>
</mgrwt>
</event>
<event>
12    1  0.1980523E-007  0.1517402E+04  0.7818608E-02  0.8872963E-01
         -2   -1    0    0    0  501 -0.00000000000E+00  0.00000000000E+00  0.54631301907E+03  0.54631301907E+03  0.00000000000E+00 0.  1.
          2   -1    0    0  501    0  0.00000000000E+00 -0.00000000000E+00 -0.10536578856E+04  0.10536578856E+04  0.00000000000E+00 0. -1.
         23    2    1    2    0    0 -0.45072817271E+03 -0.17341554871E+03 -0.21896628780E+03  0.53780802802E+03  0.89790877072E+02 0.  0.
        254    2    1    2    0    0  0.45072817271E+03  0.17341554871E+03 -0.28837857869E+03  0.10621628766E+04  0.90099885325E+03 0.  0.
        -24    2    4    4    0    0 -0.24495236376E+03  0.16747502889E+03 -0.17619929851E+03  0.35319943040E+03  0.75193743252E+02 0.  0.
         24    2    4    4    0    0  0.69568053647E+03  0.59405198124E+01 -0.11217928018E+03  0.70896344620E+03  0.77706361059E+02 0.  0.
         11    1    3    3    0    0 -0.32166373368E+03 -0.83146217356E+02 -0.12882994548E+03  0.35633973379E+03  0.00000000000E+00 0. -1.
        -11    1    3    3    0    0 -0.12906443903E+03 -0.90269331350E+02 -0.90136342318E+02  0.18146829423E+03  0.00000000000E+00 0.  1.
          2    1    6    6  502    0  0.51917486049E+03  0.27028062717E+02 -0.10895921119E+03  0.53117338190E+03  0.00000000000E+00 0. -1.
          1    1    5    5  503    0 -0.50757194000E+02  0.16637971797E+02 -0.62722995643E+02  0.82385004890E+02  0.00000000000E+00 0. -1.
         -2    1    5    5    0  503 -0.19419516976E+03  0.15083705710E+03 -0.11347630287E+03  0.27081442551E+03  0.00000000000E+00 0.  1.
         -1    1    6    6    0  502  0.17650567598E+03 -0.21087542904E+02 -0.32200689884E+01  0.17779006429E+03  0.00000000000E+00 0.  1.
<mgrwt>
<rscale>  0 0.15174018E+04</rscale>
<asrwt>0</asrwt>
<pdfrwt beam="1">  1        2 0.16210121E+00 0.15174018E+04</pdfrwt>
<pdfrwt beam="2">  1       -2 0.84048157E-01 0.15174018E+04</pdfrwt>
<totfact> 0.27781180E+01</totfact>
</mgrwt>
</event>
<event>
12    1  0.1980523E-007  0.1105943E+04  0.7818608E-02  0.9199419E-01
         -2   -1    0    0    0  501 -0.00000000000E+00  0.00000000000E+00  0.46407682939E+03  0.46407682939E+03  0.00000000000E+00 0.  1.
          2   -1    0    0  501    0  0.00000000000E+00 -0.00000000000E+00 -0.65889385879E+03  0.65889385879E+03  0.00000000000E+00 0. -1.
         23    2    1    2    0    0 -0.14981168130E+03  0.36938698839E+01  0.34312003386E+02  0.17918563356E+03  0.92048862941E+02 0.  0.
        254    2    1    2    0    0  0.14981168130E+03 -0.36938698839E+01 -0.22912903279E+03  0.94378505462E+03  0.90320148978E+03 0.  0.
        -24    2    4    4    0    0 -0.71376202780E+02  0.22556538084E+03  0.25652273232E+03  0.35782713674E+03  0.79133079267E+02 0.  0.
         24    2    4    4    0    0  0.22118788408E+03 -0.22925925073E+03 -0.48565176510E+03  0.58595791788E+03  0.77492970506E+02 0.  0.
         11    1    3    3    0    0 -0.13299124586E+03 -0.11017227812E+02 -0.54682033374E+01  0.13355879616E+03  0.00000000000E+00 0. -1.
        -11    1    3    3    0    0 -0.16820435436E+02  0.14711097696E+02  0.39780206723E+02  0.45626837394E+02  0.00000000000E+00 0.  1.
          2    1    6    6  502    0  0.15544715263E+03 -0.20594313027E+03 -0.37699779114E+03  0.45684102781E+03  0.00000000000E+00 0. -1.
          3    1    5    5  503    0 -0.75237162008E+02  0.21937911320E+03  0.26109073835E+03  0.34922227808E+03  0.00000000000E+00 0. -1.
         -4    1    5    5    0  503  0.38609592277E+01  0.61862676374E+01 -0.45680060304E+01  0.86048586585E+01  0.00000000000E+00 0.  1.
         -1    1    6    6    0  502  0.65740731454E+02 -0.23316120457E+02 -0.10865397396E+03  0.12911689008E+03  0.00000000000E+00 0.  1.
<mgrwt>
<rscale>  0 0.11059428E+04</rscale>
<asrwt>0</asrwt>
<pdfrwt beam="1">  1        2 0.10136829E+00 0.11059428E+04</pdfrwt>
<pdfrwt beam="2">  1       -2 0.71396435E-01 0.11059428E+04</pdfrwt>
<totfact> 0.78160879E+01</totfact>
</mgrwt>
</event>
<event>
12    1  0.1980523E-007  0.4087301E+04  0.7818608E-02  0.7987163E-01
          2   -1    0    0  501    0  0.00000000000E+00  0.00000000000E+00  0.22482557397E+04  0.22482557397E+04  0.00000000000E+00 0. -1.
         -2   -1    0    0    0  501 -0.00000000000E+00 -0.00000000000E+00 -0.18576658816E+04  0.18576658816E+04  0.00000000000E+00 0.  1.
         23    2    1    2    0    0 -0.11363440646E+04 -0.15708877022E+04  0.32604163904E+03  0.19678964778E+04  0.85716923343E+02 0.  0.
        254    2    1    2    0    0  0.11363440646E+04  0.15708877022E+04  0.64548219066E+02  0.21380251436E+04  0.89889879066E+03 0.  0.
        -24    2    4    4    0    0  0.80139771030E+02 -0.24916806297E+02 -0.17213686233E+03  0.20812896552E+03  0.81506667089E+02 0.  0.
         24    2    4    4    0    0  0.10562042936E+04  0.15958045085E+04  0.23668508139E+03  0.19298961780E+04  0.79497743266E+02 0.  0.
         11    1    3    3    0    0 -0.31824092187E+03 -0.38968105278E+03  0.60976248058E+02  0.50680046377E+03  0.00000000000E+00 0. -1.
        -11    1    3    3    0    0 -0.81810314274E+03 -0.11812066494E+04  0.26506539098E+03  0.14610960140E+04  0.00000000000E+00 0.  1.
          4    1    6    6  502    0  0.36059750628E+03  0.49494898666E+03  0.50704833158E+02  0.61447216457E+03  0.00000000000E+00 0. -1.
          3    1    5    5  503    0  0.29148576462E+02  0.22656636843E+02 -0.23010911894E+02  0.43502468539E+02  0.00000000000E+00 0. -1.
         -4    1    5    5    0  503  0.50991194568E+02 -0.47573443141E+02 -0.14912595043E+03  0.16462649698E+03  0.00000000000E+00 0.  1.
         -3    1    6    6    0  502  0.69560678730E+03  0.11008555218E+04  0.18598024823E+03  0.13154240135E+04  0.00000000000E+00 0.  1.
<mgrwt>
<rscale>  0 0.40873013E+04</rscale>
<asrwt>0</asrwt>
<pdfrwt beam="1">  1        2 0.34588550E+00 0.40873013E+04</pdfrwt>
<pdfrwt beam="2">  1       -2 0.28579475E+00 0.40873013E+04</pdfrwt>
<totfact> 0.14749660E-01</totfact>
</mgrwt>
</event>
<event>
12    1  0.1980523E-007  0.1728065E+04  0.7818608E-02  0.8745518E-01
          1   -1    0    0  501    0  0.00000000000E+00  0.00000000000E+00  0.33151111673E+04  0.33151111673E+04  0.00000000000E+00 0. -1.
         -1   -1    0    0    0  501 -0.00000000000E+00 -0.00000000000E+00 -0.22519667539E+03  0.22519667539E+03  0.00000000000E+00 0.  1.
         23    2    1    2    0    0  0.28363445212E+03  0.47118483086E+03  0.17348639616E+04  0.18221580066E+04  0.89683826534E+02 0.  0.
        254    2    1    2    0    0 -0.28363445212E+03 -0.47118483086E+03  0.13550505304E+04  0.17181498361E+04  0.90189426883E+03 0.  0.
        -24    2    4    4    0    0  0.77208796105E+02 -0.41891786153E+03  0.15318506752E+03  0.45968186392E+03  0.79927330758E+02 0.  0.
         24    2    4    4    0    0 -0.36084324822E+03 -0.52266969330E+02  0.12018654628E+04  0.12584679722E+04  0.79506982930E+02 0.  0.
         13    1    3    3    0    0  0.14761880798E+03  0.21486546242E+03  0.95924168158E+03  0.99403374343E+03  0.00000000000E+00 0. -1.
        -13    1    3    3    0    0  0.13601564414E+03  0.25631936843E+03  0.77562228000E+03  0.82812426321E+03  0.00000000000E+00 0.  1.
          2    1    6    6  502    0 -0.34599201153E+02 -0.15815566105E+02  0.66666893336E+02  0.76757485099E+02  0.00000000000E+00 0. -1.
          3    1    5    5  503    0  0.36116314674E+02 -0.22067768769E+03  0.38200201216E+02  0.22685300396E+03  0.00000000000E+00 0. -1.
         -4    1    5    5    0  503  0.41092481431E+02 -0.19824017383E+03  0.11498486631E+03  0.23282885996E+03  0.00000000000E+00 0.  1.
         -1    1    6    6    0  502 -0.32624404707E+03 -0.36451403225E+02  0.11351985695E+04  0.11817104871E+04  0.00000000000E+00 0.  1.
<mgrwt>
<rscale>  0 0.17280648E+04</rscale>
<asrwt>0</asrwt>
<pdfrwt beam="1">  1        1 0.51001707E+00 0.17280648E+04</pdfrwt>
<pdfrwt beam="2">  1       -1 0.34645645E-01 0.17280648E+04</pdfrwt>
<totfact> 0.26248201E+00</totfact>
</mgrwt>
</event>
<event>
12    1  0.1980523E-007  0.1695684E+04  0.7818608E-02  0.8763829E-01
         -1   -1    0    0    0  501 -0.00000000000E+00  0.00000000000E+00  0.13227975856E+04  0.13227975856E+04  0.00000000000E+00 0.  1.
          1   -1    0    0  501    0  0.00000000000E+00 -0.00000000000E+00 -0.54342136990E+03  0.54342136990E+03  0.00000000000E+00 0. -1.
         23    2    1    2    0    0 -0.46299563942E+03  0.32943474097E+03  0.50769197716E+03  0.76741783882E+03  0.91031780114E+02 0.  0.
        254    2    1    2    0    0  0.46299563942E+03 -0.32943474097E+03  0.27168423858E+03  0.10988011167E+04  0.90036623545E+03 0.  0.
        -24    2    4    4    0    0  0.54176144592E+03 -0.39401228623E+03 -0.12095054009E+03  0.68543021541E+03  0.80214718546E+02 0.  0.
         24    2    4    4    0    0 -0.78765806493E+02  0.64577545263E+02  0.39263477867E+03  0.41337090131E+03  0.79618597071E+02 0.  0.
         11    1    3    3    0    0 -0.15309461750E+03  0.15882960337E+03  0.17192077376E+03  0.27968117074E+03  0.00000000000E+00 0.  1.
        -11    1    3    3    0    0 -0.30990102193E+03  0.17060513759E+03  0.33577120339E+03  0.48773666808E+03  0.00000000000E+00 0. -1.
          2    1    6    6  502    0  0.24606920727E+00  0.20422837603E+02  0.19416366783E+03  0.19523494244E+03  0.00000000000E+00 0. -1.
          3    1    5    5  503    0  0.32963317360E+03 -0.23410656002E+03 -0.11242488883E+03  0.41964659680E+03  0.00000000000E+00 0. -1.
         -4    1    5    5    0  503  0.21212827232E+03 -0.15990572621E+03 -0.85256512619E+01  0.26578361861E+03  0.00000000000E+00 0.  1.
         -1    1    6    6    0  502 -0.79011875700E+02  0.44154707660E+02  0.19847111084E+03  0.21813595886E+03  0.00000000000E+00 0.  1.
<mgrwt>
<rscale>  0 0.16956845E+04</rscale>
<asrwt>0</asrwt>
<pdfrwt beam="1">  1        1 0.83603288E-01 0.16956845E+04</pdfrwt>
<pdfrwt beam="2">  1       -1 0.20350732E+00 0.16956845E+04</pdfrwt>
<totfact> 0.53463907E+00</totfact>
</mgrwt>
</event>
<event>
12    1  0.1980523E-007  0.1783419E+04  0.7818608E-02  0.8715167E-01
         -1   -1    0    0    0  501 -0.00000000000E+00  0.00000000000E+00  0.65613104858E+03  0.65613104858E+03  0.00000000000E+00 0.  1.
          1   -1    0    0  501    0  0.00000000000E+00 -0.00000000000E+00 -0.12118700158E+04  0.12118700158E+04  0.00000000000E+00 0. -1.
         23    2    1    2    0    0  0.30763091857E+03  0.54944295844E+03 -0.41782666083E+03  0.76125086063E+03  0.91648282418E+02 0.  0.
        254    2    1    2    0    0 -0.30763091857E+03 -0.54944295844E+03 -0.13791230640E+03  0.11067502038E+04  0.89963985163E+03 0.  0.
        -24    2    4    4    0    0  0.83018417511E+02  0.16991110990E+03 -0.19251957417E+03  0.28234481617E+03  0.83023887319E+02 0.  0.
         24    2    4    4    0    0 -0.39064933609E+03 -0.71935406834E+03  0.54607267773E+02  0.82440538759E+03  0.81148690531E+02 0.  0.
         11    1    3    3    0    0  0.77263065551E+02  0.10821277245E+03 -0.13158065554E+03  0.18706430534E+03  0.00000000000E+00 0. -1.
        -11    1    3    3    0    0  0.23036785302E+03  0.44123018598E+03 -0.28624600529E+03  0.57418655529E+03  0.00000000000E+00 0.  1.
          4    1    6    6  502    0 -0.32784119847E+03 -0.58566742817E+03  0.14450336153E+02  0.67133821584E+03  0.00000000000E+00 0. -1.
          1    1    5    5  503    0  0.69744579496E+01  0.78992057594E+02 -0.38935853536E+02  0.88342452519E+02  0.00000000000E+00 0. -1.
         -2    1    5    5    0  503  0.76043959561E+02  0.90919052309E+02 -0.15358372063E+03  0.19400236365E+03  0.00000000000E+00 0.  1.
         -3    1    6    6    0  502 -0.62808137618E+02 -0.13368664017E+03  0.40156931620E+02  0.15306717176E+03  0.00000000000E+00 0.  1.
<mgrwt>
<rscale>  0 0.17834187E+04</rscale>
<asrwt>0</asrwt>
<pdfrwt beam="1">  1        1 0.18644154E+00 0.17834187E+04</pdfrwt>
<pdfrwt beam="2">  1       -1 0.10094324E+00 0.17834187E+04</pdfrwt>
<totfact> 0.92331193E+00</totfact>
</mgrwt>
</event>
<event>
12    1  0.1980523E-007  0.1619645E+04  0.7818608E-02  0.8808570E-01
          2   -1    0    0  501    0  0.00000000000E+00  0.00000000000E+00  0.31962679394E+04  0.31962679394E+04  0.00000000000E+00 0. -1.
         -2   -1    0    0    0  501 -0.00000000000E+00 -0.00000000000E+00 -0.20518060565E+03  0.20518060565E+03  0.00000000000E+00 0.  1.
         23    2    1    2    0    0 -0.72910198446E+02  0.45115642460E+03  0.17055584030E+04  0.17680632752E+04  0.90885985761E+02 0.  0.
        254    2    1    2    0    0  0.72910198446E+02 -0.45115642460E+03  0.12855289307E+04  0.16333852699E+04  0.89805611829E+03 0.  0.
        -24    2    4    4    0    0 -0.15107536895E+03  0.20820521746E+03  0.17676011896E+03  0.32187394463E+03  0.78648057153E+02 0.  0.
         24    2    4    4    0    0  0.22398556740E+03 -0.65936164206E+03  0.11087688118E+04  0.13115113252E+04  0.75936611027E+02 0.  0.
         13    1    3    3    0    0 -0.54310514145E+02  0.10876902306E+03  0.51125476300E+03  0.52551095613E+03  0.00000000000E+00 0. -1.
        -13    1    3    3    0    0 -0.18599684301E+02  0.34238740154E+03  0.11943036400E+04  0.12425523190E+04  0.00000000000E+00 0.  1.
          2    1    6    6  502    0  0.17856526353E+03 -0.41959818721E+03  0.69954027174E+03  0.83504777339E+03  0.00000000000E+00 0. -1.
          3    1    5    5  503    0 -0.12458518503E+03  0.13940667920E+03  0.16043981971E+03  0.24636685306E+03  0.00000000000E+00 0. -1.
         -4    1    5    5    0  503 -0.26490183922E+02  0.68798538251E+02  0.16320299251E+02  0.75507091570E+02  0.00000000000E+00 0.  1.
         -1    1    6    6    0  502  0.45420303867E+02 -0.23976345484E+03  0.40922854001E+03  0.47646355185E+03  0.00000000000E+00 0.  1.
<mgrwt>
<rscale>  0 0.16196446E+04</rscale>
<asrwt>0</asrwt>
<pdfrwt beam="1">  1        2 0.49173349E+00 0.16196446E+04</pdfrwt>
<pdfrwt beam="2">  1       -2 0.31566249E-01 0.16196446E+04</pdfrwt>
<totfact> 0.11728621E+01</totfact>
</mgrwt>
</event>
<event>
12    1  0.1980523E-007  0.2383917E+04  0.7818608E-02  0.8445550E-01
         -1   -1    0    0    0  501 -0.00000000000E+00  0.00000000000E+00  0.11450240794E+04  0.11450240794E+04  0.00000000000E+00 0.  1.
          1   -1    0    0  501    0  0.00000000000E+00 -0.00000000000E+00 -0.12408162683E+04  0.12408162683E+04  0.00000000000E+00 0. -1.
         23    2    1    2    0    0  0.10037998356E+04 -0.13024167832E+03  0.84727200136E+02  0.10193524209E+04  0.85578355411E+02 0.  0.
        254    2    1    2    0    0 -0.10037998356E+04  0.13024167832E+03 -0.18051938909E+03  0.13664879268E+04  0.90006944153E+03 0.  0.
        -24    2    4    4    0    0 -0.37335688112E+03  0.38380117724E+03 -0.37098117129E+03  0.65628287316E+03  0.79884139949E+02 0.  0.
         24    2    4    4    0    0 -0.63044295446E+03 -0.25355949892E+03  0.19046178220E+03  0.71020505364E+03  0.79779630365E+02 0.  0.
         11    1    3    3    0    0  0.24006042037E+03 -0.63859972728E+01  0.47102021804E+02  0.24472103883E+03  0.00000000000E+00 0.  1.
        -11    1    3    3    0    0  0.76373941521E+03 -0.12385568105E+03  0.37625178332E+02  0.77463138209E+03  0.00000000000E+00 0. -1.
          4    1    6    6  502    0 -0.10196049632E+03 -0.70893482962E+02  0.21148301581E+02  0.12597253429E+03  0.00000000000E+00 0. -1.
          3    1    5    5  503    0 -0.67392153632E+02  0.82938340731E+02 -0.39047734397E+02  0.11377695855E+03  0.00000000000E+00 0. -1.
         -4    1    5    5    0  503 -0.30596472749E+03  0.30086283651E+03 -0.33193343690E+03  0.54250591462E+03  0.00000000000E+00 0.  1.
         -3    1    6    6    0  502 -0.52848245814E+03 -0.18266601596E+03  0.16931348062E+03  0.58423251935E+03  0.00000000000E+00 0.  1.
<mgrwt>
<rscale>  0 0.23839165E+04</rscale>
<asrwt>0</asrwt>
<pdfrwt beam="1">  1        1 0.19089481E+00 0.23839165E+04</pdfrwt>
<pdfrwt beam="2">  1       -1 0.17615755E+00 0.23839165E+04</pdfrwt>
<totfact> 0.19866143E+00</totfact>
</mgrwt>
</event>
<event>
12    1  0.1980523E-007  0.4955669E+04  0.7818608E-02  0.7835382E-01
          2   -1    0    0  501    0  0.00000000000E+00  0.00000000000E+00  0.22500571841E+04  0.22500571841E+04  0.00000000000E+00 0. -1.
         -2   -1    0    0    0  501 -0.00000000000E+00 -0.00000000000E+00 -0.27286704693E+04  0.27286704693E+04  0.00000000000E+00 0.  1.
         23    2    1    2    0    0 -0.67615582977E+03  0.22886194074E+04 -0.16045431694E+02  0.23882040199E+04  0.91079561705E+02 0.  0.
        254    2    1    2    0    0  0.67615582977E+03 -0.22886194074E+04 -0.46256785350E+03  0.25905236334E+04  0.89547650906E+03 0.  0.
        -24    2    4    4    0    0 -0.81507934730E+02 -0.84746238994E+03  0.11136752626E+03  0.86230259118E+03  0.79542360105E+02 0.  0.
         24    2    4    4    0    0  0.75766376450E+03 -0.14411570175E+04 -0.57393537977E+03  0.17282210423E+04  0.79738458616E+02 0.  0.
         11    1    3    3    0    0 -0.21998272167E+03  0.68205342722E+03 -0.42628847954E+02  0.71791816671E+03  0.00000000000E+00 0. -1.
        -11    1    3    3    0    0 -0.45617310810E+03  0.16065659802E+04  0.26583416260E+02  0.16702858532E+04  0.00000000000E+00 0.  1.
          2    1    6    6  502    0  0.11956999104E+02 -0.49639749169E+02 -0.11899985703E+02  0.52427895103E+02  0.00000000000E+00 0. -1.
          3    1    5    5  503    0 -0.36460238114E+02 -0.10753492112E+03  0.21684316647E+02  0.11559981752E+03  0.00000000000E+00 0. -1.
         -4    1    5    5    0  503 -0.45047696616E+02 -0.73992746883E+03  0.89683209618E+02  0.74670277365E+03  0.00000000000E+00 0.  1.
         -1    1    6    6    0  502  0.74570676540E+03 -0.13915172683E+04 -0.56203539406E+03  0.16757931472E+04  0.00000000000E+00 0.  1.
<mgrwt>
<rscale>  0 0.49556693E+04</rscale>
<asrwt>0</asrwt>
<pdfrwt beam="1">  1        2 0.34616264E+00 0.49556693E+04</pdfrwt>
<pdfrwt beam="2">  1       -2 0.41979546E+00 0.49556693E+04</pdfrwt>
<totfact> 0.19467206E-02</totfact>
</mgrwt>
</event>
<event>
12    1  0.1980523E-007  0.3087877E+04  0.7818608E-02  0.8219073E-01
         -2   -1    0    0    0  501 -0.00000000000E+00  0.00000000000E+00  0.19828518248E+04  0.19828518248E+04  0.00000000000E+00 0. -1.
          2   -1    0    0  501    0  0.00000000000E+00 -0.00000000000E+00 -0.12021804144E+04  0.12021804144E+04  0.00000000000E+00 0.  1.
         23    2    1    2    0    0  0.86071612459E+03 -0.43434645027E+03  0.14175264237E+04  0.17166110867E+04  0.88788373576E+02 0.  0.
        254    2    1    2    0    0 -0.86071612459E+03  0.43434645027E+03 -0.63685501327E+03  0.14684211525E+04  0.90619384636E+03 0.  0.
        -24    2    4    4    0    0 -0.74541127081E+03  0.33439651824E+03 -0.85796252251E+03  0.11874741845E+04  0.80847107821E+02 0.  0.
         24    2    4    4    0    0 -0.11530485378E+03  0.99949932037E+02  0.22110750924E+03  0.28094696796E+03  0.82203831687E+02 0.  0.
         13    1    3    3    0    0  0.31884158778E+03 -0.20382826859E+03  0.59066942077E+03  0.70149574896E+03  0.00000000000E+00 0. -1.
        -13    1    3    3    0    0  0.54187453681E+03 -0.23051818168E+03  0.82685700289E+03  0.10151153378E+04  0.00000000000E+00 0.  1.
          4    1    6    6  502    0 -0.76732100983E+02  0.56085622273E+02  0.19507469462E+03  0.21699665626E+03  0.00000000000E+00 0. -1.
          1    1    5    5  503    0 -0.59912476251E+03  0.27686696172E+03 -0.64554551706E+03  0.92321980597E+03  0.00000000000E+00 0. -1.
         -2    1    5    5    0  503 -0.14628650830E+03  0.57529556514E+02 -0.21241700546E+03  0.26425437857E+03  0.00000000000E+00 0.  1.
         -3    1    6    6    0  502 -0.38572752797E+02  0.43864309763E+02  0.26032814619E+02  0.63950311698E+02  0.00000000000E+00 0.  1.
<mgrwt>
<rscale>  0 0.30878767E+04</rscale>
<asrwt>0</asrwt>
<pdfrwt beam="1">  1        2 0.18495083E+00 0.30878767E+04</pdfrwt>
<pdfrwt beam="2">  1       -2 0.30505413E+00 0.30878767E+04</pdfrwt>
<totfact> 0.47491584E-01</totfact>
</mgrwt>
</event>
<event>
12    1  0.1980523E-007  0.2638246E+04  0.7818608E-02  0.8355325E-01
         -2   -1    0    0    0  501 -0.00000000000E+00  0.00000000000E+00  0.58306210848E+03  0.58306210848E+03  0.00000000000E+00 0.  1.
          2   -1    0    0  501    0  0.00000000000E+00 -0.00000000000E+00 -0.29843923557E+04  0.29843923557E+04  0.00000000000E+00 0. -1.
         23    2    1    2    0    0 -0.44262926505E+03  0.17061205357E+03  0.37499175597E+03  0.61166514964E+03  0.92121111196E+02 0.  0.
        254    2    1    2    0    0  0.44262926505E+03 -0.17061205357E+03 -0.27763220031E+04  0.29557893145E+04  0.89649175539E+03 0.  0.
        -24    2    4    4    0    0  0.10757650713E+02  0.24672035680E+03 -0.25994024931E+03  0.36753502183E+03  0.80786122257E+02 0.  0.
         24    2    4    4    0    0  0.43187161434E+03 -0.41733241038E+03 -0.25163817538E+04  0.25882542927E+04  0.78763700306E+02 0.  0.
         13    1    3    3    0    0 -0.44350719890E+03  0.15937936580E+03  0.37073614126E+03  0.59962130062E+03  0.00000000000E+00 0.  1.
        -13    1    3    3    0    0  0.87793385100E+00  0.11232687777E+02  0.42556147085E+01  0.12043849015E+02  0.00000000000E+00 0. -1.
          2    1    6    6  502    0  0.38843669853E+03 -0.36755416574E+03 -0.21201758680E+04  0.21865783417E+04  0.00000000000E+00 0. -1.
          1    1    5    5  503    0 -0.36042752081E+01  0.16594589388E+03 -0.11822290674E+03  0.20378342959E+03  0.00000000000E+00 0. -1.
         -2    1    5    5    0  503  0.14361925921E+02  0.80774462921E+02 -0.14171734257E+03  0.16375159224E+03  0.00000000000E+00 0.  1.
         -1    1    6    6    0  502  0.43434915805E+02 -0.49778244641E+02 -0.39620588587E+03  0.40167595093E+03  0.00000000000E+00 0.  1.
<mgrwt>
<rscale>  0 0.26382465E+04</rscale>
<asrwt>0</asrwt>
<pdfrwt beam="1">  1        2 0.45913728E+00 0.26382465E+04</pdfrwt>
<pdfrwt beam="2">  1       -2 0.89701863E-01 0.26382465E+04</pdfrwt>
<totfact> 0.16719222E+00</totfact>
</mgrwt>
</event>
<event>
12    1  0.1980523E-007  0.3037016E+04  0.7818608E-02  0.8233239E-01
          2   -1    0    0  501    0  0.00000000000E+00  0.00000000000E+00  0.36375628605E+04  0.36375628605E+04  0.00000000000E+00 0. -1.
         -2   -1    0    0    0  501 -0.00000000000E+00 -0.00000000000E+00 -0.63390419330E+03  0.63390419330E+03  0.00000000000E+00 0.  1.
         23    2    1    2    0    0 -0.69339897420E+03  0.10787782591E+04  0.64145748629E+03  0.14366846406E+04  0.89612387244E+02 0.  0.
        254    2    1    2    0    0  0.69339897420E+03 -0.10787782591E+04  0.23622011809E+04  0.28347824132E+04  0.90079533829E+03 0.  0.
        -24    2    4    4    0    0  0.60356782990E+03 -0.18233798565E+03  0.12373158400E+04  0.13912935176E+04  0.84887559279E+02 0.  0.
         24    2    4    4    0    0  0.89831144297E+02 -0.89644027347E+03  0.11248853408E+04  0.14434888956E+04  0.81353324378E+02 0.  0.
         11    1    3    3    0    0 -0.16833816782E+03  0.25986168656E+03  0.19855701164E+03  0.36781887085E+03  0.00000000000E+00 0. -1.
        -11    1    3    3    0    0 -0.52506080638E+03  0.81891657257E+03  0.44290047465E+03  0.10688657697E+04  0.00000000000E+00 0.  1.
          2    1    6    6  502    0 -0.83427831844E+01 -0.30541463560E+02  0.56539984367E+02  0.64800870827E+02  0.00000000000E+00 0. -1.
          3    1    5    5  503    0  0.98523671136E+02 -0.43679865118E+01  0.23622474810E+03  0.25598461808E+03  0.00000000000E+00 0. -1.
         -4    1    5    5    0  503  0.50504415876E+03 -0.17796999914E+03  0.10010910919E+04  0.11353088995E+04  0.00000000000E+00 0.  1.
         -1    1    6    6    0  502  0.98173927481E+02 -0.86589880991E+03  0.10683453565E+04  0.13786880248E+04  0.00000000000E+00 0.  1.
<mgrwt>
<rscale>  0 0.30370159E+04</rscale>
<asrwt>0</asrwt>
<pdfrwt beam="1">  1        2 0.55962504E+00 0.30370159E+04</pdfrwt>
<pdfrwt beam="2">  1       -2 0.97523724E-01 0.30370159E+04</pdfrwt>
<totfact> 0.48463623E-01</totfact>
</mgrwt>
</event>
<event>
12    1  0.1980523E-007  0.1807238E+04  0.7818608E-02  0.8702460E-01
         -1   -1    0    0    0  501 -0.00000000000E+00  0.00000000000E+00  0.52241733945E+03  0.52241733945E+03  0.00000000000E+00 0.  1.
          1   -1    0    0  501    0  0.00000000000E+00 -0.00000000000E+00 -0.15629788253E+04  0.15629788253E+04  0.00000000000E+00 0. -1.
         23    2    1    2    0    0 -0.33020070242E+03 -0.12424161751E+03 -0.10585417891E+04  0.11188432679E+04  0.82650198665E+02 0.  0.
        254    2    1    2    0    0  0.33020070242E+03  0.12424161751E+03  0.17980303343E+02  0.96655289682E+03  0.89968479350E+03 0.  0.
        -24    2    4    4    0    0 -0.17494685936E+03 -0.10107131988E+03 -0.26279243117E+03  0.34109108309E+03  0.80383143678E+02 0.  0.
         24    2    4    4    0    0  0.50514756177E+03  0.22531293739E+03  0.28077273451E+03  0.62546181373E+03  0.80182124361E+02 0.  0.
         11    1    3    3    0    0 -0.20020597917E+03 -0.96202647012E+02 -0.76477510370E+03  0.79637826605E+03  0.00000000000E+00 0.  1.
        -11    1    3    3    0    0 -0.12999472325E+03 -0.28038970498E+02 -0.29376668544E+03  0.32246500184E+03  0.00000000000E+00 0. -1.
          2    1    6    6  502    0  0.37569121882E+03  0.20018687814E+03  0.19567364296E+03  0.46851558419E+03  0.00000000000E+00 0. -1.
          3    1    5    5  503    0 -0.16993843087E+03 -0.11101367292E+03 -0.23155879696E+03  0.30793275615E+03  0.00000000000E+00 0. -1.
         -4    1    5    5    0  503 -0.50084284860E+01  0.99423530418E+01 -0.31233634204E+02  0.33158326940E+02  0.00000000000E+00 0.  1.
         -1    1    6    6    0  502  0.12945634295E+03  0.25126059248E+02  0.85099091547E+02  0.15694622953E+03  0.00000000000E+00 0.  1.
<mgrwt>
<rscale>  0 0.18072379E+04</rscale>
<asrwt>0</asrwt>
<pdfrwt beam="1">  1        1 0.24045828E+00 0.18072379E+04</pdfrwt>
<pdfrwt beam="2">  1       -1 0.80371899E-01 0.18072379E+04</pdfrwt>
<totfact> 0.86183203E+00</totfact>
</mgrwt>
</event>
<event>
12    1  0.1980523E-007  0.3037046E+04  0.7818608E-02  0.8233231E-01
          2   -1    0    0  501    0  0.00000000000E+00  0.00000000000E+00  0.97287573540E+03  0.97287573540E+03  0.00000000000E+00 0. -1.
         -2   -1    0    0    0  501 -0.00000000000E+00 -0.00000000000E+00 -0.23702014419E+04  0.23702014419E+04  0.00000000000E+00 0.  1.
         23    2    1    2    0    0 -0.78455413439E+02 -0.11706460356E+04 -0.14451024476E+04  0.18636862407E+04  0.91858189887E+02 0.  0.
        254    2    1    2    0    0  0.78455413439E+02  0.11706460356E+04  0.47776741068E+02  0.14793909367E+04  0.89985973011E+03 0.  0.
        -24    2    4    4    0    0 -0.67059292800E+01  0.11206366329E+04 -0.25225242103E+03  0.11513876771E+04  0.78682060316E+02 0.  0.
         24    2    4    4    0    0  0.85161342719E+02  0.50009402752E+02  0.30002916210E+03  0.32800325957E+03  0.88403877324E+02 0.  0.
         11    1    3    3    0    0 -0.22722151485E+02 -0.72977974970E+03 -0.84050042630E+03  0.11133443968E+04  0.00000000000E+00 0. -1.
        -11    1    3    3    0    0 -0.55733261954E+02 -0.44086628591E+03 -0.60460202128E+03  0.75034184388E+03  0.00000000000E+00 0.  1.
          4    1    6    6  502    0 -0.16264864882E+01  0.12634718893E+02 -0.71952162234E+00  0.12759282549E+02  0.00000000000E+00 0. -1.
          1    1    5    5  503    0 -0.78441148155E+01  0.48609533822E+03 -0.14915332615E+03  0.50852425967E+03  0.00000000000E+00 0. -1.
         -2    1    5    5    0  503  0.11381855355E+01  0.63454129464E+03 -0.10309909488E+03  0.64286341741E+03  0.00000000000E+00 0.  1.
         -3    1    6    6    0  502  0.86787829207E+02  0.37374683858E+02  0.30074868372E+03  0.31524397703E+03  0.00000000000E+00 0.  1.
<mgrwt>
<rscale>  0 0.30370456E+04</rscale>
<asrwt>0</asrwt>
<pdfrwt beam="1">  1        2 0.14967319E+00 0.30370456E+04</pdfrwt>
<pdfrwt beam="2">  1       -2 0.36464637E+00 0.30370456E+04</pdfrwt>
<totfact> 0.28106785E-01</totfact>
</mgrwt>
</event>
<event>
12    1  0.1980523E-007  0.1789732E+04  0.7818608E-02  0.8711779E-01
          2   -1    0    0  501    0  0.00000000000E+00  0.00000000000E+00  0.51491035803E+03  0.51491035803E+03  0.00000000000E+00 0.  1.
         -2   -1    0    0    0  501 -0.00000000000E+00 -0.00000000000E+00 -0.15551929060E+04  0.15551929060E+04  0.00000000000E+00 0. -1.
         23    2    1    2    0    0 -0.40438945680E+02 -0.99912418588E+02 -0.11482085478E+04  0.11576831561E+04  0.10114158846E+03 0.  0.
        254    2    1    2    0    0  0.40438945680E+02  0.99912418588E+02  0.10792599988E+03  0.91242010791E+03  0.89958025331E+03 0.  0.
        -24    2    4    4    0    0 -0.16520655389E+03  0.42260937669E+03 -0.96297794548E+02  0.47112641304E+03  0.82431432807E+02 0.  0.
         24    2    4    4    0    0  0.20564549957E+03 -0.32269695810E+03  0.20422379443E+03  0.44129369487E+03  0.81298023690E+02 0.  0.
         11    1    3    3    0    0  0.37129258743E+01  0.18451324608E+02 -0.89051173345E+02  0.91018397440E+02  0.00000000000E+00 0.  1.
        -11    1    3    3    0    0 -0.44151871555E+02 -0.11836374320E+03 -0.10591573745E+04  0.10666647587E+04  0.00000000000E+00 0. -1.
          4    1    6    6  502    0  0.13925638533E+03 -0.27861865024E+03  0.16454399256E+03  0.35227179650E+03  0.00000000000E+00 0. -1.
          3    1    5    5  503    0 -0.16403058799E+03  0.37605376514E+03 -0.10558312028E+03  0.42363930809E+03  0.00000000000E+00 0. -1.
         -4    1    5    5    0  503 -0.11759659012E+01  0.46555611546E+02  0.92853257296E+01  0.47487104946E+02  0.00000000000E+00 0.  1.
         -3    1    6    6    0  502  0.66389114239E+02 -0.44078307860E+02  0.39679801865E+02  0.89021898370E+02  0.00000000000E+00 0.  1.
<mgrwt>
<rscale>  0 0.17897318E+04</rscale>
<asrwt>0</asrwt>
<pdfrwt beam="1">  1        2 0.79216978E-01 0.17897318E+04</pdfrwt>
<pdfrwt beam="2">  1       -2 0.23926045E+00 0.17897318E+04</pdfrwt>
<totfact> 0.42072884E+00</totfact>
</mgrwt>
</event>
<event>
12    1  0.1980523E-007  0.1915268E+04  0.7818608E-02  0.8647294E-01
         -2   -1    0    0    0  501 -0.00000000000E+00  0.00000000000E+00  0.83117145650E+03  0.83117145650E+03  0.00000000000E+00 0.  1.
          2   -1    0    0  501    0  0.00000000000E+00 -0.00000000000E+00 -0.11033378771E+04  0.11033378771E+04  0.00000000000E+00 0. -1.
         23    2    1    2    0    0 -0.28615138185E+03  0.68392653190E+03 -0.61786895407E+02  0.74933411109E+03  0.89698802883E+02 0.  0.
        254    2    1    2    0    0  0.28615138185E+03 -0.68392653190E+03 -0.21037952521E+03  0.11851752225E+04  0.90041248831E+03 0.  0.
        -24    2    4    4    0    0 -0.64413513404E+02 -0.76713547289E+03 -0.25119728519E+03  0.81384620160E+03  0.81238102399E+02 0.  0.
         24    2    4    4    0    0  0.35056489525E+03  0.83208940999E+02  0.40817759989E+02  0.37132902093E+03  0.79997991277E+02 0.  0.
         13    1    3    3    0    0 -0.24431899787E+03  0.48652204172E+03 -0.32028875599E+02  0.54536347391E+03  0.00000000000E+00 0. -1.
        -13    1    3    3    0    0 -0.41832383976E+02  0.19740449018E+03 -0.29758019809E+02  0.20397063719E+03  0.00000000000E+00 0.  1.
          4    1    6    6  502    0  0.10994786516E+02 -0.10539167389E+02 -0.51316159036E+01  0.16071492201E+02  0.00000000000E+00 0. -1.
          1    1    5    5  503    0  0.16584282610E+02 -0.24356554052E+03 -0.87457227559E+02  0.25932215025E+03  0.00000000000E+00 0. -1.
         -2    1    5    5    0  503 -0.80997796015E+02 -0.52356993238E+03 -0.16374005764E+03  0.55452405135E+03  0.00000000000E+00 0.  1.
         -3    1    6    6    0  502  0.33957010874E+03  0.93748108388E+02  0.45949375893E+02  0.35525752873E+03  0.00000000000E+00 0.  1.
<mgrwt>
<rscale>  0 0.19152681E+04</rscale>
<asrwt>0</asrwt>
<pdfrwt beam="1">  1        2 0.16974429E+00 0.19152681E+04</pdfrwt>
<pdfrwt beam="2">  1       -2 0.12787253E+00 0.19152681E+04</pdfrwt>
<totfact> 0.91851591E+00</totfact>
</mgrwt>
</event>
<event>
12    1  0.1980523E-007  0.1824371E+04  0.7818608E-02  0.8693446E-01
          1   -1    0    0  501    0  0.00000000000E+00  0.00000000000E+00  0.99704643806E+03  0.99704643806E+03  0.00000000000E+00 0. -1.
         -1   -1    0    0    0  501 -0.00000000000E+00 -0.00000000000E+00 -0.83454719257E+03  0.83454719257E+03  0.00000000000E+00 0.  1.
         23    2    1    2    0    0  0.58793758749E+03  0.34173890307E+03 -0.22320061316E+00  0.68604702361E+03  0.90578055438E+02 0.  0.
        254    2    1    2    0    0 -0.58793758749E+03 -0.34173890307E+03  0.16272244611E+03  0.11455466070E+04  0.90738214095E+03 0.  0.
        -24    2    4    4    0    0 -0.31287815170E+03 -0.11821440384E+03  0.52835376814E+03  0.63036239100E+03  0.79571707198E+02 0.  0.
         24    2    4    4    0    0 -0.27505943579E+03 -0.22352449923E+03 -0.36563132204E+03  0.51518421601E+03  0.78151249510E+02 0.  0.
         11    1    3    3    0    0  0.10518363547E+03  0.68837263679E+02  0.34668173140E+02  0.13039957159E+03  0.00000000000E+00 0. -1.
        -11    1    3    3    0    0  0.48275395202E+03  0.27290163939E+03 -0.34891373754E+02  0.55564745202E+03  0.00000000000E+00 0.  1.
          2    1    6    6  502    0 -0.16669635216E+03 -0.99672255756E+02 -0.23632382368E+03  0.30589406995E+03  0.00000000000E+00 0. -1.
          3    1    5    5  503    0 -0.25216854281E+03 -0.11581702250E+03  0.38424218244E+03  0.47396688856E+03  0.00000000000E+00 0. -1.
         -4    1    5    5    0  503 -0.60709608894E+02 -0.23973813367E+01  0.14411158571E+03  0.15639550244E+03  0.00000000000E+00 0.  1.
         -1    1    6    6    0  502 -0.10836308363E+03 -0.12385224348E+03 -0.12930749835E+03  0.20929014606E+03  0.00000000000E+00 0.  1.
<mgrwt>
<rscale>  0 0.18243709E+04</rscale>
<asrwt>0</asrwt>
<pdfrwt beam="1">  1        1 0.15339176E+00 0.18243709E+04</pdfrwt>
<pdfrwt beam="2">  1       -1 0.12839188E+00 0.18243709E+04</pdfrwt>
<totfact> 0.74974064E+00</totfact>
</mgrwt>
</event>
<event>
12    1  0.1980523E-007  0.2120541E+04  0.7818608E-02  0.8552248E-01
          2   -1    0    0  501    0  0.00000000000E+00  0.00000000000E+00  0.18019362473E+04  0.18019362473E+04  0.00000000000E+00 0.  1.
         -2   -1    0    0    0  501 -0.00000000000E+00 -0.00000000000E+00 -0.62386994743E+03  0.62386994743E+03  0.00000000000E+00 0. -1.
         23    2    1    2    0    0  0.82310913256E+03 -0.62390857932E+02  0.79469115826E+03  0.11495332410E+04  0.92148639572E+02 0.  0.
        254    2    1    2    0    0 -0.82310913256E+03  0.62390857932E+02  0.38337514158E+03  0.12762729537E+04  0.89470380017E+03 0.  0.
        -24    2    4    4    0    0 -0.76669514882E+03  0.28260952098E+03 -0.29480146650E+01  0.82078618580E+03  0.77405939247E+02 0.  0.
         24    2    4    4    0    0 -0.56413983735E+02 -0.22021866305E+03  0.38632315624E+03  0.45548676795E+03  0.80893866316E+02 0.  0.
         13    1    3    3    0    0  0.68017799743E+03 -0.22913364225E+02  0.62280753139E+03  0.92252715494E+03  0.00000000000E+00 0. -1.
        -13    1    3    3    0    0  0.14293113513E+03 -0.39477493707E+02  0.17188362687E+03  0.22700608601E+03  0.00000000000E+00 0.  1.
          4    1    6    6  502    0 -0.19373148669E+01 -0.15441199692E+03  0.22425856832E+03  0.27228426956E+03  0.00000000000E+00 0. -1.
          3    1    5    5  503    0 -0.68848068681E+03  0.27350815953E+03  0.10558700890E+02  0.74089395705E+03  0.00000000000E+00 0. -1.
         -4    1    5    5    0  503 -0.78214462018E+02  0.91013614517E+01 -0.13506715555E+02  0.79892228746E+02  0.00000000000E+00 0.  1.
         -3    1    6    6    0  502 -0.54476668868E+02 -0.65806666129E+02  0.16206458792E+03  0.18320249839E+03  0.00000000000E+00 0.  1.
<mgrwt>
<rscale>  0 0.21205413E+04</rscale>
<asrwt>0</asrwt>
<pdfrwt beam="1">  1        2 0.27722096E+00 0.21205413E+04</pdfrwt>
<pdfrwt beam="2">  1       -2 0.95979992E-01 0.21205413E+04</pdfrwt>
<totfact> 0.72051417E+00</totfact>
</mgrwt>
</event>
<event>
12    1  0.1980523E-007  0.1937512E+04  0.7818608E-02  0.8636406E-01
         -2   -1    0    0    0  501 -0.00000000000E+00  0.00000000000E+00  0.23508470264E+04  0.23508470264E+04  0.00000000000E+00 0. -1.
          2   -1    0    0  501    0  0.00000000000E+00 -0.00000000000E+00 -0.39921298841E+03  0.39921298841E+03  0.00000000000E+00 0.  1.
         23    2    1    2    0    0 -0.59069362264E+03  0.10607816287E+03  0.14244604093E+04  0.15483906832E+04  0.90855478420E+02 0.  0.
        254    2    1    2    0    0  0.59069362264E+03 -0.10607816287E+03  0.52717362879E+03  0.12016693316E+04  0.89773359923E+03 0.  0.
        -24    2    4    4    0    0  0.77149642495E+03 -0.24642108614E+03  0.29277547582E+03  0.86484806621E+03  0.79464539149E+02 0.  0.
         24    2    4    4    0    0 -0.18080280231E+03  0.14034292327E+03  0.23439815297E+03  0.33682126541E+03  0.78232226622E+02 0.  0.
         13    1    3    3    0    0 -0.36488213186E+03  0.88598128313E+02  0.78939457327E+03  0.87414666435E+03  0.00000000000E+00 0.  1.
        -13    1    3    3    0    0 -0.22581149078E+03  0.17480034561E+02  0.63506583598E+03  0.67424401889E+03  0.00000000000E+00 0. -1.
          2    1    6    6  502    0 -0.16610720970E+03  0.11121703329E+03  0.16161344001E+03  0.25705979382E+03  0.00000000000E+00 0. -1.
          1    1    5    5  503    0  0.16980137905E+03 -0.70978206555E+02  0.98137591755E+02  0.20856989487E+03  0.00000000000E+00 0. -1.
         -2    1    5    5    0  503  0.60169504590E+03 -0.17544287959E+03  0.19463788407E+03  0.65627817134E+03  0.00000000000E+00 0.  1.
         -1    1    6    6    0  502 -0.14695592608E+02  0.29125889982E+02  0.72784712957E+02  0.79761471586E+02  0.00000000000E+00 0.  1.
<mgrwt>
<rscale>  0 0.19375125E+04</rscale>
<asrwt>0</asrwt>
<pdfrwt beam="1">  1        2 0.61417384E-01 0.19375125E+04</pdfrwt>
<pdfrwt beam="2">  1       -2 0.36166876E+00 0.19375125E+04</pdfrwt>
<totfact> 0.97951160E-01</totfact>
</mgrwt>
</event>
<event>
12    1  0.1980523E-007  0.1461267E+04  0.7818608E-02  0.8910626E-01
          1   -1    0    0  501    0  0.00000000000E+00  0.00000000000E+00  0.40910600278E+03  0.40910600278E+03  0.00000000000E+00 0. -1.
         -1   -1    0    0    0  501 -0.00000000000E+00 -0.00000000000E+00 -0.13048586838E+04  0.13048586838E+04  0.00000000000E+00 0.  1.
         23    2    1    2    0    0  0.91465408005E+02  0.42963381618E+03 -0.37153402457E+03  0.58242507505E+03  0.90720999600E+02 0.  0.
        254    2    1    2    0    0 -0.91465408005E+02 -0.42963381618E+03 -0.52421865639E+03  0.11315396115E+04  0.90145746199E+03 0.  0.
        -24    2    4    4    0    0 -0.16575038789E+02  0.13761097447E+02  0.23361728805E+03  0.24681705599E+03  0.76664999412E+02 0.  0.
         24    2    4    4    0    0 -0.74890369216E+02 -0.44339491363E+03 -0.75783594445E+03  0.88472255550E+03  0.78810308204E+02 0.  0.
         11    1    3    3    0    0  0.15873518645E+02  0.20358864316E+02 -0.20731611415E+01  0.25898840660E+02  0.00000000000E+00 0. -1.
        -11    1    3    3    0    0  0.75591889360E+02  0.40927495186E+03 -0.36946086343E+03  0.55652623439E+03  0.00000000000E+00 0.  1.
          2    1    6    6  502    0 -0.57481122389E+02 -0.31687560351E+03 -0.60650563737E+03  0.68670467865E+03  0.00000000000E+00 0. -1.
          3    1    5    5  503    0 -0.28785970974E+02 -0.24352629746E+02  0.14032612645E+03  0.14530349089E+03  0.00000000000E+00 0. -1.
         -4    1    5    5    0  503  0.12210932185E+02  0.38113727192E+02  0.93291161605E+02  0.10151356510E+03  0.00000000000E+00 0.  1.
         -1    1    6    6    0  502 -0.17409246828E+02 -0.12651931012E+03 -0.15133030708E+03  0.19801787684E+03  0.00000000000E+00 0.  1.
<mgrwt>
<rscale>  0 0.14612673E+04</rscale>
<asrwt>0</asrwt>
<pdfrwt beam="1">  1        1 0.62939385E-01 0.14612673E+04</pdfrwt>
<pdfrwt beam="2">  1       -1 0.20074749E+00 0.14612673E+04</pdfrwt>
<totfact> 0.84009550E+00</totfact>
</mgrwt>
</event>
<event>
12    1  0.1980523E-007  0.1296053E+04  0.7818608E-02  0.9032701E-01
         -2   -1    0    0    0  501 -0.00000000000E+00  0.00000000000E+00  0.41737018701E+03  0.41737018701E+03  0.00000000000E+00 0.  1.
          2   -1    0    0  501    0  0.00000000000E+00 -0.00000000000E+00 -0.10061538815E+04  0.10061538815E+04  0.00000000000E+00 0. -1.
         23    2    1    2    0    0 -0.15548429875E+03 -0.28164272451E+02  0.15918350893E+03  0.24214089382E+03  0.91237215793E+02 0.  0.
        254    2    1    2    0    0  0.15548429875E+03  0.28164272451E+02 -0.74796720344E+03  0.11813831747E+04  0.90069011022E+03 0.  0.
        -24    2    4    4    0    0  0.34778594529E+03 -0.32606876833E+03 -0.28032157619E+03  0.55876310013E+03  0.79750301392E+02 0.  0.
         24    2    4    4    0    0 -0.19230164653E+03  0.35423304078E+03 -0.46764562725E+03  0.62262007457E+03  0.80637175841E+02 0.  0.
         11    1    3    3    0    0 -0.11956651931E+02 -0.21737873187E+02 -0.35489864757E+01  0.25061762929E+02  0.00000000000E+00 0. -1.
        -11    1    3    3    0    0 -0.14352764682E+03 -0.64263992635E+01  0.16273249540E+03  0.21707913089E+03  0.00000000000E+00 0.  1.
          4    1    6    6  502    0 -0.94399968267E+01  0.17102677581E+02 -0.59162988103E+02  0.62304689084E+02  0.00000000000E+00 0. -1.
          1    1    5    5  503    0  0.19833807431E+03 -0.15501982569E+03 -0.10929493775E+03  0.27443491304E+03  0.00000000000E+00 0. -1.
         -2    1    5    5    0  503  0.14944787097E+03 -0.17104894265E+03 -0.17102663844E+03  0.28432818709E+03  0.00000000000E+00 0.  1.
         -3    1    6    6    0  502 -0.18286164971E+03  0.33713036320E+03 -0.40848263915E+03  0.56031538548E+03  0.00000000000E+00 0.  1.
<mgrwt>
<rscale>  0 0.12960534E+04</rscale>
<asrwt>0</asrwt>
<pdfrwt beam="1">  1        2 0.15479291E+00 0.12960534E+04</pdfrwt>
<pdfrwt beam="2">  1       -2 0.64210798E-01 0.12960534E+04</pdfrwt>
<totfact> 0.54857355E+01</totfact>
</mgrwt>
</event>
<event>
12    1  0.1980523E-007  0.5911523E+04  0.7818608E-02  0.7701470E-01
          1   -1    0    0  501    0  0.00000000000E+00  0.00000000000E+00  0.21633024718E+04  0.21633024718E+04  0.00000000000E+00 0.  1.
         -1   -1    0    0    0  501 -0.00000000000E+00 -0.00000000000E+00 -0.40385137152E+04  0.40385137152E+04  0.00000000000E+00 0. -1.
         23    2    1    2    0    0 -0.81180730105E+03  0.27392765825E+04 -0.48762601707E+03  0.28996721019E+04  0.87475004227E+02 0.  0.
        254    2    1    2    0    0  0.81180730105E+03 -0.27392765825E+04 -0.13875852263E+04  0.33021440851E+04  0.90338004668E+03 0.  0.
        -24    2    4    4    0    0 -0.11045495826E+03 -0.52321923814E+03 -0.26115917132E+02  0.54144122679E+03  0.80733462578E+02 0.  0.
         24    2    4    4    0    0  0.92226225932E+03 -0.22160573444E+04 -0.13614693091E+04  0.27607028583E+04  0.80023517592E+02 0.  0.
         13    1    3    3    0    0 -0.42325026450E+03  0.12860412506E+04 -0.24786137225E+03  0.13764004303E+04  0.00000000000E+00 0.  1.
        -13    1    3    3    0    0 -0.38855703656E+03  0.14532353319E+04 -0.23976464482E+03  0.15232716716E+04  0.00000000000E+00 0. -1.
          2    1    6    6  502    0  0.88935466011E+03 -0.20900940454E+04 -0.12894120965E+04  0.26119012969E+04  0.00000000000E+00 0. -1.
          3    1    5    5  503    0 -0.87922859463E+02 -0.48735673357E+03 -0.77701337034E+01  0.49528516024E+03  0.00000000000E+00 0. -1.
         -2    1    5    5    0  503 -0.22532098799E+02 -0.35862504561E+02 -0.18345783428E+02  0.46156066549E+02  0.00000000000E+00 0.  1.
         -1    1    6    6    0  502  0.32907599203E+02 -0.12596329899E+03 -0.72057212673E+02  0.14880156140E+03  0.00000000000E+00 0.  1.
<mgrwt>
<rscale>  0 0.59115232E+04</rscale>
<asrwt>0</asrwt>
<pdfrwt beam="1">  1        1 0.33281577E+00 0.59115232E+04</pdfrwt>
<pdfrwt beam="2">  1       -1 0.62130980E+00 0.59115232E+04</pdfrwt>
<totfact> 0.58074116E-04</totfact>
</mgrwt>
</event>
<event>
12    1  0.1980523E-007  0.1939049E+04  0.7818608E-02  0.8635660E-01
          1   -1    0    0  501    0  0.00000000000E+00  0.00000000000E+00  0.17238248868E+04  0.17238248868E+04  0.00000000000E+00 0. -1.
         -1   -1    0    0    0  501 -0.00000000000E+00 -0.00000000000E+00 -0.54528586090E+03  0.54528586090E+03  0.00000000000E+00 0.  1.
         23    2    1    2    0    0  0.20167922834E+03 -0.71132967070E+03  0.27248156179E+03  0.79213896058E+03  0.81077245831E+02 0.  0.
        254    2    1    2    0    0 -0.20167922834E+03  0.71132967070E+03  0.90605746409E+03  0.14769717871E+04  0.90213143173E+03 0.  0.
        -24    2    4    4    0    0 -0.45861082858E+03  0.53746011949E+03  0.26231795811E+03  0.75791702041E+03  0.80251022050E+02 0.  0.
         24    2    4    4    0    0  0.25693160024E+03  0.17386955120E+03  0.64373950598E+03  0.71905476670E+03  0.79967105173E+02 0.  0.
         11    1    3    3    0    0  0.14981863850E+03 -0.41860821566E+03  0.19095616686E+03  0.48388296139E+03  0.00000000000E+00 0. -1.
        -11    1    3    3    0    0  0.51860589839E+02 -0.29272145503E+03  0.81525394931E+02  0.30825599919E+03  0.00000000000E+00 0.  1.
          4    1    6    6  502    0  0.88156087882E+02  0.72345846004E+02  0.32439972158E+03  0.34386130435E+03  0.00000000000E+00 0. -1.
          1    1    5    5  503    0 -0.29702665300E+03  0.36762712292E+03  0.13688711184E+03  0.49204940350E+03  0.00000000000E+00 0. -1.
         -2    1    5    5    0  503 -0.16158417558E+03  0.16983299657E+03  0.12543084627E+03  0.26586761691E+03  0.00000000000E+00 0.  1.
         -3    1    6    6    0  502  0.16877551236E+03  0.10152370520E+03  0.31933978440E+03  0.37519346235E+03  0.00000000000E+00 0.  1.
<mgrwt>
<rscale>  0 0.19390486E+04</rscale>
<asrwt>0</asrwt>
<pdfrwt beam="1">  1        1 0.26520383E+00 0.19390486E+04</pdfrwt>
<pdfrwt beam="2">  1       -1 0.83890133E-01 0.19390486E+04</pdfrwt>
<totfact> 0.60298873E+00</totfact>
</mgrwt>
</event>
<event>
12    1  0.1980523E-007  0.2919262E+04  0.7818608E-02  0.8267169E-01
          2   -1    0    0  501    0  0.00000000000E+00  0.00000000000E+00  0.24965083578E+04  0.24965083578E+04  0.00000000000E+00 0. -1.
         -2   -1    0    0    0  501 -0.00000000000E+00 -0.00000000000E+00 -0.85340110955E+03  0.85340110955E+03  0.00000000000E+00 0.  1.
         23    2    1    2    0    0 -0.11447592356E+04 -0.49297235682E+03  0.22123125524E+03  0.12691973639E+04  0.91778145538E+02 0.  0.
        254    2    1    2    0    0  0.11447592356E+04  0.49297235682E+03  0.14218759930E+04  0.20807121035E+04  0.86841007937E+03 0.  0.
        -24    2    4    4    0    0  0.41947301533E+03 -0.22919643416E+03  0.36056974643E+03  0.60405286536E+03  0.79879322007E+02 0.  0.
         24    2    4    4    0    0  0.72528622031E+03  0.72216879098E+03  0.10613062466E+04  0.14766592382E+04  0.81139956288E+02 0.  0.
         13    1    3    3    0    0 -0.30770169997E+03 -0.89214380508E+02  0.61493206203E+02  0.32622224980E+03  0.00000000000E+00 0. -1.
        -13    1    3    3    0    0 -0.83705753566E+03 -0.40375797631E+03  0.15973804904E+03  0.94297511407E+03  0.00000000000E+00 0.  1.
          2    1    6    6  502    0  0.11428301142E+03  0.15293314329E+03  0.17635706107E+03  0.25990568675E+03  0.00000000000E+00 0. -1.
          3    1    5    5  503    0  0.23638764325E+02 -0.58853140047E+01  0.43643072821E+02  0.49981455611E+02  0.00000000000E+00 0. -1.
         -4    1    5    5    0  503  0.39583425100E+03 -0.22331112016E+03  0.31692667361E+03  0.55407140975E+03  0.00000000000E+00 0.  1.
         -1    1    6    6    0  502  0.61100320889E+03  0.56923564769E+03  0.88494918553E+03  0.12167535514E+04  0.00000000000E+00 0.  1.
<mgrwt>
<rscale>  0 0.29192622E+04</rscale>
<asrwt>0</asrwt>
<pdfrwt beam="1">  1        2 0.38407820E+00 0.29192622E+04</pdfrwt>
<pdfrwt beam="2">  1       -2 0.13129248E+00 0.29192622E+04</pdfrwt>
<totfact> 0.12761309E+00</totfact>
</mgrwt>
</event>
<event>
12    1  0.1980523E-007  0.1217063E+04  0.7818608E-02  0.9098051E-01
          1   -1    0    0  501    0  0.00000000000E+00  0.00000000000E+00  0.10966494157E+04  0.10966494157E+04  0.00000000000E+00 0. -1.
         -1   -1    0    0    0  501 -0.00000000000E+00 -0.00000000000E+00 -0.33767468509E+03  0.33767468509E+03  0.00000000000E+00 0.  1.
         23    2    1    2    0    0 -0.27814439815E+02  0.26639992621E+03  0.18766763143E+03  0.34102747242E+03  0.96633499964E+02 0.  0.
        254    2    1    2    0    0  0.27814439815E+02 -0.26639992621E+03  0.57130709914E+03  0.10932966283E+04  0.89283993653E+03 0.  0.
        -24    2    4    4    0    0  0.19717294874E+03 -0.31356316632E+03 -0.10260116737E+03  0.39228314530E+03  0.78485894001E+02 0.  0.
         24    2    4    4    0    0 -0.16935850893E+03  0.47163240110E+02  0.67390826651E+03  0.70101348304E+03  0.79755099915E+02 0.  0.
         11    1    3    3    0    0  0.20963922957E+02  0.11623225570E+03  0.39597902835E+02  0.12456892566E+03  0.00000000000E+00 0.  1.
        -11    1    3    3    0    0 -0.48778362772E+02  0.15016767050E+03  0.14806972860E+03  0.21645854676E+03  0.00000000000E+00 0. -1.
          2    1    6    6  502    0 -0.10132730884E+03  0.67578929008E+02  0.40917191556E+03  0.42691426733E+03  0.00000000000E+00 0. -1.
          1    1    5    5  503    0  0.18932741668E+03 -0.25266950974E+03 -0.98539977499E+02  0.33075199020E+03  0.00000000000E+00 0. -1.
         -2    1    5    5    0  503  0.78455320634E+01 -0.60893656579E+02 -0.40611898725E+01  0.61531155102E+02  0.00000000000E+00 0.  1.
         -1    1    6    6    0  502 -0.68031200084E+02 -0.20415688897E+02  0.26473635095E+03  0.27409921571E+03  0.00000000000E+00 0.  1.
<mgrwt>
<rscale>  0 0.12170633E+04</rscale>
<asrwt>0</asrwt>
<pdfrwt beam="1">  1        1 0.16871529E+00 0.12170633E+04</pdfrwt>
<pdfrwt beam="2">  1       -1 0.51949952E-01 0.12170633E+04</pdfrwt>
<totfact> 0.47016787E+01</totfact>
</mgrwt>
</event>
<event>
12    1  0.1980523E-007  0.1150988E+04  0.7818608E-02  0.9156873E-01
         -1   -1    0    0    0  501 -0.00000000000E+00  0.00000000000E+00  0.39457913742E+03  0.39457913742E+03  0.00000000000E+00 0.  1.
          1   -1    0    0  501    0  0.00000000000E+00 -0.00000000000E+00 -0.83935840737E+03  0.83935840737E+03  0.00000000000E+00 0. -1.
         23    2    1    2    0    0 -0.18719110460E+03  0.82806965120E+02 -0.12845849566E+03  0.25772018721E+03  0.89557839816E+02 0.  0.
        254    2    1    2    0    0  0.18719110460E+03 -0.82806965120E+02 -0.31632077429E+03  0.97621735759E+03  0.90057980984E+03 0.  0.
        -24    2    4    4    0    0  0.43195769347E+03 -0.31322758672E+03 -0.52716909580E+02  0.54230841389E+03  0.81365675738E+02 0.  0.
         24    2    4    4    0    0 -0.24476658886E+03  0.23042062160E+03 -0.26360386471E+03  0.43390894370E+03  0.76063316079E+02 0.  0.
         13    1    3    3    0    0 -0.45832956917E+02  0.37377460174E+02 -0.83993981000E+02  0.10272644895E+03  0.00000000000E+00 0. -1.
        -13    1    3    3    0    0 -0.14135814769E+03  0.45429504947E+02 -0.44464514663E+02  0.15499373826E+03  0.00000000000E+00 0.  1.
          2    1    6    6  502    0 -0.87832319470E+02  0.67598021151E+02 -0.45755269396E+02  0.11990643638E+03  0.00000000000E+00 0. -1.
          3    1    5    5  503    0  0.25596104588E+03 -0.19318964202E+03 -0.71133801103E+02  0.32847878539E+03  0.00000000000E+00 0. -1.
         -4    1    5    5    0  503  0.17599664758E+03 -0.12003794470E+03  0.18416891523E+02  0.21382962849E+03  0.00000000000E+00 0.  1.
         -1    1    6    6    0  502 -0.15693426939E+03  0.16282260045E+03 -0.21784859531E+03  0.31400250733E+03  0.00000000000E+00 0.  1.
<mgrwt>
<rscale>  0 0.11509880E+04</rscale>
<asrwt>0</asrwt>
<pdfrwt beam="1">  1        1 0.12913206E+00 0.11509880E+04</pdfrwt>
<pdfrwt beam="2">  1       -1 0.60704484E-01 0.11509880E+04</pdfrwt>
<totfact> 0.55890240E+01</totfact>
</mgrwt>
</event>
<event>
12    1  0.1980523E-007  0.1961480E+04  0.7818608E-02  0.8624845E-01
          2   -1    0    0  501    0  0.00000000000E+00  0.00000000000E+00  0.18371912436E+04  0.18371912436E+04  0.00000000000E+00 0. -1.
         -2   -1    0    0    0  501 -0.00000000000E+00 -0.00000000000E+00 -0.52354445019E+03  0.52354445019E+03  0.00000000000E+00 0.  1.
         23    2    1    2    0    0 -0.62144994212E+03 -0.45842663105E+03  0.57818781403E+03  0.96890347172E+03  0.90098738002E+02 0.  0.
        254    2    1    2    0    0  0.62144994212E+03  0.45842663105E+03  0.73545897936E+03  0.13918322221E+04  0.89439477717E+03 0.  0.
        -24    2    4    4    0    0  0.68555877486E+03  0.18936476305E+03  0.82340147893E+03  0.10908722141E+04  0.78500603419E+02 0.  0.
         24    2    4    4    0    0 -0.64108832735E+02  0.26906186800E+03 -0.87942499566E+02  0.30096000796E+03  0.79616656009E+02 0.  0.
         13    1    3    3    0    0 -0.20633859776E+03 -0.19261611112E+03  0.17526596604E+03  0.33225704212E+03  0.00000000000E+00 0.  1.
        -13    1    3    3    0    0 -0.41511134436E+03 -0.26581051993E+03  0.40292184800E+03  0.63664642959E+03  0.00000000000E+00 0. -1.
          2    1    6    6  502    0 -0.44684224518E+02  0.23731512238E+03 -0.47710635413E+02  0.24615330987E+03  0.00000000000E+00 0. -1.
          3    1    5    5  503    0  0.10915557450E+03  0.12008187338E+02  0.16301994048E+03  0.19655695613E+03  0.00000000000E+00 0. -1.
         -4    1    5    5    0  503  0.57640320036E+03  0.17735657571E+03  0.66038153844E+03  0.89431525797E+03  0.00000000000E+00 0.  1.
         -1    1    6    6    0  502 -0.19424608217E+02  0.31746745627E+02 -0.40231864152E+02  0.54806698089E+02  0.00000000000E+00 0.  1.
<mgrwt>
<rscale>  0 0.19614803E+04</rscale>
<asrwt>0</asrwt>
<pdfrwt beam="1">  1        2 0.28264480E+00 0.19614803E+04</pdfrwt>
<pdfrwt beam="2">  1       -2 0.80545301E-01 0.19614803E+04</pdfrwt>
<totfact> 0.10438033E+01</totfact>
</mgrwt>
</event>
<event>
12    1  0.1980523E-007  0.2354816E+04  0.7818608E-02  0.8456616E-01
          1   -1    0    0  501    0  0.00000000000E+00  0.00000000000E+00  0.16939688920E+04  0.16939688920E+04  0.00000000000E+00 0. -1.
         -1   -1    0    0    0  501 -0.00000000000E+00 -0.00000000000E+00 -0.81836792438E+03  0.81836792438E+03  0.00000000000E+00 0.  1.
         23    2    1    2    0    0  0.97324242975E+03  0.18558030368E+03  0.21045147506E+03  0.10171993730E+04  0.93615516190E+02 0.  0.
        254    2    1    2    0    0 -0.97324242975E+03 -0.18558030368E+03  0.66514949260E+03  0.14951374434E+04  0.90076148401E+03 0.  0.
        -24    2    4    4    0    0 -0.95661066641E+03 -0.38310117138E+03  0.73703432854E+03  0.12695305004E+04  0.81348726860E+02 0.  0.
         24    2    4    4    0    0 -0.16631763337E+02  0.19752086769E+03 -0.71884835941E+02  0.22560694305E+03  0.80249326390E+02 0.  0.
         11    1    3    3    0    0  0.85471481841E+03  0.19245928712E+03  0.17654954118E+03  0.89372688138E+03  0.00000000000E+00 0. -1.
        -11    1    3    3    0    0  0.11852761134E+03 -0.68789834392E+01  0.33901933886E+02  0.12347249161E+03  0.00000000000E+00 0.  1.
          2    1    6    6  502    0 -0.46199213256E+01  0.20040080549E+03 -0.62112830606E+02  0.20985668976E+03  0.00000000000E+00 0. -1.
          3    1    5    5  503    0 -0.66029321828E+03 -0.24792619406E+03  0.54598033155E+03  0.89193556620E+03  0.00000000000E+00 0. -1.
         -4    1    5    5    0  503 -0.29631744813E+03 -0.13517497732E+03  0.19105399699E+03  0.37759493419E+03  0.00000000000E+00 0.  1.
         -1    1    6    6    0  502 -0.12011842011E+02 -0.28799377924E+01 -0.97720053351E+01  0.15750253283E+02  0.00000000000E+00 0.  1.
<mgrwt>
<rscale>  0 0.23548162E+04</rscale>
<asrwt>0</asrwt>
<pdfrwt beam="1">  1        1 0.26061060E+00 0.23548162E+04</pdfrwt>
<pdfrwt beam="2">  1       -1 0.12590276E+00 0.23548162E+04</pdfrwt>
<totfact> 0.23790792E+00</totfact>
</mgrwt>
</event>
<event>
12    1  0.1980523E-007  0.2308289E+04  0.7818608E-02  0.8474660E-01
          1   -1    0    0  501    0  0.00000000000E+00  0.00000000000E+00  0.23872041319E+04  0.23872041319E+04  0.00000000000E+00 0. -1.
         -1   -1    0    0    0  501 -0.00000000000E+00 -0.00000000000E+00 -0.55799550976E+03  0.55799550976E+03  0.00000000000E+00 0.  1.
         23    2    1    2    0    0  0.16769172058E+03 -0.91133268102E+03  0.38713298552E+03  0.10096873408E+04  0.10463655667E+03 0.  0.
        254    2    1    2    0    0 -0.16769172058E+03  0.91133268102E+03  0.14420756366E+04  0.19355123008E+04  0.89887594056E+03 0.  0.
        -24    2    4    4    0    0  0.31668269223E+03  0.64024225927E+03  0.68843065434E+03  0.99528410605E+03  0.80346797093E+02 0.  0.
         24    2    4    4    0    0 -0.48437441281E+03  0.27109042174E+03  0.75364498222E+03  0.94022819479E+03  0.89105053237E+02 0.  0.
         13    1    3    3    0    0  0.35420332151E+02 -0.33028727547E+03  0.18622669677E+03  0.38082104309E+03  0.00000000000E+00 0. -1.
        -13    1    3    3    0    0  0.13227138843E+03 -0.58104540554E+03  0.20090628876E+03  0.62886629769E+03  0.00000000000E+00 0.  1.
          2    1    6    6  502    0 -0.28390928371E+03  0.18129075088E+03  0.51971009155E+03  0.61932979663E+03  0.00000000000E+00 0. -1.
          1    1    5    5  503    0  0.65627481884E+02  0.13486962767E+03  0.10161596329E+03  0.18117004951E+03  0.00000000000E+00 0. -1.
         -2    1    5    5    0  503  0.25105521034E+03  0.50537263161E+03  0.58681469105E+03  0.81411405654E+03  0.00000000000E+00 0.  1.
         -1    1    6    6    0  502 -0.20046512910E+03  0.89799670865E+02  0.23393489067E+03  0.32089839816E+03  0.00000000000E+00 0.  1.
<mgrwt>
<rscale>  0 0.23082887E+04</rscale>
<asrwt>0</asrwt>
<pdfrwt beam="1">  1        1 0.36726217E+00 0.23082887E+04</pdfrwt>
<pdfrwt beam="2">  1       -1 0.85845464E-01 0.23082887E+04</pdfrwt>
<totfact> 0.19618646E+00</totfact>
</mgrwt>
</event>
<event>
12    1  0.1980523E-007  0.2259518E+04  0.7818608E-02  0.8494056E-01
          3   -1    0    0  501    0  0.00000000000E+00  0.00000000000E+00  0.45006344209E+03  0.45006344209E+03  0.00000000000E+00 0. -1.
         -3   -1    0    0    0  501 -0.00000000000E+00 -0.00000000000E+00 -0.28359463213E+04  0.28359463213E+04  0.00000000000E+00 0.  1.
         23    2    1    2    0    0  0.38743051464E+03  0.71643861189E+03 -0.17134221497E+04  0.18993915862E+04  0.92120823904E+02 0.  0.
        254    2    1    2    0    0 -0.38743051464E+03 -0.71643861189E+03 -0.67246072953E+03  0.13866181772E+04  0.89839849089E+03 0.  0.
        -24    2    4    4    0    0 -0.63631795777E+02  0.15291501801E+03  0.67324990860E+02  0.19733034951E+03  0.83514096288E+02 0.  0.
         24    2    4    4    0    0 -0.32379871887E+03 -0.86935362990E+03 -0.73978572039E+03  0.11892878277E+04  0.80630521212E+02 0.  0.
         11    1    3    3    0    0  0.54626902680E+02  0.72159704555E+02 -0.13721232052E+03  0.16437257180E+03  0.00000000000E+00 0. -1.
        -11    1    3    3    0    0  0.33280361196E+03  0.64427890733E+03 -0.15762098292E+04  0.17350190144E+04  0.00000000000E+00 0.  1.
          4    1    6    6  502    0 -0.14244373289E+03 -0.34724221844E+03 -0.25162046271E+03  0.45186306837E+03  0.00000000000E+00 0. -1.
          3    1    5    5  503    0 -0.63118013872E+02  0.16098673361E+03  0.72742538893E+02  0.18759554642E+03  0.00000000000E+00 0. -1.
         -4    1    5    5    0  503 -0.51378190580E+00 -0.80717155996E+01 -0.54175480323E+01  0.97348030925E+01  0.00000000000E+00 0.  1.
         -3    1    6    6    0  502 -0.18135498598E+03 -0.52211141146E+03 -0.48816525768E+03  0.73742475936E+03  0.00000000000E+00 0.  1.
<mgrwt>
<rscale>  0 0.22595183E+04</rscale>
<asrwt>0</asrwt>
<pdfrwt beam="1">  1        3 0.69240530E-01 0.22595183E+04</pdfrwt>
<pdfrwt beam="2">  1       -3 0.43629943E+00 0.22595183E+04</pdfrwt>
<totfact> 0.31768272E-02</totfact>
</mgrwt>
</event>
<event>
12    1  0.1980523E-007  0.2096183E+04  0.7818608E-02  0.8562927E-01
          2   -1    0    0  501    0  0.00000000000E+00  0.00000000000E+00  0.25026058093E+04  0.25026058093E+04  0.00000000000E+00 0. -1.
         -2   -1    0    0    0  501 -0.00000000000E+00 -0.00000000000E+00 -0.43894068268E+03  0.43894068268E+03  0.00000000000E+00 0.  1.
         23    2    1    2    0    0  0.68351925366E+03  0.50471834918E+03  0.95682087786E+03  0.12827248597E+04  0.89093721590E+02 0.  0.
        254    2    1    2    0    0 -0.68351925366E+03 -0.50471834918E+03  0.11068442488E+04  0.16588216323E+04  0.89702053190E+03 0.  0.
        -24    2    4    4    0    0 -0.70805654551E+03 -0.32682237309E+03  0.12056605627E+04  0.14381227511E+04  0.80141872337E+02 0.  0.
         24    2    4    4    0    0  0.24537291841E+02 -0.17789597609E+03 -0.98816313925E+02  0.22069888118E+03  0.81818550791E+02 0.  0.
         11    1    3    3    0    0  0.43202931338E+03  0.29378376972E+03  0.52914628415E+03  0.74360878223E+03  0.00000000000E+00 0.  1.
        -11    1    3    3    0    0  0.25148994028E+03  0.21093457947E+03  0.42767459371E+03  0.53911607747E+03  0.00000000000E+00 0. -1.
          4    1    6    6  502    0 -0.72950222324E+01 -0.11858296535E+03 -0.96972617442E+02  0.15335848706E+03  0.00000000000E+00 0. -1.
          1    1    5    5  503    0 -0.22982380390E+03 -0.14772478472E+03  0.42982072056E+03  0.50930093725E+03  0.00000000000E+00 0. -1.
         -2    1    5    5    0  503 -0.47823274160E+03 -0.17909758837E+03  0.77583984213E+03  0.92882181388E+03  0.00000000000E+00 0.  1.
         -3    1    6    6    0  502  0.31832314073E+02 -0.59313010743E+02 -0.18436964839E+01  0.67340394114E+02  0.00000000000E+00 0.  1.
<mgrwt>
<rscale>  0 0.20961827E+04</rscale>
<asrwt>0</asrwt>
<pdfrwt beam="1">  1        2 0.38501627E+00 0.20961827E+04</pdfrwt>
<pdfrwt beam="2">  1       -2 0.67529337E-01 0.20961827E+04</pdfrwt>
<totfact> 0.64306156E+00</totfact>
</mgrwt>
</event>
<event>
12    1  0.1980523E-007  0.2684626E+04  0.7818608E-02  0.8340010E-01
          2   -1    0    0  501    0  0.00000000000E+00  0.00000000000E+00  0.21075486548E+04  0.21075486548E+04  0.00000000000E+00 0. -1.
         -2   -1    0    0    0  501 -0.00000000000E+00 -0.00000000000E+00 -0.85492915071E+03  0.85492915071E+03  0.00000000000E+00 0.  1.
         23    2    1    2    0    0 -0.72607657202E+03 -0.91289315270E+03  0.81271400554E+03  0.14247241978E+04  0.93669036627E+02 0.  0.
        254    2    1    2    0    0  0.72607657202E+03  0.91289315270E+03  0.43990549857E+03  0.15377536077E+04  0.90033783303E+03 0.  0.
        -24    2    4    4    0    0  0.42453745473E+03  0.62189527155E+02 -0.14396618383E+03  0.46050444976E+03  0.85079365310E+02 0.  0.
         24    2    4    4    0    0  0.30153911728E+03  0.85070362555E+03  0.58387168240E+03  0.10772491579E+04  0.70264564114E+02 0.  0.
         11    1    3    3    0    0 -0.71986527870E+03 -0.89213766363E+03  0.80816832839E+03  0.14025874937E+04  0.00000000000E+00 0. -1.
        -11    1    3    3    0    0 -0.62112933181E+01 -0.20755489071E+02  0.45456771449E+01  0.22136704180E+02  0.00000000000E+00 0.  1.
          2    1    6    6  502    0  0.80595249372E+02  0.32118548838E+03  0.19854220206E+03  0.38610195307E+03  0.00000000000E+00 0. -1.
          1    1    5    5  503    0  0.59750958408E+02  0.38661722767E+02 -0.13922374834E+02  0.72517159066E+02  0.00000000000E+00 0. -1.
         -2    1    5    5    0  503  0.36478649632E+03  0.23527804388E+02 -0.13004380900E+03  0.38798729069E+03  0.00000000000E+00 0.  1.
         -1    1    6    6    0  502  0.22094386791E+03  0.52951813717E+03  0.38532948034E+03  0.69114720485E+03  0.00000000000E+00 0.  1.
<mgrwt>
<rscale>  0 0.26846264E+04</rscale>
<asrwt>0</asrwt>
<pdfrwt beam="1">  1        2 0.32423825E+00 0.26846264E+04</pdfrwt>
<pdfrwt beam="2">  1       -2 0.13152756E+00 0.26846264E+04</pdfrwt>
<totfact> 0.21550072E+00</totfact>
</mgrwt>
</event>
<event>
12    1  0.1980523E-007  0.2561317E+04  0.7818608E-02  0.8381461E-01
          1   -1    0    0  501    0  0.00000000000E+00  0.00000000000E+00  0.19300234619E+04  0.19300234619E+04  0.00000000000E+00 0. -1.
         -1   -1    0    0    0  501 -0.00000000000E+00 -0.00000000000E+00 -0.84977516882E+03  0.84977516882E+03  0.00000000000E+00 0.  1.
         23    2    1    2    0    0  0.93324032805E+03 -0.63154877769E+03  0.52346675825E+03  0.12458300731E+04  0.91015138708E+02 0.  0.
        254    2    1    2    0    0 -0.93324032805E+03  0.63154877769E+03  0.55678153479E+03  0.15339685576E+04  0.87935344985E+03 0.  0.
        -24    2    4    4    0    0  0.10222507104E+03  0.31548004057E+03  0.16817761559E+03  0.38092158293E+03  0.82703813759E+02 0.  0.
         24    2    4    4    0    0 -0.10354653991E+04  0.31606873712E+03  0.38860391919E+03  0.11530469747E+04  0.80101688617E+02 0.  0.
         11    1    3    3    0    0  0.70026974503E+03 -0.42622425238E+03  0.39004769503E+03  0.90784471884E+03  0.00000000000E+00 0.  1.
        -11    1    3    3    0    0  0.23297058302E+03 -0.20532452531E+03  0.13341906321E+03  0.33798535423E+03  0.00000000000E+00 0. -1.
          2    1    6    6  502    0 -0.53397187381E+03  0.12152462186E+03  0.19012651533E+03  0.57969154519E+03  0.00000000000E+00 0. -1.
          3    1    5    5  503    0  0.76450487407E+02  0.11719272691E+03  0.89176033714E+02  0.16592521584E+03  0.00000000000E+00 0. -1.
         -4    1    5    5    0  503  0.25774583634E+02  0.19828731366E+03  0.79001581880E+02  0.21499636709E+03  0.00000000000E+00 0.  1.
         -1    1    6    6    0  502 -0.50149352527E+03  0.19454411527E+03  0.19847740387E+03  0.57335542949E+03  0.00000000000E+00 0.  1.
<mgrwt>
<rscale>  0 0.25613169E+04</rscale>
<asrwt>0</asrwt>
<pdfrwt beam="1">  1        1 0.29692669E+00 0.25613169E+04</pdfrwt>
<pdfrwt beam="2">  1       -1 0.13073464E+00 0.25613169E+04</pdfrwt>
<totfact> 0.14685710E+00</totfact>
</mgrwt>
</event>
<event>
12    1  0.1980523E-007  0.1961229E+04  0.7818608E-02  0.8624965E-01
         -1   -1    0    0    0  501 -0.00000000000E+00  0.00000000000E+00  0.59967562671E+03  0.59967562671E+03  0.00000000000E+00 0.  1.
          1   -1    0    0  501    0  0.00000000000E+00 -0.00000000000E+00 -0.16035418081E+04  0.16035418081E+04  0.00000000000E+00 0. -1.
         23    2    1    2    0    0 -0.28891581131E+03 -0.67285632158E+03 -0.12703229089E+03  0.74835522729E+03  0.87694741993E+02 0.  0.
        254    2    1    2    0    0  0.28891581131E+03  0.67285632158E+03 -0.87683389053E+03  0.14548622076E+04  0.90087645983E+03 0.  0.
        -24    2    4    4    0    0  0.57460950904E+02  0.29286613058E+03 -0.94840354398E+03  0.99723106240E+03  0.76994663823E+02 0.  0.
         24    2    4    4    0    0  0.23145486041E+03  0.37999019099E+03  0.71569653448E+02  0.45763114515E+03  0.79625071827E+02 0.  0.
         13    1    3    3    0    0 -0.25313424399E+03 -0.55396462149E+03 -0.74722210681E+02  0.61362623486E+03  0.00000000000E+00 0.  1.
        -13    1    3    3    0    0 -0.35781567324E+02 -0.11889170009E+03 -0.52310080205E+02  0.13472899243E+03  0.00000000000E+00 0. -1.
          4    1    6    6  502    0  0.91272442668E+02  0.88216998603E+02  0.36232954756E+02  0.13200653258E+03  0.00000000000E+00 0. -1.
          3    1    5    5  503    0 -0.69067112923E+00  0.17075238669E+02 -0.16959358423E+02  0.24076142555E+02  0.00000000000E+00 0. -1.
         -4    1    5    5    0  503  0.58151622033E+02  0.27579089191E+03 -0.93144418556E+03  0.97315491984E+03  0.00000000000E+00 0.  1.
         -3    1    6    6    0  502  0.14018241774E+03  0.29177319239E+03  0.35336698693E+02  0.32562461258E+03  0.00000000000E+00 0.  1.
<mgrwt>
<rscale>  0 0.19612291E+04</rscale>
<asrwt>0</asrwt>
<pdfrwt beam="1">  1        1 0.24669873E+00 0.19612291E+04</pdfrwt>
<pdfrwt beam="2">  1       -1 0.92257791E-01 0.19612291E+04</pdfrwt>
<totfact> 0.59043510E+00</totfact>
</mgrwt>
</event>
<event>
12    1  0.1980523E-007  0.1265030E+04  0.7818608E-02  0.9057766E-01
         -2   -1    0    0    0  501 -0.00000000000E+00  0.00000000000E+00  0.28628208983E+03  0.28628208983E+03  0.00000000000E+00 0. -1.
          2   -1    0    0  501    0  0.00000000000E+00 -0.00000000000E+00 -0.13974860043E+04  0.13974860043E+04  0.00000000000E+00 0.  1.
         23    2    1    2    0    0  0.82746549205E+02 -0.28155416065E+03 -0.17573466486E+03  0.35259980955E+03  0.85581636321E+02 0.  0.
        254    2    1    2    0    0 -0.82746549205E+02  0.28155416065E+03 -0.93546924959E+03  0.13311682846E+04  0.90043686515E+03 0.  0.
        -24    2    4    4    0    0 -0.62233637631E+01 -0.18413235228E+02  0.16576670164E+03  0.18499164679E+03  0.79784287422E+02 0.  0.
         24    2    4    4    0    0 -0.76523185441E+02  0.29996739588E+03 -0.11012359512E+04  0.11461766378E+04  0.71861173046E+02 0.  0.
         11    1    3    3    0    0  0.67895116438E+02 -0.26090582065E+03 -0.18336722359E+03  0.32604467910E+03  0.00000000000E+00 0.  1.
        -11    1    3    3    0    0  0.14851432767E+02 -0.20648340003E+02  0.76325587336E+01  0.26555130444E+02  0.00000000000E+00 0. -1.
          2    1    6    6  502    0 -0.78817567942E+02  0.19182010437E+03 -0.78598883310E+03  0.81288720448E+03  0.00000000000E+00 0. -1.
          1    1    5    5  503    0  0.28928535254E+02  0.15344756805E+02  0.55610368483E+02  0.64535531269E+02  0.00000000000E+00 0. -1.
         -2    1    5    5    0  503 -0.35151899017E+02 -0.33757992034E+02  0.11015633316E+03  0.12045611552E+03  0.00000000000E+00 0.  1.
         -1    1    6    6    0  502  0.22943825009E+01  0.10814729151E+03 -0.31524711814E+03  0.33328943330E+03  0.00000000000E+00 0.  1.
<mgrwt>
<rscale>  0 0.12650300E+04</rscale>
<asrwt>0</asrwt>
<pdfrwt beam="1">  1        2 0.21499785E+00 0.12650300E+04</pdfrwt>
<pdfrwt beam="2">  1       -2 0.44043399E-01 0.12650300E+04</pdfrwt>
<totfact> 0.69705519E+01</totfact>
</mgrwt>
</event>
<event>
12    1  0.1980523E-007  0.1113714E+04  0.7818608E-02  0.9191927E-01
          1   -1    0    0  501    0  0.00000000000E+00  0.00000000000E+00  0.68616498187E+03  0.68616498187E+03  0.00000000000E+00 0. -1.
         -1   -1    0    0    0  501 -0.00000000000E+00 -0.00000000000E+00 -0.45191750124E+03  0.45191750124E+03  0.00000000000E+00 0.  1.
         23    2    1    2    0    0  0.51586241867E+02  0.15837354933E+03  0.99367051400E+02  0.21429463881E+03  0.91132101036E+02 0.  0.
        254    2    1    2    0    0 -0.51586241867E+02 -0.15837354933E+03  0.13488042923E+03  0.92378784430E+03  0.89858106457E+03 0.  0.
        -24    2    4    4    0    0 -0.17626335891E+03  0.30747298847E+03 -0.10643551940E+03  0.37854771542E+03  0.79758652973E+02 0.  0.
         24    2    4    4    0    0  0.12467711704E+03 -0.46584653780E+03  0.24131594863E+03  0.54524012888E+03  0.80597957700E+02 0.  0.
         13    1    3    3    0    0  0.18656179780E+02  0.64647724463E+02  0.92946312140E+02  0.11474492696E+03  0.00000000000E+00 0. -1.
        -13    1    3    3    0    0  0.32930062086E+02  0.93725824868E+02  0.64207392599E+01  0.99549711847E+02  0.00000000000E+00 0.  1.
          4    1    6    6  502    0 -0.13453401379E+01 -0.30642557217E+02  0.37442372426E+02  0.48401523796E+02  0.00000000000E+00 0. -1.
          3    1    5    5  503    0 -0.96805311584E+02  0.91783057257E+02 -0.37326110235E+02  0.13852305388E+03  0.00000000000E+00 0. -1.
         -2    1    5    5    0  503 -0.79458047326E+02  0.21568993122E+03 -0.69109409162E+02  0.24002466154E+03  0.00000000000E+00 0.  1.
         -3    1    6    6    0  502  0.12602245718E+03 -0.43520398059E+03  0.20387357620E+03  0.49683860509E+03  0.00000000000E+00 0.  1.
<mgrwt>
<rscale>  0 0.11137144E+04</rscale>
<asrwt>0</asrwt>
<pdfrwt beam="1">  1        1 0.10556384E+00 0.11137144E+04</pdfrwt>
<pdfrwt beam="2">  1       -1 0.69525770E-01 0.11137144E+04</pdfrwt>
<totfact> 0.58518288E+01</totfact>
</mgrwt>
</event>
<event>
12    1  0.1980523E-007  0.1133034E+04  0.7818608E-02  0.9173580E-01
          1   -1    0    0  501    0  0.00000000000E+00  0.00000000000E+00  0.11450783913E+04  0.11450783913E+04  0.00000000000E+00 0. -1.
         -1   -1    0    0    0  501 -0.00000000000E+00 -0.00000000000E+00 -0.28027901998E+03  0.28027901998E+03  0.00000000000E+00 0.  1.
         23    2    1    2    0    0 -0.36004640253E+02  0.11740227191E+03  0.35625967533E+03  0.38793850780E+03  0.92172132441E+02 0.  0.
        254    2    1    2    0    0  0.36004640253E+02 -0.11740227191E+03  0.50853969595E+03  0.10374189034E+04  0.89584916771E+03 0.  0.
        -24    2    4    4    0    0 -0.38682502043E+03 -0.19110137080E+03  0.38465612044E+03  0.58369714137E+03  0.81170755135E+02 0.  0.
         24    2    4    4    0    0  0.42282966068E+03  0.73699098894E+02  0.12388357551E+03  0.45372176208E+03  0.79371392637E+02 0.  0.
         13    1    3    3    0    0  0.29606703754E+02  0.29860819813E+02  0.12973893366E+03  0.13638334347E+03  0.00000000000E+00 0.  1.
        -13    1    3    3    0    0 -0.65611344006E+02  0.87541452097E+02  0.22652074166E+03  0.25155516433E+03  0.00000000000E+00 0. -1.
          2    1    6    6  502    0  0.24497334437E+03  0.38588615845E+02  0.30701336353E+02  0.24988716009E+03  0.00000000000E+00 0. -1.
          3    1    5    5  503    0 -0.10604783010E+03 -0.39057408444E+02  0.14821161654E+03  0.18638215231E+03  0.00000000000E+00 0. -1.
         -4    1    5    5    0  503 -0.28077719033E+03 -0.15204396236E+03  0.23644450391E+03  0.39731498905E+03  0.00000000000E+00 0.  1.
         -1    1    6    6    0  502  0.17785631632E+03  0.35110483049E+02  0.93182239154E+02  0.20383460199E+03  0.00000000000E+00 0.  1.
<mgrwt>
<rscale>  0 0.11330339E+04</rscale>
<asrwt>0</asrwt>
<pdfrwt beam="1">  1        1 0.17616590E+00 0.11330339E+04</pdfrwt>
<pdfrwt beam="2">  1       -1 0.43119850E-01 0.11330339E+04</pdfrwt>
<totfact> 0.61816637E+01</totfact>
</mgrwt>
</event>
<event>
12    1  0.1980523E-007  0.3114284E+04  0.7818608E-02  0.8211829E-01
         -1   -1    0    0    0  501 -0.00000000000E+00  0.00000000000E+00  0.15156360571E+04  0.15156360571E+04  0.00000000000E+00 0.  1.
          1   -1    0    0  501    0  0.00000000000E+00 -0.00000000000E+00 -0.15997847075E+04  0.15997847075E+04  0.00000000000E+00 0. -1.
         23    2    1    2    0    0  0.19940969791E+03 -0.14076747284E+04 -0.12474961884E+03  0.14304599972E+04  0.96648681163E+02 0.  0.
        254    2    1    2    0    0 -0.19940969791E+03  0.14076747284E+04  0.40600968377E+02  0.16849607674E+04  0.90340023261E+03 0.  0.
        -24    2    4    4    0    0 -0.13414306077E+03  0.15122180658E+04  0.10618810084E+03  0.15239919242E+04  0.80483744098E+02 0.  0.
         24    2    4    4    0    0 -0.65266637140E+02 -0.10454333732E+03 -0.65587132468E+02  0.16096884319E+03  0.80126482710E+02 0.  0.
         11    1    3    3    0    0  0.47572156299E+02 -0.32921561551E+03  0.11759827458E+02  0.33284279336E+03  0.00000000000E+00 0.  1.
        -11    1    3    3    0    0  0.15183754161E+03 -0.10784591129E+04 -0.13650944630E+03  0.10976172039E+04  0.00000000000E+00 0. -1.
          2    1    6    6  502    0  0.46535807377E+01 -0.11535784729E+02 -0.39920251364E+02  0.41813354469E+02  0.00000000000E+00 0. -1.
          1    1    5    5  503    0 -0.97859168214E+02  0.65673620516E+03  0.52503145953E+02  0.66605963720E+03  0.00000000000E+00 0. -1.
         -2    1    5    5    0  503 -0.36283892557E+02  0.85548186060E+03  0.53684954892E+02  0.85793228698E+03  0.00000000000E+00 0.  1.
         -1    1    6    6    0  502 -0.69920217878E+02 -0.93007552595E+02 -0.25666881104E+02  0.11915548873E+03  0.00000000000E+00 0.  1.
<mgrwt>
<rscale>  0 0.31142841E+04</rscale>
<asrwt>0</asrwt>
<pdfrwt beam="1">  1        1 0.24612072E+00 0.31142841E+04</pdfrwt>
<pdfrwt beam="2">  1       -1 0.23317478E+00 0.31142841E+04</pdfrwt>
<totfact> 0.42308425E-01</totfact>
</mgrwt>
</event>
<event>
12    1  0.1980523E-007  0.4966154E+04  0.7818608E-02  0.7833750E-01
         -1   -1    0    0    0  501 -0.00000000000E+00  0.00000000000E+00  0.31122292536E+04  0.31122292536E+04  0.00000000000E+00 0.  1.
          1   -1    0    0  501    0  0.00000000000E+00 -0.00000000000E+00 -0.19811107520E+04  0.19811107520E+04  0.00000000000E+00 0. -1.
         23    2    1    2    0    0  0.21648508745E+04 -0.32925687857E+03 -0.46278670809E+03  0.22400941446E+04  0.94132028166E+02 0.  0.
        254    2    1    2    0    0 -0.21648508745E+04  0.32925687857E+03  0.15939052097E+04  0.28532458611E+04  0.89749023703E+03 0.  0.
        -24    2    4    4    0    0 -0.16083265563E+03  0.40018923490E+02 -0.10277470643E+03  0.21036513187E+03  0.78880866340E+02 0.  0.
         24    2    4    4    0    0 -0.20040182188E+04  0.28923795508E+03  0.16966799161E+04  0.26428807292E+04  0.79675560789E+02 0.  0.
         11    1    3    3    0    0  0.10312206251E+04 -0.16649646966E+03 -0.17372154791E+03  0.10589222012E+04  0.00000000000E+00 0. -1.
        -11    1    3    3    0    0  0.11336302494E+04 -0.16276040891E+03 -0.28906516018E+03  0.11811719434E+04  0.00000000000E+00 0.  1.
          4    1    6    6  502    0 -0.34729713177E+03  0.21673976514E+02  0.30512450031E+03  0.46280235488E+03  0.00000000000E+00 0. -1.
          3    1    5    5  503    0 -0.62479454446E+02  0.55291523913E+02 -0.38520508885E+02  0.91894855401E+02  0.00000000000E+00 0. -1.
         -4    1    5    5    0  503 -0.98353201180E+02 -0.15272600422E+02 -0.64254197542E+02  0.11847027647E+03  0.00000000000E+00 0.  1.
         -3    1    6    6    0  502 -0.16567210871E+04  0.26756397857E+03  0.13915554158E+04  0.21800783743E+04  0.00000000000E+00 0.  1.
<mgrwt>
<rscale>  0 0.49661538E+04</rscale>
<asrwt>0</asrwt>
<pdfrwt beam="1">  1        1 0.30478627E+00 0.49661538E+04</pdfrwt>
<pdfrwt beam="2">  1       -1 0.47880450E+00 0.49661538E+04</pdfrwt>
<totfact> 0.45893630E-03</totfact>
</mgrwt>
</event>
<event>
12    1  0.1980523E-007  0.1439743E+04  0.7818608E-02  0.8925543E-01
         -2   -1    0    0    0  501 -0.00000000000E+00  0.00000000000E+00  0.41872572311E+03  0.41872572311E+03  0.00000000000E+00 0.  1.
          2   -1    0    0  501    0  0.00000000000E+00 -0.00000000000E+00 -0.12375996780E+04  0.12375996780E+04  0.00000000000E+00 0. -1.
         23    2    1    2    0    0 -0.34036976993E+03 -0.37960920502E+02 -0.55281888802E+03  0.65678016069E+03  0.91971978118E+02 0.  0.
        254    2    1    2    0    0  0.34036976993E+03  0.37960920502E+02 -0.26605506689E+03  0.99954524044E+03  0.90056247829E+03 0.  0.
        -24    2    4    4    0    0  0.34918689878E+03 -0.10782973654E+03 -0.55250201188E+03  0.66735463294E+03  0.80901116301E+02 0.  0.
         24    2    4    4    0    0 -0.88171288543E+01  0.14579065704E+03  0.28644694498E+03  0.33219060750E+03  0.83463105479E+02 0.  0.
         11    1    3    3    0    0 -0.48800929209E+02 -0.13751927724E+02 -0.15415663143E+03  0.16228035378E+03  0.00000000000E+00 0. -1.
        -11    1    3    3    0    0 -0.29156884072E+03 -0.24208992778E+02 -0.39866225659E+03  0.49449980692E+03  0.00000000000E+00 0.  1.
          2    1    6    6  502    0 -0.65749891108E+01 -0.80361302944E+01  0.42777894913E+02  0.44019974615E+02  0.00000000000E+00 0. -1.
          1    1    5    5  503    0  0.19718727768E+02 -0.24871510189E+02 -0.73833085813E+02  0.80366316356E+02  0.00000000000E+00 0. -1.
         -2    1    5    5    0  503  0.32946817101E+03 -0.82958226350E+02 -0.47866892606E+03  0.58698831659E+03  0.00000000000E+00 0.  1.
         -1    1    6    6    0  502 -0.22421397435E+01  0.15382678734E+03  0.24366905007E+03  0.28817063288E+03  0.00000000000E+00 0.  1.
<mgrwt>
<rscale>  0 0.14397428E+04</rscale>
<asrwt>0</asrwt>
<pdfrwt beam="1">  1        2 0.19039995E+00 0.14397428E+04</pdfrwt>
<pdfrwt beam="2">  1       -2 0.64419343E-01 0.14397428E+04</pdfrwt>
<totfact> 0.38857795E+01</totfact>
</mgrwt>
</event>
<event>
12    1  0.1980523E-007  0.1545924E+04  0.7818608E-02  0.8854476E-01
         -2   -1    0    0    0  501 -0.00000000000E+00  0.00000000000E+00  0.13056412268E+04  0.13056412268E+04  0.00000000000E+00 0.  1.
          2   -1    0    0  501    0  0.00000000000E+00 -0.00000000000E+00 -0.45760654973E+03  0.45760654973E+03  0.00000000000E+00 0. -1.
         23    2    1    2    0    0 -0.22723248325E+02 -0.48886455878E+03  0.42745143405E+03  0.65644886239E+03  0.93303149020E+02 0.  0.
        254    2    1    2    0    0  0.22723248325E+02  0.48886455878E+03  0.42058324300E+03  0.11067989141E+04  0.89922670622E+03 0.  0.
        -24    2    4    4    0    0 -0.38352312661E+03  0.46530757473E+03  0.21916552749E+03  0.64622710763E+03  0.77296949760E+02 0.  0.
         24    2    4    4    0    0  0.40624637494E+03  0.23556984042E+02  0.20141771551E+03  0.46057180650E+03  0.77241466654E+02 0.  0.
         11    1    3    3    0    0  0.18041072618E+02 -0.36284713279E+03  0.34116622683E+03  0.49837527668E+03  0.00000000000E+00 0.  1.
        -11    1    3    3    0    0 -0.40764320943E+02 -0.12601742599E+03  0.86285207224E+02  0.15807358571E+03  0.00000000000E+00 0. -1.
          4    1    6    6  502    0  0.19366602271E+03  0.48536916460E+02  0.10847633416E+03  0.22722120430E+03  0.00000000000E+00 0. -1.
          1    1    5    5  503    0 -0.25829582404E+03  0.26621089826E+03  0.15818135968E+03  0.40324473663E+03  0.00000000000E+00 0. -1.
         -2    1    5    5    0  503 -0.12522730257E+03  0.19909667648E+03  0.60984167810E+02  0.24298237100E+03  0.00000000000E+00 0.  1.
         -3    1    6    6    0  502  0.21258035223E+03 -0.24979932417E+02  0.92941381341E+02  0.23335060219E+03  0.00000000000E+00 0.  1.
<mgrwt>
<rscale>  0 0.15459236E+04</rscale>
<asrwt>0</asrwt>
<pdfrwt beam="1">  1        2 0.70401008E-01 0.15459236E+04</pdfrwt>
<pdfrwt beam="2">  1       -2 0.20086788E+00 0.15459236E+04</pdfrwt>
<totfact> 0.86143378E+00</totfact>
</mgrwt>
</event>
<event>
12    1  0.1980523E-007  0.1412838E+04  0.7818608E-02  0.8944578E-01
          2   -1    0    0  501    0  0.00000000000E+00  0.00000000000E+00  0.63076671774E+03  0.63076671774E+03  0.00000000000E+00 0. -1.
         -2   -1    0    0    0  501 -0.00000000000E+00 -0.00000000000E+00 -0.79114452209E+03  0.79114452209E+03  0.00000000000E+00 0.  1.
         23    2    1    2    0    0  0.76623097654E+02  0.14726047810E+03  0.33456490899E+03  0.38445206833E+03  0.91175473730E+02 0.  0.
        254    2    1    2    0    0 -0.76623097654E+02 -0.14726047810E+03 -0.49494271334E+03  0.10374591715E+04  0.89654698457E+03 0.  0.
        -24    2    4    4    0    0  0.76794860008E+02  0.34031746870E+03 -0.61733796010E+02  0.36264449402E+03  0.77372717730E+02 0.  0.
         24    2    4    4    0    0 -0.15341795766E+03 -0.48757794680E+03 -0.43320891733E+03  0.67481467748E+03  0.80221935566E+02 0.  0.
         13    1    3    3    0    0  0.29486806007E+02  0.13726626660E+03  0.23285824501E+03  0.27190892215E+03  0.00000000000E+00 0. -1.
        -13    1    3    3    0    0  0.47136291647E+02  0.99942114963E+01  0.10170666398E+03  0.11254314618E+03  0.00000000000E+00 0.  1.
          4    1    6    6  502    0 -0.14747234548E+03 -0.48798439899E+03 -0.42069708181E+03  0.66095605072E+03  0.00000000000E+00 0. -1.
          1    1    5    5  503    0  0.17716491468E+02  0.17733356056E+03 -0.63740185659E+02  0.18927196580E+03  0.00000000000E+00 0. -1.
         -2    1    5    5    0  503  0.59078368541E+02  0.16298390814E+03  0.20063896496E+01  0.17337252822E+03  0.00000000000E+00 0.  1.
         -3    1    6    6    0  502 -0.59456121809E+01  0.40645218757E+00 -0.12511835520E+02  0.13858626760E+02  0.00000000000E+00 0.  1.
<mgrwt>
<rscale>  0 0.14128378E+04</rscale>
<asrwt>0</asrwt>
<pdfrwt beam="1">  1        2 0.97041034E-01 0.14128378E+04</pdfrwt>
<pdfrwt beam="2">  1       -2 0.12171454E+00 0.14128378E+04</pdfrwt>
<totfact> 0.23250973E+01</totfact>
</mgrwt>
</event>
<event>
12    1  0.1980523E-007  0.2590563E+04  0.7818608E-02  0.8371414E-01
          1   -1    0    0  501    0  0.00000000000E+00  0.00000000000E+00  0.17881272472E+04  0.17881272472E+04  0.00000000000E+00 0. -1.
         -1   -1    0    0    0  501 -0.00000000000E+00 -0.00000000000E+00 -0.93827427938E+03  0.93827427938E+03  0.00000000000E+00 0.  1.
         23    2    1    2    0    0 -0.48143304137E+02  0.68496279322E+03 -0.57884204757E+03  0.90260941169E+03  0.90298550438E+02 0.  0.
        254    2    1    2    0    0  0.48143304137E+02 -0.68496279322E+03  0.14286950154E+04  0.18237921149E+04  0.90197362792E+03 0.  0.
        -24    2    4    4    0    0 -0.18738997894E+03 -0.19338833963E+03 -0.12530207590E+02  0.28095347768E+03  0.79144149544E+02 0.  0.
         24    2    4    4    0    0  0.23553328308E+03 -0.49157445359E+03  0.14412252230E+04  0.15428386372E+04  0.78099591678E+02 0.  0.
         13    1    3    3    0    0  0.15331405054E+02  0.17574829238E+03 -0.11267988723E+03  0.20933053108E+03  0.00000000000E+00 0.  1.
        -13    1    3    3    0    0 -0.63474709191E+02  0.50921450084E+03 -0.46616216034E+03  0.69327888062E+03  0.00000000000E+00 0. -1.
          2    1    6    6  502    0  0.10698451473E+03 -0.22626386550E+03  0.77191869734E+03  0.81147982016E+03  0.00000000000E+00 0. -1.
          1    1    5    5  503    0 -0.15839921016E+03 -0.18451181081E+03 -0.31470245187E+02  0.24520459710E+03  0.00000000000E+00 0. -1.
         -2    1    5    5    0  503 -0.28990768784E+02 -0.88765288163E+01  0.18940037597E+02  0.35748880579E+02  0.00000000000E+00 0.  1.
         -1    1    6    6    0  502  0.12854876835E+03 -0.26531058809E+03  0.66930652563E+03  0.73135881703E+03  0.00000000000E+00 0.  1.
<mgrwt>
<rscale>  0 0.25905627E+04</rscale>
<asrwt>0</asrwt>
<pdfrwt beam="1">  1        1 0.27509650E+00 0.25905627E+04</pdfrwt>
<pdfrwt beam="2">  1       -1 0.14434989E+00 0.25905627E+04</pdfrwt>
<totfact> 0.14145688E+00</totfact>
</mgrwt>
</event>
<event>
12    1  0.1980523E-007  0.2423787E+04  0.7818608E-02  0.8430651E-01
         -2   -1    0    0    0  501 -0.00000000000E+00  0.00000000000E+00  0.97145569167E+03  0.97145569167E+03  0.00000000000E+00 0. -1.
          2   -1    0    0  501    0  0.00000000000E+00 -0.00000000000E+00 -0.15118408847E+04  0.15118408847E+04  0.00000000000E+00 0.  1.
         23    2    1    2    0    0 -0.54976600341E+03 -0.85010549252E+03 -0.48406808766E+03  0.11263371491E+04  0.96909509775E+02 0.  0.
        254    2    1    2    0    0  0.54976600341E+03  0.85010549252E+03 -0.56317105388E+02  0.13569594273E+04  0.90180112220E+03 0.  0.
        -24    2    4    4    0    0 -0.44514965883E+02  0.73958669220E+03 -0.67258573595E+02  0.74765743495E+03  0.74147601717E+02 0.  0.
         24    2    4    4    0    0  0.59428096929E+03  0.11051880032E+03  0.10941468207E+02  0.60930199233E+03  0.75795293014E+02 0.  0.
         11    1    3    3    0    0 -0.10684853456E+03 -0.10385021795E+03 -0.79155445769E+02  0.16872184713E+03  0.00000000000E+00 0. -1.
        -11    1    3    3    0    0 -0.44291746885E+03 -0.74625527457E+03 -0.40491264189E+03  0.95761530199E+03  0.00000000000E+00 0.  1.
          4    1    6    6  502    0  0.59416573534E+03  0.11078499966E+03  0.60844439259E+01  0.60443631398E+03  0.00000000000E+00 0. -1.
          3    1    5    5  503    0 -0.54014673215E+02  0.71434714324E+03 -0.72963759021E+02  0.72009244969E+03  0.00000000000E+00 0. -1.
         -4    1    5    5    0  503  0.94997073324E+01  0.25239548963E+02  0.57051854265E+01  0.27564985253E+02  0.00000000000E+00 0.  1.
         -3    1    6    6    0  502  0.11523395686E+00 -0.26619934516E+00  0.48570242808E+01  0.48656783515E+01  0.00000000000E+00 0.  1.
<mgrwt>
<rscale>  0 0.24237875E+04</rscale>
<asrwt>0</asrwt>
<pdfrwt beam="1">  1        2 0.23259091E+00 0.24237875E+04</pdfrwt>
<pdfrwt beam="2">  1       -2 0.14945472E+00 0.24237875E+04</pdfrwt>
<totfact> 0.33944143E+00</totfact>
</mgrwt>
</event>
<event>
12    1  0.1980523E-007  0.1630325E+04  0.7818608E-02  0.8802132E-01
          1   -1    0    0  501    0  0.00000000000E+00  0.00000000000E+00  0.66342662531E+03  0.66342662531E+03  0.00000000000E+00 0. -1.
         -1   -1    0    0    0  501 -0.00000000000E+00 -0.00000000000E+00 -0.10016029178E+04  0.10016029178E+04  0.00000000000E+00 0.  1.
         23    2    1    2    0    0 -0.34945800045E+03 -0.10332813509E+03 -0.54882750792E+03  0.66501108576E+03  0.90722175682E+02 0.  0.
        254    2    1    2    0    0  0.34945800045E+03  0.10332813509E+03  0.21065121539E+03  0.10000184574E+04  0.90711927715E+03 0.  0.
        -24    2    4    4    0    0  0.18853827919E+03  0.32435015171E+03  0.47533315346E+03  0.61124144745E+03  0.83215363143E+02 0.  0.
         24    2    4    4    0    0  0.16091972126E+03 -0.22102201662E+03 -0.26468193807E+03  0.38877700993E+03  0.79656428431E+02 0.  0.
         13    1    3    3    0    0 -0.13980741626E+02 -0.73937886635E+01 -0.14517453672E+01  0.15881964986E+02  0.00000000000E+00 0. -1.
        -13    1    3    3    0    0 -0.33547725882E+03 -0.95934346424E+02 -0.54737576255E+03  0.64912912077E+03  0.00000000000E+00 0.  1.
          2    1    6    6  502    0  0.68174215583E+02 -0.15085727918E+03 -0.18235228773E+03  0.24628844713E+03  0.00000000000E+00 0. -1.
          1    1    5    5  503    0  0.19640836937E+03  0.31855786667E+03  0.46656719753E+03  0.59811396220E+03  0.00000000000E+00 0. -1.
         -2    1    5    5    0  503 -0.78700901764E+01  0.57922850380E+01  0.87659559363E+01  0.13127485244E+02  0.00000000000E+00 0.  1.
         -1    1    6    6    0  502  0.92745505673E+02 -0.70164737436E+02 -0.82329650348E+02  0.14248856280E+03  0.00000000000E+00 0.  1.
<mgrwt>
<rscale>  0 0.16303252E+04</rscale>
<asrwt>0</asrwt>
<pdfrwt beam="1">  1        1 0.10206564E+00 0.16303252E+04</pdfrwt>
<pdfrwt beam="2">  1       -1 0.15409276E+00 0.16303252E+04</pdfrwt>
<totfact> 0.91702654E+00</totfact>
</mgrwt>
</event>
<event>
12    1  0.1980523E-007  0.1552499E+04  0.7818608E-02  0.8850273E-01
         -2   -1    0    0    0  501 -0.00000000000E+00  0.00000000000E+00  0.18529335126E+03  0.18529335126E+03  0.00000000000E+00 0.  1.
          2   -1    0    0  501    0  0.00000000000E+00 -0.00000000000E+00 -0.32519413832E+04  0.32519413832E+04  0.00000000000E+00 0. -1.
         23    2    1    2    0    0 -0.39725168233E+03  0.29989981958E+03 -0.76918963186E+03  0.92008677997E+03  0.84606099145E+02 0.  0.
        254    2    1    2    0    0  0.39725168233E+03 -0.29989981958E+03 -0.22974584000E+04  0.25171479545E+04  0.89998329086E+03 0.  0.
        -24    2    4    4    0    0 -0.23755769681E+03  0.10487677207E+03 -0.58722930308E+03  0.64683500402E+03  0.78259002055E+02 0.  0.
         24    2    4    4    0    0  0.63480937915E+03 -0.40477659164E+03 -0.17102290970E+04  0.18703129504E+04  0.79749178511E+02 0.  0.
         11    1    3    3    0    0 -0.31676263122E+03  0.25187142689E+03 -0.67622925201E+03  0.78807599983E+03  0.00000000000E+00 0. -1.
        -11    1    3    3    0    0 -0.80489051110E+02  0.48028392688E+02 -0.92960379851E+02  0.13201078015E+03  0.00000000000E+00 0.  1.
          4    1    6    6  502    0  0.41549023249E+03 -0.29980689539E+03 -0.11020696854E+04  0.12153492911E+04  0.00000000000E+00 0. -1.
          1    1    5    5  503    0 -0.36954405607E+02  0.11108616616E+01 -0.15274764464E+03  0.15715821662E+03  0.00000000000E+00 0. -1.
         -2    1    5    5    0  503 -0.20060329121E+03  0.10376591040E+03 -0.43448165843E+03  0.48967678740E+03  0.00000000000E+00 0.  1.
         -3    1    6    6    0  502  0.21931914666E+03 -0.10496969626E+03 -0.60815941157E+03  0.65496365938E+03  0.00000000000E+00 0.  1.
<mgrwt>
<rscale>  0 0.15524988E+04</rscale>
<asrwt>0</asrwt>
<pdfrwt beam="1">  1        2 0.50029867E+00 0.15524988E+04</pdfrwt>
<pdfrwt beam="2">  1       -2 0.28506670E-01 0.15524988E+04</pdfrwt>
<totfact> 0.13133661E+01</totfact>
</mgrwt>
</event>
<event>
12    1  0.1980523E-007  0.1533036E+04  0.7818608E-02  0.8862777E-01
          1   -1    0    0  501    0  0.00000000000E+00  0.00000000000E+00  0.85603003220E+03  0.85603003220E+03  0.00000000000E+00 0. -1.
         -1   -1    0    0    0  501 -0.00000000000E+00 -0.00000000000E+00 -0.68636601463E+03  0.68636601463E+03  0.00000000000E+00 0.  1.
         23    2    1    2    0    0 -0.43190372442E+03 -0.60451072201E+02 -0.18297419533E+03  0.48171088242E+03  0.91491304453E+02 0.  0.
        254    2    1    2    0    0  0.43190372442E+03  0.60451072201E+02  0.35263821290E+03  0.10606851644E+04  0.90028003949E+03 0.  0.
        -24    2    4    4    0    0  0.31599379510E+03  0.46070680603E+03  0.28041212289E+03  0.63019150485E+03  0.80047076466E+02 0.  0.
         24    2    4    4    0    0  0.11590992932E+03 -0.40025573383E+03  0.72226090005E+02  0.43049365956E+03  0.80426479861E+02 0.  0.
         11    1    3    3    0    0 -0.23144527281E+03 -0.51510762890E+02 -0.14367375329E+03  0.27724072642E+03  0.00000000000E+00 0.  1.
        -11    1    3    3    0    0 -0.20045845161E+03 -0.89403093112E+01 -0.39300442035E+02  0.20447015600E+03  0.00000000000E+00 0. -1.
          2    1    6    6  502    0  0.66936416175E+02 -0.10926844198E+03  0.36637767852E+02  0.13327566265E+03  0.00000000000E+00 0. -1.
          3    1    5    5  503    0  0.43004106776E+02  0.12190993674E+03  0.64683066248E+02  0.14455201464E+03  0.00000000000E+00 0. -1.
         -4    1    5    5    0  503  0.27298968833E+03  0.33879686929E+03  0.21572905665E+03  0.48563949021E+03  0.00000000000E+00 0.  1.
         -1    1    6    6    0  502  0.48973513141E+02 -0.29098729186E+03  0.35588322153E+02  0.29721799691E+03  0.00000000000E+00 0.  1.
<mgrwt>
<rscale>  0 0.15330361E+04</rscale>
<asrwt>0</asrwt>
<pdfrwt beam="1">  1        1 0.13169693E+00 0.15330361E+04</pdfrwt>
<pdfrwt beam="2">  1       -1 0.10559477E+00 0.15330361E+04</pdfrwt>
<totfact> 0.16050772E+01</totfact>
</mgrwt>
</event>
<event>
12    1  0.1980523E-007  0.1518929E+04  0.7818608E-02  0.8871962E-01
          2   -1    0    0  501    0  0.00000000000E+00  0.00000000000E+00  0.15176307524E+04  0.15176307524E+04  0.00000000000E+00 0. -1.
         -2   -1    0    0    0  501 -0.00000000000E+00 -0.00000000000E+00 -0.38005717733E+03  0.38005717733E+03  0.00000000000E+00 0.  1.
         23    2    1    2    0    0 -0.45885496731E+02  0.38636171392E+03  0.47510501275E+01  0.39948328693E+03  0.90462540673E+02 0.  0.
        254    2    1    2    0    0  0.45885496731E+02 -0.38636171392E+03  0.11328225250E+04  0.14982046428E+04  0.89997190285E+03 0.  0.
        -24    2    4    4    0    0 -0.30357952567E+03 -0.34407551392E+03  0.21712961838E+03  0.51388641895E+03  0.79909278057E+02 0.  0.
         24    2    4    4    0    0  0.34946502240E+03 -0.42286200001E+02  0.91569290658E+03  0.98431822387E+03  0.80467024871E+02 0.  0.
         13    1    3    3    0    0 -0.21005408852E+02  0.26969764596E+03 -0.37143991623E+02  0.27305260217E+03  0.00000000000E+00 0.  1.
        -13    1    3    3    0    0 -0.24880087879E+02  0.11666406796E+03  0.41895041750E+02  0.12643068476E+03  0.00000000000E+00 0. -1.
          2    1    6    6  502    0  0.15369013083E+03 -0.91176043751E+01  0.50839763887E+03  0.53119859397E+03  0.00000000000E+00 0. -1.
          1    1    5    5  503    0 -0.12116036349E+03 -0.89898266225E+02  0.93438272753E+02  0.17746053862E+03  0.00000000000E+00 0. -1.
         -2    1    5    5    0  503 -0.18241916218E+03 -0.25417724769E+03  0.12369134563E+03  0.33642588034E+03  0.00000000000E+00 0.  1.
         -1    1    6    6    0  502  0.19577489157E+03 -0.33168595626E+02  0.40729526771E+03  0.45311962990E+03  0.00000000000E+00 0.  1.
<mgrwt>
<rscale>  0 0.15189292E+04</rscale>
<asrwt>0</asrwt>
<pdfrwt beam="1">  1        2 0.23348165E+00 0.15189292E+04</pdfrwt>
<pdfrwt beam="2">  1       -2 0.58470336E-01 0.15189292E+04</pdfrwt>
<totfact> 0.32733607E+01</totfact>
</mgrwt>
</event>
<event>
12    1  0.1980523E-007  0.2237368E+04  0.7818608E-02  0.8503034E-01
          1   -1    0    0  501    0  0.00000000000E+00  0.00000000000E+00  0.83183527104E+03  0.83183527104E+03  0.00000000000E+00 0. -1.
         -1   -1    0    0    0  501 -0.00000000000E+00 -0.00000000000E+00 -0.15044493579E+04  0.15044493579E+04  0.00000000000E+00 0.  1.
         23    2    1    2    0    0 -0.23393333571E+03 -0.40479950075E+03  0.56314060662E+03  0.73735526003E+03  0.89319624473E+02 0.  0.
        254    2    1    2    0    0  0.23393333571E+03  0.40479950075E+03 -0.12357546935E+04  0.15989293689E+04  0.90049876341E+03 0.  0.
        -24    2    4    4    0    0 -0.12567941060E+03 -0.62188918620E+02  0.61155671753E+02  0.17209768416E+03  0.78834135113E+02 0.  0.
         24    2    4    4    0    0  0.35961274631E+03  0.46698841937E+03 -0.12969103652E+04  0.14268316847E+04  0.80452781115E+02 0.  0.
         11    1    3    3    0    0 -0.21168160433E+03 -0.29000092154E+03  0.42236818937E+03  0.55435054207E+03  0.00000000000E+00 0. -1.
        -11    1    3    3    0    0 -0.22251731375E+02 -0.11479857921E+03  0.14077241725E+03  0.18300471796E+03  0.00000000000E+00 0.  1.
          2    1    6    6  502    0  0.13572201868E+02  0.55863017311E+02 -0.12268636163E+03  0.13548735992E+03  0.00000000000E+00 0. -1.
          3    1    5    5  503    0 -0.91134664067E+00 -0.90208270302E+01  0.32153294740E+02  0.33407188383E+02  0.00000000000E+00 0. -1.
         -4    1    5    5    0  503 -0.12476806396E+03 -0.53168091589E+02  0.29002377013E+02  0.13869049578E+03  0.00000000000E+00 0.  1.
         -1    1    6    6    0  502  0.34604054444E+03  0.41112540206E+03 -0.11742240036E+04  0.12913443248E+04  0.00000000000E+00 0.  1.
<mgrwt>
<rscale>  0 0.22373681E+04</rscale>
<asrwt>0</asrwt>
<pdfrwt beam="1">  1        1 0.12797466E+00 0.22373681E+04</pdfrwt>
<pdfrwt beam="2">  1       -1 0.23145375E+00 0.22373681E+04</pdfrwt>
<totfact> 0.17409487E+00</totfact>
</mgrwt>
</event>
<event>
12    1  0.1980523E-007  0.1761304E+04  0.7818608E-02  0.8727153E-01
         -1   -1    0    0    0  501 -0.00000000000E+00  0.00000000000E+00  0.41938481602E+03  0.41938481602E+03  0.00000000000E+00 0.  1.
          1   -1    0    0  501    0  0.00000000000E+00 -0.00000000000E+00 -0.18492505635E+04  0.18492505635E+04  0.00000000000E+00 0. -1.
         23    2    1    2    0    0 -0.60918026594E+03 -0.13831410928E+03 -0.31195069636E+03  0.70383597448E+03  0.88546331211E+02 0.  0.
        254    2    1    2    0    0  0.60918026594E+03  0.13831410928E+03 -0.11179150511E+04  0.15647994050E+04  0.89923952718E+03 0.  0.
        -24    2    4    4    0    0 -0.21625576492E+03  0.12227549553E+03 -0.33274075147E+03  0.42260011535E+03  0.78463986278E+02 0.  0.
         24    2    4    4    0    0  0.82543603086E+03  0.16038613752E+02 -0.78517429966E+03  0.11421992897E+04  0.80738208729E+02 0.  0.
         13    1    3    3    0    0 -0.27761812481E+03 -0.10099478863E+03 -0.11962926738E+03  0.31872077461E+03  0.00000000000E+00 0. -1.
        -13    1    3    3    0    0 -0.33156214113E+03 -0.37319320653E+02 -0.19232142898E+03  0.38511519986E+03  0.00000000000E+00 0.  1.
          4    1    6    6  502    0  0.22152727454E+03  0.37065547035E+02 -0.19296456815E+03  0.29611401977E+03  0.00000000000E+00 0. -1.
          1    1    5    5  503    0 -0.49664614282E+02  0.48027591499E+01 -0.31966656996E+02  0.59257974710E+02  0.00000000000E+00 0. -1.
         -2    1    5    5    0  503 -0.16659115064E+03  0.11747273638E+03 -0.30077409447E+03  0.36334214064E+03  0.00000000000E+00 0.  1.
         -3    1    6    6    0  502  0.60390875632E+03 -0.21026933283E+02 -0.59220973150E+03  0.84608526992E+03  0.00000000000E+00 0.  1.
<mgrwt>
<rscale>  0 0.17613036E+04</rscale>
<asrwt>0</asrwt>
<pdfrwt beam="1">  1        1 0.28450009E+00 0.17613036E+04</pdfrwt>
<pdfrwt beam="2">  1       -1 0.64520741E-01 0.17613036E+04</pdfrwt>
<totfact> 0.86980038E+00</totfact>
</mgrwt>
</event>
<event>
12    1  0.2043129E-007  0.2047647E+04  0.7818608E-02  0.8584662E-01
          1   -1    0    0  501    0  0.00000000000E+00  0.00000000000E+00  0.96706840462E+03  0.96706840462E+03  0.00000000000E+00 0. -1.
         -1   -1    0    0    0  501 -0.00000000000E+00 -0.00000000000E+00 -0.10839095005E+04  0.10839095005E+04  0.00000000000E+00 0.  1.
         23    2    1    2    0    0  0.21093508766E+03 -0.74883130224E+03  0.22139331699E+03  0.81396136110E+03  0.90973436480E+02 0.  0.
        254    2    1    2    0    0 -0.21093508766E+03  0.74883130224E+03 -0.33823441290E+03  0.12370165441E+04  0.90031410173E+03 0.  0.
        -24    2    4    4    0    0 -0.52921466352E+03  0.65966341465E+03 -0.25049326883E+03  0.88564612518E+03  0.79988753049E+02 0.  0.
         24    2    4    4    0    0  0.31827957586E+03  0.89167887587E+02 -0.87741144074E+02  0.35137041887E+03  0.80683717734E+02 0.  0.
         11    1    3    3    0    0  0.84154074748E+02 -0.39931971658E+03  0.78033526950E+02  0.41548450714E+03  0.00000000000E+00 0.  1.
        -11    1    3    3    0    0  0.12678101291E+03 -0.34951158566E+03  0.14335979004E+03  0.39847685397E+03  0.00000000000E+00 0. -1.
          4    1    6    6  502    0  0.28696104573E+02  0.26441336250E+02  0.83021436825E+01  0.39894063093E+02  0.00000000000E+00 0. -1.
          1    1    5    5  503    0 -0.12445630204E+02  0.27570761555E+02 -0.23275588938E+02  0.38167966206E+02  0.00000000000E+00 0. -1.
         -2    1    5    5    0  503 -0.51676903331E+03  0.63209265310E+03 -0.22721767989E+03  0.84747815898E+03  0.00000000000E+00 0.  1.
         -3    1    6    6    0  502  0.28958347129E+03  0.62726551337E+02 -0.96043287756E+02  0.31147635578E+03  0.00000000000E+00 0.  1.
<mgrwt>
<rscale>  0 0.20476471E+04</rscale>
<asrwt>0</asrwt>
<pdfrwt beam="1">  1        1 0.14877975E+00 0.20476471E+04</pdfrwt>
<pdfrwt beam="2">  1       -1 0.16675531E+00 0.20476471E+04</pdfrwt>
<totfact> 0.38591193E+00</totfact>
</mgrwt>
</event>
<event>
12    1  0.1980523E-007  0.1544062E+04  0.7818608E-02  0.8855669E-01
         -1   -1    0    0    0  501 -0.00000000000E+00  0.00000000000E+00  0.38263397609E+03  0.38263397609E+03  0.00000000000E+00 0.  1.
          1   -1    0    0  501    0  0.00000000000E+00 -0.00000000000E+00 -0.15577077660E+04  0.15577077660E+04  0.00000000000E+00 0. -1.
         23    2    1    2    0    0 -0.29909410373E+03  0.38697619965E+03 -0.54099444479E+03  0.73493151411E+03  0.90782592803E+02 0.  0.
        254    2    1    2    0    0  0.29909410373E+03 -0.38697619965E+03 -0.63407934507E+03  0.12054102279E+04  0.90097133127E+03 0.  0.
        -24    2    4    4    0    0 -0.19655203269E+03  0.16179509965E+03 -0.80787944159E+02  0.27839798231E+03  0.78539090946E+02 0.  0.
         24    2    4    4    0    0  0.49564613642E+03 -0.54877129930E+03 -0.55329140091E+03  0.92701224562E+03  0.80033103911E+02 0.  0.
         13    1    3    3    0    0 -0.20945731998E+03  0.21024874267E+03 -0.28775010766E+03  0.41337274602E+03  0.00000000000E+00 0. -1.
        -13    1    3    3    0    0 -0.89636783750E+02  0.17672745698E+03 -0.25324433713E+03  0.32155876809E+03  0.00000000000E+00 0.  1.
          4    1    6    6  502    0  0.21126454862E+03 -0.23626042649E+03 -0.28692850329E+03  0.42752738465E+03  0.00000000000E+00 0. -1.
          1    1    5    5  503    0 -0.15785574978E+03  0.96391151081E+02 -0.30978065053E+02  0.18753488278E+03  0.00000000000E+00 0. -1.
         -2    1    5    5    0  503 -0.38696282913E+02  0.65403948569E+02 -0.49809879105E+02  0.90863099530E+02  0.00000000000E+00 0.  1.
         -3    1    6    6    0  502  0.28438158781E+03 -0.31251087281E+03 -0.26636289762E+03  0.49948486097E+03  0.00000000000E+00 0.  1.
<mgrwt>
<rscale>  0 0.15440621E+04</rscale>
<asrwt>0</asrwt>
<pdfrwt beam="1">  1        1 0.23964735E+00 0.15440621E+04</pdfrwt>
<pdfrwt beam="2">  1       -1 0.58866766E-01 0.15440621E+04</pdfrwt>
<totfact> 0.16821996E+01</totfact>
</mgrwt>
</event>
<event>
12    1  0.1980523E-007  0.1390147E+04  0.7818608E-02  0.8960982E-01
         -1   -1    0    0    0  501 -0.00000000000E+00  0.00000000000E+00  0.32509820427E+03  0.32509820427E+03  0.00000000000E+00 0.  1.
          1   -1    0    0  501    0  0.00000000000E+00 -0.00000000000E+00 -0.14860962309E+04  0.14860962309E+04  0.00000000000E+00 0. -1.
         23    2    1    2    0    0  0.10217619884E+03 -0.10254488751E+03 -0.81542740473E+03  0.83308607799E+03  0.90305766105E+02 0.  0.
        254    2    1    2    0    0 -0.10217619884E+03  0.10254488751E+03 -0.34557062190E+03  0.97810835718E+03  0.90350510464E+03 0.  0.
        -24    2    4    4    0    0 -0.11192039207E+03  0.37483633993E+03 -0.51163852983E+03  0.64897454814E+03  0.79784227966E+02 0.  0.
         24    2    4    4    0    0  0.97441932293E+01 -0.27229145242E+03  0.16606790793E+03  0.32913380905E+03  0.80702725186E+02 0.  0.
         11    1    3    3    0    0 -0.86905680841E+01 -0.40937349427E+02 -0.26116785922E+03  0.26449960915E+03  0.00000000000E+00 0. -1.
        -11    1    3    3    0    0  0.11086676693E+03 -0.61607538084E+02 -0.55425954551E+03  0.56858646884E+03  0.00000000000E+00 0.  1.
          4    1    6    6  502    0  0.20529573912E+01 -0.31174292282E+02 -0.72707361045E+01  0.32076700840E+02  0.00000000000E+00 0. -1.
          1    1    5    5  503    0 -0.11882246867E+02  0.65903470922E+02 -0.45818528593E+02  0.81140574515E+02  0.00000000000E+00 0. -1.
         -2    1    5    5    0  503 -0.10003814520E+03  0.30893286901E+03 -0.46582000123E+03  0.56783397362E+03  0.00000000000E+00 0.  1.
         -3    1    6    6    0  502  0.76912358381E+01 -0.24111716014E+03  0.17333864403E+03  0.29705710821E+03  0.00000000000E+00 0.  1.
<mgrwt>
<rscale>  0 0.13901471E+04</rscale>
<asrwt>0</asrwt>
<pdfrwt beam="1">  1        1 0.22863019E+00 0.13901471E+04</pdfrwt>
<pdfrwt beam="2">  1       -1 0.50015108E-01 0.13901471E+04</pdfrwt>
<totfact> 0.26180833E+01</totfact>
</mgrwt>
</event>
<event>
12    1  0.1980523E-007  0.2858157E+04  0.7818608E-02  0.8285437E-01
          1   -1    0    0  501    0  0.00000000000E+00  0.00000000000E+00  0.15282193472E+04  0.15282193472E+04  0.00000000000E+00 0.  1.
         -1   -1    0    0    0  501 -0.00000000000E+00 -0.00000000000E+00 -0.13363694826E+04  0.13363694826E+04  0.00000000000E+00 0. -1.
         23    2    1    2    0    0 -0.62231317922E+03  0.31648780853E+03  0.11723955415E+04  0.13674305222E+04  0.88975846178E+02 0.  0.
        254    2    1    2    0    0  0.62231317922E+03 -0.31648780853E+03 -0.98054567689E+03  0.14971583076E+04  0.89026678449E+03 0.  0.
        -24    2    4    4    0    0  0.46782753585E+03 -0.42633336955E+02 -0.10608510829E+04  0.11629980549E+04  0.80493793446E+02 0.  0.
         24    2    4    4    0    0  0.15448564337E+03 -0.27385447157E+03  0.80305406014E+02  0.33416025274E+03  0.79699627788E+02 0.  0.
         13    1    3    3    0    0 -0.35560938048E+03  0.14191391684E+03  0.69293120762E+03  0.79167622786E+03  0.00000000000E+00 0.  1.
        -13    1    3    3    0    0 -0.26670379874E+03  0.17457389169E+03  0.47946433389E+03  0.57575429429E+03  0.00000000000E+00 0. -1.
          2    1    6    6  502    0  0.32828910885E+02 -0.27833820793E+02  0.36081294772E+02  0.56163322571E+02  0.00000000000E+00 0. -1.
          1    1    5    5  503    0  0.31668019974E+02  0.62896921205E+00 -0.33740204385E+02  0.46278077783E+02  0.00000000000E+00 0. -1.
         -2    1    5    5    0  503  0.43615951587E+03 -0.43262306167E+02 -0.10271108785E+04  0.11167199771E+04  0.00000000000E+00 0.  1.
         -1    1    6    6    0  502  0.12165673249E+03 -0.24602065078E+03  0.44224111241E+02  0.27799693017E+03  0.00000000000E+00 0.  1.
<mgrwt>
<rscale>  0 0.28581572E+04</rscale>
<asrwt>0</asrwt>
<pdfrwt beam="1">  1        1 0.23511067E+00 0.28581572E+04</pdfrwt>
<pdfrwt beam="2">  1       -1 0.20559530E+00 0.28581572E+04</pdfrwt>
<totfact> 0.74214279E-01</totfact>
</mgrwt>
</event>
<event>
12    1  0.1980523E-007  0.1801400E+04  0.7818608E-02  0.8705555E-01
          1   -1    0    0  501    0  0.00000000000E+00  0.00000000000E+00  0.15761386508E+04  0.15761386508E+04  0.00000000000E+00 0. -1.
         -1   -1    0    0    0  501 -0.00000000000E+00 -0.00000000000E+00 -0.51471399867E+03  0.51471399867E+03  0.00000000000E+00 0.  1.
         23    2    1    2    0    0 -0.48248512937E+03 -0.33374232420E+03  0.77815982053E+03  0.97891667461E+03  0.92570570424E+02 0.  0.
        254    2    1    2    0    0  0.48248512937E+03  0.33374232420E+03  0.28326483157E+03  0.11119359748E+04  0.90110310635E+03 0.  0.
        -24    2    4    4    0    0 -0.53833629862E+02 -0.24144035247E+03 -0.29262413688E+02  0.26254068204E+03  0.82944664463E+02 0.  0.
         24    2    4    4    0    0  0.53631875923E+03  0.57518267668E+03  0.31252724525E+03  0.84939529279E+03  0.72980554437E+02 0.  0.
         11    1    3    3    0    0 -0.36288959284E+03 -0.29202224670E+03  0.58250217676E+03  0.74583820973E+03  0.00000000000E+00 0.  1.
        -11    1    3    3    0    0 -0.11959553653E+03 -0.41720077501E+02  0.19565764377E+03  0.23307846488E+03  0.00000000000E+00 0. -1.
          2    1    6    6  502    0  0.36579306432E+03  0.40062171058E+03  0.25088588875E+03  0.59770063583E+03  0.00000000000E+00 0. -1.
          3    1    5    5  503    0 -0.22265058702E+02 -0.16082748731E+03 -0.56296137929E+02  0.17184431518E+03  0.00000000000E+00 0. -1.
         -4    1    5    5    0  503 -0.31568571160E+02 -0.80612865163E+02  0.27033724241E+02  0.90696366858E+02  0.00000000000E+00 0.  1.
         -1    1    6    6    0  502  0.17052569491E+03  0.17456096609E+03  0.61641356501E+02  0.25169465695E+03  0.00000000000E+00 0.  1.
<mgrwt>
<rscale>  0 0.18014002E+04</rscale>
<asrwt>0</asrwt>
<pdfrwt beam="1">  1        1 0.24248287E+00 0.18014002E+04</pdfrwt>
<pdfrwt beam="2">  1       -1 0.79186770E-01 0.18014002E+04</pdfrwt>
<totfact> 0.87160553E+00</totfact>
</mgrwt>
</event>
<event>
12    1  0.1980523E-007  0.1726958E+04  0.7818608E-02  0.8746137E-01
         -2   -1    0    0    0  501 -0.00000000000E+00  0.00000000000E+00  0.29479776814E+03  0.29479776814E+03  0.00000000000E+00 0.  1.
          2   -1    0    0  501    0  0.00000000000E+00 -0.00000000000E+00 -0.25291776020E+04  0.25291776020E+04  0.00000000000E+00 0. -1.
         23    2    1    2    0    0 -0.39581576852E+03  0.27434966410E+03 -0.14721651813E+04  0.15499524573E+04  0.56075289108E+02 0.  0.
        254    2    1    2    0    0  0.39581576852E+03 -0.27434966410E+03 -0.76221465260E+03  0.12740229129E+04  0.90012518303E+03 0.  0.
        -24    2    4    4    0    0 -0.28574790566E+03 -0.79687294562E+02 -0.21489270947E+03  0.37496392489E+03  0.80107040140E+02 0.  0.
         24    2    4    4    0    0  0.68156367419E+03 -0.19466236954E+03 -0.54732194313E+03  0.89905898800E+03  0.79519018964E+02 0.  0.
         13    1    3    3    0    0 -0.29465293331E+03  0.19901935364E+03 -0.11598984746E+04  0.12131749773E+04  0.00000000000E+00 0.  1.
        -13    1    3    3    0    0 -0.10116283521E+03  0.75330310462E+02 -0.31226670668E+03  0.33677747996E+03  0.00000000000E+00 0. -1.
          4    1    6    6  502    0  0.35007296659E+03 -0.13180560985E+03 -0.25579494113E+03  0.45316095666E+03  0.00000000000E+00 0. -1.
          3    1    5    5  503    0 -0.24608953060E+03 -0.38674954177E+02 -0.18682179666E+03  0.31138110549E+03  0.00000000000E+00 0. -1.
         -4    1    5    5    0  503 -0.39658375069E+02 -0.41012340385E+02 -0.28070912813E+02  0.63582819402E+02  0.00000000000E+00 0.  1.
         -3    1    6    6    0  502  0.33149070760E+03 -0.62856759690E+02 -0.29152700200E+03  0.44589803134E+03  0.00000000000E+00 0.  1.
<mgrwt>
<rscale>  0 0.17269579E+04</rscale>
<asrwt>0</asrwt>
<pdfrwt beam="1">  1        2 0.38910424E+00 0.17269579E+04</pdfrwt>
<pdfrwt beam="2">  1       -2 0.45353503E-01 0.17269579E+04</pdfrwt>
<totfact> 0.14679686E+01</totfact>
</mgrwt>
</event>
<event>
12    1  0.2354403E-007  0.3687848E+04  0.7818608E-02  0.8070660E-01
         -2   -1    0    0    0  501 -0.00000000000E+00  0.00000000000E+00  0.18628506812E+04  0.18628506812E+04  0.00000000000E+00 0.  1.
          2   -1    0    0  501    0  0.00000000000E+00 -0.00000000000E+00 -0.18251896851E+04  0.18251896851E+04  0.00000000000E+00 0. -1.
         23    2    1    2    0    0  0.12360996423E+04 -0.26481318171E+03  0.12031756107E+04  0.17475411593E+04  0.90554990814E+02 0.  0.
        254    2    1    2    0    0 -0.12360996423E+04  0.26481318171E+03 -0.11655146146E+04  0.19404992069E+04  0.89946901462E+03 0.  0.
        -24    2    4    4    0    0 -0.75636915875E+03  0.12481873217E+03 -0.12174538870E+03  0.78026778880E+03  0.79510140016E+02 0.  0.
         24    2    4    4    0    0 -0.47973048357E+03  0.13999444954E+03 -0.10437692259E+04  0.11602314181E+04  0.83324449382E+02 0.  0.
         11    1    3    3    0    0  0.42600490607E+03 -0.64350789177E+02  0.36353277169E+03  0.56371737613E+03  0.00000000000E+00 0.  1.
        -11    1    3    3    0    0  0.81009473625E+03 -0.20046239253E+03  0.83964283900E+03  0.11838237832E+04  0.00000000000E+00 0. -1.
          4    1    6    6  502    0 -0.18840470176E+01  0.51057178285E+01 -0.40038008595E+02  0.40406189129E+02  0.00000000000E+00 0. -1.
          1    1    5    5  503    0 -0.29966573553E+03  0.65040799069E+02 -0.84998530240E+02  0.31820529339E+03  0.00000000000E+00 0. -1.
         -2    1    5    5    0  503 -0.45670342322E+03  0.59777933102E+02 -0.36746858456E+02  0.46206249542E+03  0.00000000000E+00 0.  1.
         -3    1    6    6    0  502 -0.47784643655E+03  0.13488873171E+03 -0.10037312173E+04  0.11198252290E+04  0.00000000000E+00 0.  1.
<mgrwt>
<rscale>  0 0.36878481E+04</rscale>
<asrwt>0</asrwt>
<pdfrwt beam="1">  1        2 0.28079841E+00 0.36878481E+04</pdfrwt>
<pdfrwt beam="2">  1       -2 0.28659241E+00 0.36878481E+04</pdfrwt>
<totfact> 0.25953868E-01</totfact>
</mgrwt>
</event>
<event>
12    1  0.1980523E-007  0.2313393E+04  0.7818608E-02  0.8472659E-01
          2   -1    0    0  501    0  0.00000000000E+00  0.00000000000E+00  0.11548830814E+04  0.11548830814E+04  0.00000000000E+00 0. -1.
         -2   -1    0    0    0  501 -0.00000000000E+00 -0.00000000000E+00 -0.11585128883E+04  0.11585128883E+04  0.00000000000E+00 0.  1.
         23    2    1    2    0    0  0.65894686603E+03 -0.69622683835E+03 -0.20255113830E+03  0.98397482851E+03  0.90756359758E+02 0.  0.
        254    2    1    2    0    0 -0.65894686603E+03  0.69622683835E+03  0.19892133144E+03  0.13294211411E+04  0.89935982327E+03 0.  0.
        -24    2    4    4    0    0 -0.19365975719E+03  0.50597149004E+03  0.49716829133E+03  0.73963046663E+03  0.79785129998E+02 0.  0.
         24    2    4    4    0    0 -0.46528710883E+03  0.19025534830E+03 -0.29824695989E+03  0.58979067451E+03  0.78820044715E+02 0.  0.
         13    1    3    3    0    0  0.12404834454E+03 -0.18666741494E+03 -0.44871515301E+02  0.22857420780E+03  0.00000000000E+00 0.  1.
        -13    1    3    3    0    0  0.53489852148E+03 -0.50955942341E+03 -0.15767962300E+03  0.75540062072E+03  0.00000000000E+00 0. -1.
          2    1    6    6  502    0 -0.43254363596E+03  0.17435887866E+03 -0.24936513621E+03  0.52884590074E+03  0.00000000000E+00 0. -1.
          1    1    5    5  503    0 -0.12581793325E+03  0.40900788853E+03  0.36738571821E+03  0.56399456660E+03  0.00000000000E+00 0. -1.
         -2    1    5    5    0  503 -0.67841823947E+02  0.96963601518E+02  0.12978257311E+03  0.17563590003E+03  0.00000000000E+00 0.  1.
         -1    1    6    6    0  502 -0.32743472878E+02  0.15896469638E+02 -0.48881823681E+02  0.60944773766E+02  0.00000000000E+00 0.  1.
<mgrwt>
<rscale>  0 0.23133931E+04</rscale>
<asrwt>0</asrwt>
<pdfrwt beam="1">  1        2 0.17767432E+00 0.23133931E+04</pdfrwt>
<pdfrwt beam="2">  1       -2 0.17823275E+00 0.23133931E+04</pdfrwt>
<totfact> 0.34059292E+00</totfact>
</mgrwt>
</event>
<event>
12    1  0.1980523E-007  0.1443661E+04  0.7818608E-02  0.8922807E-01
          2   -1    0    0  501    0  0.00000000000E+00  0.00000000000E+00  0.24161377859E+04  0.24161377859E+04  0.00000000000E+00 0. -1.
         -2   -1    0    0    0  501 -0.00000000000E+00 -0.00000000000E+00 -0.21564967366E+03  0.21564967366E+03  0.00000000000E+00 0.  1.
         23    2    1    2    0    0 -0.14027136825E+03 -0.41750470103E+03  0.63075953184E+03  0.77468655825E+03  0.91079330154E+02 0.  0.
        254    2    1    2    0    0  0.14027136825E+03  0.41750470103E+03  0.15697285804E+04  0.18571009013E+04  0.88926357703E+03 0.  0.
        -24    2    4    4    0    0  0.40912317204E+02 -0.13146944285E+03 -0.29081467373E+02  0.16187969760E+03  0.80007953670E+02 0.  0.
         24    2    4    4    0    0  0.99359051046E+02  0.54897414388E+03  0.15988100477E+04  0.16952212037E+04  0.79602317875E+02 0.  0.
         13    1    3    3    0    0 -0.52975212901E+02 -0.19662119339E+03  0.36732277513E+03  0.41999081895E+03  0.00000000000E+00 0.  1.
        -13    1    3    3    0    0 -0.87296155349E+02 -0.22088350765E+03  0.26343675671E+03  0.35469573930E+03  0.00000000000E+00 0. -1.
          4    1    6    6  502    0  0.10324479505E+03  0.51173633534E+03  0.15337021553E+04  0.16201160038E+04  0.00000000000E+00 0. -1.
          3    1    5    5  503    0 -0.24274197898E+02 -0.41527470015E+02 -0.10901267608E+02  0.49321446501E+02  0.00000000000E+00 0. -1.
         -4    1    5    5    0  503  0.65186515102E+02 -0.89941972830E+02 -0.18180199765E+02  0.11255825110E+03  0.00000000000E+00 0.  1.
         -3    1    6    6    0  502 -0.38857440062E+01  0.37237808537E+02  0.65107892398E+02  0.75105199844E+02  0.00000000000E+00 0.  1.
<mgrwt>
<rscale>  0 0.14436611E+04</rscale>
<asrwt>0</asrwt>
<pdfrwt beam="1">  1        2 0.37171349E+00 0.14436611E+04</pdfrwt>
<pdfrwt beam="2">  1       -2 0.33176875E-01 0.14436611E+04</pdfrwt>
<totfact> 0.32117006E+01</totfact>
</mgrwt>
</event>
<event>
12    1  0.1980523E-007  0.1630367E+04  0.7818608E-02  0.8802106E-01
         -1   -1    0    0    0  501 -0.00000000000E+00  0.00000000000E+00  0.30781371126E+03  0.30781371126E+03  0.00000000000E+00 0.  1.
          1   -1    0    0  501    0  0.00000000000E+00 -0.00000000000E+00 -0.21588521560E+04  0.21588521560E+04  0.00000000000E+00 0. -1.
         23    2    1    2    0    0  0.52970592577E+03 -0.14669519728E+03 -0.48992596585E+03  0.74216812843E+03  0.93157018802E+02 0.  0.
        254    2    1    2    0    0 -0.52970592577E+03  0.14669519728E+03 -0.13611124789E+04  0.17244977388E+04  0.90507315855E+03 0.  0.
        -24    2    4    4    0    0 -0.28854401143E+03  0.51991333470E+03 -0.67933068352E+03  0.90635080611E+03  0.80087976796E+02 0.  0.
         24    2    4    4    0    0 -0.24116191434E+03 -0.37321813742E+03 -0.68178179536E+03  0.81814693271E+03  0.84185153025E+02 0.  0.
         11    1    3    3    0    0  0.16502810810E+03 -0.73686800146E+02 -0.11587063427E+03  0.21468587486E+03  0.00000000000E+00 0. -1.
        -11    1    3    3    0    0  0.36467781767E+03 -0.73008397131E+02 -0.37405533159E+03  0.52748225358E+03  0.00000000000E+00 0.  1.
          4    1    6    6  502    0 -0.23176007870E+03 -0.31763066385E+03 -0.62297473751E+03  0.73668140758E+03  0.00000000000E+00 0. -1.
          3    1    5    5  503    0 -0.19409827539E+03  0.31940560032E+03 -0.37100400990E+03  0.52662895229E+03  0.00000000000E+00 0. -1.
         -4    1    5    5    0  503 -0.94445736043E+02  0.20050773438E+03 -0.30832667362E+03  0.37972185382E+03  0.00000000000E+00 0.  1.
         -3    1    6    6    0  502 -0.94018356316E+01 -0.55587473577E+02 -0.58807057852E+02  0.81465525132E+02  0.00000000000E+00 0.  1.
<mgrwt>
<rscale>  0 0.16303672E+04</rscale>
<asrwt>0</asrwt>
<pdfrwt beam="1">  1        1 0.33213111E+00 0.16303672E+04</pdfrwt>
<pdfrwt beam="2">  1       -1 0.47355954E-01 0.16303672E+04</pdfrwt>
<totfact> 0.99046145E+00</totfact>
</mgrwt>
</event>
<event>
12    1  0.1980523E-007  0.2804816E+04  0.7818608E-02  0.8301775E-01
          2   -1    0    0  501    0  0.00000000000E+00  0.00000000000E+00  0.20886883081E+04  0.20886883081E+04  0.00000000000E+00 0. -1.
         -2   -1    0    0    0  501 -0.00000000000E+00 -0.00000000000E+00 -0.94161849594E+03  0.94161849594E+03  0.00000000000E+00 0.  1.
         23    2    1    2    0    0 -0.39577049913E+03 -0.11861436444E+04  0.38547481832E+03  0.13118849668E+04  0.94235329785E+02 0.  0.
        254    2    1    2    0    0  0.39577049913E+03  0.11861436444E+04  0.76159499387E+03  0.17184218372E+04  0.89965306801E+03 0.  0.
        -24    2    4    4    0    0  0.43075945118E+02  0.17358699187E+03  0.59988020543E+03  0.63102381538E+03  0.79666893442E+02 0.  0.
         24    2    4    4    0    0  0.35269455401E+03  0.10125566526E+04  0.16171478844E+03  0.10873980219E+04  0.81353316181E+02 0.  0.
         11    1    3    3    0    0 -0.22693160508E+03 -0.54370284144E+03  0.16169325817E+03  0.61094635027E+03  0.00000000000E+00 0.  1.
        -11    1    3    3    0    0 -0.16883889405E+03 -0.64244080300E+03  0.22378156014E+03  0.70093861655E+03  0.00000000000E+00 0. -1.
          4    1    6    6  502    0  0.18686207602E+02  0.11892318885E+03  0.41014240993E+01  0.12045215183E+03  0.00000000000E+00 0. -1.
          1    1    5    5  503    0  0.86966698149E+01  0.36433753869E+00  0.10891950351E+03  0.10926675182E+03  0.00000000000E+00 0. -1.
         -2    1    5    5    0  503  0.34379275303E+02  0.17322265433E+03  0.49096070192E+03  0.52175706356E+03  0.00000000000E+00 0.  1.
         -3    1    6    6    0  502  0.33400834641E+03  0.89363346372E+03  0.15761336434E+03  0.96694587003E+03  0.00000000000E+00 0.  1.
<mgrwt>
<rscale>  0 0.28048155E+04</rscale>
<asrwt>0</asrwt>
<pdfrwt beam="1">  1        2 0.32133666E+00 0.28048155E+04</pdfrwt>
<pdfrwt beam="2">  1       -2 0.14486438E+00 0.28048155E+04</pdfrwt>
<totfact> 0.17035112E+00</totfact>
</mgrwt>
</event>
<event>
12    1  0.1980523E-007  0.2324843E+04  0.7818608E-02  0.8468190E-01
         -2   -1    0    0    0  501 -0.00000000000E+00  0.00000000000E+00  0.96065203085E+03  0.96065203085E+03  0.00000000000E+00 0.  1.
          2   -1    0    0  501    0  0.00000000000E+00 -0.00000000000E+00 -0.14065691147E+04  0.14065691147E+04  0.00000000000E+00 0. -1.
         23    2    1    2    0    0  0.89104759943E+03 -0.24933806554E+03 -0.54118432808E+03  0.10757994226E+04  0.91261302414E+02 0.  0.
        254    2    1    2    0    0 -0.89104759943E+03  0.24933806554E+03  0.95267244263E+02  0.12914217229E+04  0.89585653049E+03 0.  0.
        -24    2    4    4    0    0  0.72623903740E+01 -0.37278881803E+02  0.30881396531E+03  0.32139815950E+03  0.80549701525E+02 0.  0.
         24    2    4    4    0    0 -0.89830998981E+03  0.28661694734E+03 -0.21354672105E+03  0.97002356343E+03  0.78951879270E+02 0.  0.
         11    1    3    3    0    0  0.48830674549E+03 -0.93194031800E+02 -0.31028455220E+03  0.58600777178E+03  0.00000000000E+00 0.  1.
        -11    1    3    3    0    0  0.40274085394E+03 -0.15614403374E+03 -0.23089977587E+03  0.48979165081E+03  0.00000000000E+00 0. -1.
          2    1    6    6  502    0 -0.24656891302E+03  0.64150252380E+02 -0.91000727923E+02  0.27054133923E+03  0.00000000000E+00 0. -1.
          3    1    5    5  503    0 -0.12190817776E+02  0.18626823993E+02  0.15494441606E+03  0.15653544863E+03  0.00000000000E+00 0. -1.
         -4    1    5    5    0  503  0.19453208150E+02 -0.55905705796E+02  0.15386954925E+03  0.16486271087E+03  0.00000000000E+00 0.  1.
         -1    1    6    6    0  502 -0.65174107679E+03  0.22246669496E+03 -0.12254599312E+03  0.69948222420E+03  0.00000000000E+00 0.  1.
<mgrwt>
<rscale>  0 0.23248428E+04</rscale>
<asrwt>0</asrwt>
<pdfrwt beam="1">  1        2 0.21639525E+00 0.23248428E+04</pdfrwt>
<pdfrwt beam="2">  1       -2 0.14779262E+00 0.23248428E+04</pdfrwt>
<totfact> 0.40453359E+00</totfact>
</mgrwt>
</event>
<event>
12    1  0.1980523E-007  0.2497808E+04  0.7818608E-02  0.8403767E-01
          2   -1    0    0  501    0  0.00000000000E+00  0.00000000000E+00  0.17717489307E+04  0.17717489307E+04  0.00000000000E+00 0. -1.
         -2   -1    0    0    0  501 -0.00000000000E+00 -0.00000000000E+00 -0.88035127118E+03  0.88035127118E+03  0.00000000000E+00 0.  1.
         23    2    1    2    0    0  0.61903452501E+03 -0.46552054547E+03  0.11950308260E+04  0.14270120676E+04  0.91387332266E+02 0.  0.
        254    2    1    2    0    0 -0.61903452501E+03  0.46552054547E+03 -0.30363316645E+03  0.12250881343E+04  0.89929678957E+03 0.  0.
        -24    2    4    4    0    0 -0.61582943128E+03 -0.87479041472E+02 -0.13248693506E+03  0.64087636814E+03  0.79191288352E+02 0.  0.
         24    2    4    4    0    0 -0.32050937285E+01  0.55299958694E+03 -0.17114623139E+03  0.58421176620E+03  0.78699043605E+02 0.  0.
         11    1    3    3    0    0  0.28191806984E+03 -0.15676375617E+03  0.51035699234E+03  0.60375237720E+03  0.00000000000E+00 0.  1.
        -11    1    3    3    0    0  0.33711645517E+03 -0.30875678930E+03  0.68467383364E+03  0.82325969035E+03  0.00000000000E+00 0. -1.
          2    1    6    6  502    0 -0.38465044841E+02  0.38371477856E+03 -0.11561314650E+03  0.40259531866E+03  0.00000000000E+00 0. -1.
          1    1    5    5  503    0 -0.57870415695E+03 -0.68022539211E+02 -0.10888822331E+03  0.59277500983E+03  0.00000000000E+00 0. -1.
         -2    1    5    5    0  503 -0.37125274334E+02 -0.19456502261E+02 -0.23598711752E+02  0.48101358306E+02  0.00000000000E+00 0.  1.
         -1    1    6    6    0  502  0.35259951112E+02  0.16928480838E+03 -0.55533084888E+02  0.18161644754E+03  0.00000000000E+00 0.  1.
<mgrwt>
<rscale>  0 0.24978082E+04</rscale>
<asrwt>0</asrwt>
<pdfrwt beam="1">  1        2 0.27257676E+00 0.24978082E+04</pdfrwt>
<pdfrwt beam="2">  1       -2 0.13543866E+00 0.24978082E+04</pdfrwt>
<totfact> 0.31227400E+00</totfact>
</mgrwt>
</event>
<event>
12    1  0.1980523E-007  0.1313488E+04  0.7818608E-02  0.9018937E-01
          2   -1    0    0  501    0  0.00000000000E+00  0.00000000000E+00  0.14289002700E+04  0.14289002700E+04  0.00000000000E+00 0. -1.
         -2   -1    0    0    0  501 -0.00000000000E+00 -0.00000000000E+00 -0.30184960591E+03  0.30184960591E+03  0.00000000000E+00 0.  1.
         23    2    1    2    0    0  0.32793667320E+03 -0.74318013654E+01  0.18730029896E+03  0.38833167845E+03  0.90124342981E+02 0.  0.
        254    2    1    2    0    0 -0.32793667320E+03  0.74318013654E+01  0.93975036518E+03  0.13424181975E+04  0.90075422554E+03 0.  0.
        -24    2    4    4    0    0 -0.45477960785E+03 -0.33504016325E+03  0.45372206788E+03  0.72922220029E+03  0.82612951865E+02 0.  0.
         24    2    4    4    0    0  0.12684293465E+03  0.34247196461E+03  0.48602829730E+03  0.61319599721E+03  0.80060281060E+02 0.  0.
         13    1    3    3    0    0  0.17303852719E+02  0.12247850149E+02  0.37101439058E+02  0.42731135398E+02  0.00000000000E+00 0. -1.
        -13    1    3    3    0    0  0.31063282048E+03 -0.19679651514E+02  0.15019885990E+03  0.34560054305E+03  0.00000000000E+00 0.  1.
          4    1    6    6  502    0  0.10330152582E+03  0.26306333683E+03  0.42468548587E+03  0.51012869585E+03  0.00000000000E+00 0. -1.
          1    1    5    5  503    0 -0.20789690101E+03 -0.19724736256E+03  0.20140227599E+03  0.35027206606E+03  0.00000000000E+00 0. -1.
         -2    1    5    5    0  503 -0.24688270684E+03 -0.13779280068E+03  0.25231979189E+03  0.37895013423E+03  0.00000000000E+00 0.  1.
         -3    1    6    6    0  502  0.23541408829E+02  0.79408627778E+02  0.61342811430E+02  0.10306730136E+03  0.00000000000E+00 0.  1.
<mgrwt>
<rscale>  0 0.13134885E+04</rscale>
<asrwt>0</asrwt>
<pdfrwt beam="1">  1        2 0.21983081E+00 0.13134885E+04</pdfrwt>
<pdfrwt beam="2">  1       -2 0.46438402E-01 0.13134885E+04</pdfrwt>
<totfact> 0.59952435E+01</totfact>
</mgrwt>
</event>
<event>
12    1  0.1980523E-007  0.2057688E+04  0.7818608E-02  0.8580115E-01
          2   -1    0    0  501    0  0.00000000000E+00  0.00000000000E+00  0.15110493229E+04  0.15110493229E+04  0.00000000000E+00 0. -1.
         -2   -1    0    0    0  501 -0.00000000000E+00 -0.00000000000E+00 -0.70051951913E+03  0.70051951913E+03  0.00000000000E+00 0.  1.
         23    2    1    2    0    0  0.58039726443E+02 -0.25148429252E+03 -0.51847933866E+03  0.58648183358E+03  0.92342608075E+02 0.  0.
        254    2    1    2    0    0 -0.58039726443E+02  0.25148429252E+03  0.13290091424E+04  0.16250870084E+04  0.89890462517E+03 0.  0.
        -24    2    4    4    0    0 -0.24069957757E+03 -0.15115536889E+03  0.10616385505E+04  0.11022724478E+04  0.84521624224E+02 0.  0.
         24    2    4    4    0    0  0.18265985113E+03  0.40263966141E+03  0.26737059191E+03  0.52281456069E+03  0.79779153286E+02 0.  0.
         11    1    3    3    0    0  0.13690531155E+02 -0.76548660075E+02 -0.25894080858E+03  0.27036543852E+03  0.00000000000E+00 0.  1.
        -11    1    3    3    0    0  0.44349195288E+02 -0.17493563244E+03 -0.25953853009E+03  0.31611639505E+03  0.00000000000E+00 0. -1.
          2    1    6    6  502    0  0.12705924177E+03  0.21875897142E+03  0.18692382441E+03  0.31454738058E+03  0.00000000000E+00 0. -1.
          1    1    5    5  503    0 -0.10781553466E+03 -0.19727626706E+02  0.38601441365E+03  0.40127359284E+03  0.00000000000E+00 0. -1.
         -2    1    5    5    0  503 -0.13288404291E+03 -0.13142774218E+03  0.67562413686E+03  0.70099885491E+03  0.00000000000E+00 0.  1.
         -1    1    6    6    0  502  0.55600609360E+02  0.18388068998E+03  0.80446767495E+02  0.20826718011E+03  0.00000000000E+00 0.  1.
<mgrwt>
<rscale>  0 0.20576876E+04</rscale>
<asrwt>0</asrwt>
<pdfrwt beam="1">  1        2 0.23246913E+00 0.20576876E+04</pdfrwt>
<pdfrwt beam="2">  1       -2 0.10777223E+00 0.20576876E+04</pdfrwt>
<totfact> 0.79890931E+00</totfact>
</mgrwt>
</event>
<event>
12    1  0.1980523E-007  0.3166804E+04  0.7818608E-02  0.8197639E-01
          1   -1    0    0  501    0  0.00000000000E+00  0.00000000000E+00  0.12344955241E+04  0.12344955241E+04  0.00000000000E+00 0. -1.
         -1   -1    0    0    0  501 -0.00000000000E+00 -0.00000000000E+00 -0.20309207180E+04  0.20309207180E+04  0.00000000000E+00 0.  1.
         23    2    1    2    0    0 -0.11461173834E+04 -0.58451399190E+03  0.33208872212E+03  0.13318936093E+04  0.91738781048E+02 0.  0.
        254    2    1    2    0    0  0.11461173834E+04  0.58451399190E+03 -0.11285139161E+04  0.19335226328E+04  0.89984690336E+03 0.  0.
        -24    2    4    4    0    0  0.60797159943E+03  0.18660593108E+03 -0.10825567161E+04  0.12581025201E+04  0.80260005105E+02 0.  0.
         24    2    4    4    0    0  0.53814578394E+03  0.39790806082E+03 -0.45957200014E+02  0.67542011265E+03  0.78412720300E+02 0.  0.
         11    1    3    3    0    0 -0.45899267315E+03 -0.23194349734E+03  0.86545003293E+02  0.52149985384E+03  0.00000000000E+00 0.  1.
        -11    1    3    3    0    0 -0.68712471022E+03 -0.35257049456E+03  0.24554371883E+03  0.81039375546E+03  0.00000000000E+00 0. -1.
          2    1    6    6  502    0  0.38033822462E+03  0.30327847369E+03 -0.63508364054E+02  0.49057956542E+03  0.00000000000E+00 0. -1.
          1    1    5    5  503    0  0.16239478550E+03  0.18553081153E+02 -0.31325997524E+03  0.35333849955E+03  0.00000000000E+00 0. -1.
         -2    1    5    5    0  503  0.44557681393E+03  0.16805284993E+03 -0.76929674083E+03  0.90476402058E+03  0.00000000000E+00 0.  1.
         -1    1    6    6    0  502  0.15780755933E+03  0.94629587128E+02  0.17551164041E+02  0.18484054723E+03  0.00000000000E+00 0.  1.
<mgrwt>
<rscale>  0 0.31668044E+04</rscale>
<asrwt>0</asrwt>
<pdfrwt beam="1">  1        1 0.18992239E+00 0.31668044E+04</pdfrwt>
<pdfrwt beam="2">  1       -1 0.31244934E+00 0.31668044E+04</pdfrwt>
<totfact> 0.23188933E-01</totfact>
</mgrwt>
</event>
<event>
12    1  0.1980523E-007  0.1722625E+04  0.7818608E-02  0.8748565E-01
         -1   -1    0    0    0  501 -0.00000000000E+00  0.00000000000E+00  0.11757888144E+04  0.11757888144E+04  0.00000000000E+00 0.  1.
          1   -1    0    0  501    0  0.00000000000E+00 -0.00000000000E+00 -0.63094568182E+03  0.63094568182E+03  0.00000000000E+00 0. -1.
         23    2    1    2    0    0 -0.28130833320E+03 -0.39301347988E+03 -0.21263384099E+03  0.53629375673E+03  0.93828937310E+02 0.  0.
        254    2    1    2    0    0  0.28130833320E+03  0.39301347988E+03  0.75747697354E+03  0.12704407395E+04  0.89813937300E+03 0.  0.
        -24    2    4    4    0    0  0.23774907316E+03  0.55466348572E+03  0.86370612583E+03  0.10565323723E+04  0.78078023468E+02 0.  0.
         24    2    4    4    0    0  0.43559260040E+02 -0.16165000585E+03 -0.10622915230E+03  0.21390836715E+03  0.80274673539E+02 0.  0.
         13    1    3    3    0    0 -0.53897122527E+02 -0.11832356207E+03 -0.21806058591E+02  0.13183652509E+03  0.00000000000E+00 0.  1.
        -13    1    3    3    0    0 -0.22741121067E+03 -0.27468991781E+03 -0.19082778240E+03  0.40445723163E+03  0.00000000000E+00 0. -1.
          4    1    6    6  502    0  0.58673278414E+02 -0.15769538094E+03 -0.87930423162E+02  0.18984769181E+03  0.00000000000E+00 0. -1.
          3    1    5    5  503    0  0.19233607437E+03  0.48706552914E+03  0.70565602269E+03  0.87873569266E+03  0.00000000000E+00 0. -1.
         -4    1    5    5    0  503  0.45412998784E+02  0.67597956582E+02  0.15805010314E+03  0.17779667965E+03  0.00000000000E+00 0.  1.
         -3    1    6    6    0  502 -0.15114018374E+02 -0.39546249093E+01 -0.18298729135E+02  0.24060675334E+02  0.00000000000E+00 0.  1.
<mgrwt>
<rscale>  0 0.17226246E+04</rscale>
<asrwt>0</asrwt>
<pdfrwt beam="1">  1        1 0.97068567E-01 0.17226246E+04</pdfrwt>
<pdfrwt beam="2">  1       -1 0.18089059E+00 0.17226246E+04</pdfrwt>
<totfact> 0.61979782E+00</totfact>
</mgrwt>
</event>
<event>
12    1  0.1980523E-007  0.2128065E+04  0.7818608E-02  0.8548980E-01
          2   -1    0    0  501    0  0.00000000000E+00  0.00000000000E+00  0.14889022097E+04  0.14889022097E+04  0.00000000000E+00 0. -1.
         -2   -1    0    0    0  501 -0.00000000000E+00 -0.00000000000E+00 -0.76040267532E+03  0.76040267532E+03  0.00000000000E+00 0.  1.
         23    2    1    2    0    0  0.31020019444E+03  0.81007921451E+03  0.20342644851E+03  0.89595841567E+03  0.94375146379E+02 0.  0.
        254    2    1    2    0    0 -0.31020019444E+03 -0.81007921451E+03  0.52507308588E+03  0.13533464694E+04  0.89632160870E+03 0.  0.
        -24    2    4    4    0    0 -0.25477610928E+03 -0.64422525146E+03 -0.95138473883E+02  0.70399818872E+03  0.81394594571E+02 0.  0.
         24    2    4    4    0    0 -0.55424085161E+02 -0.16585396304E+03  0.62021155976E+03  0.64934828065E+03  0.80071495789E+02 0.  0.
         13    1    3    3    0    0  0.22080726683E+03  0.46790454384E+03  0.14665816641E+03  0.53777237658E+03  0.00000000000E+00 0.  1.
        -13    1    3    3    0    0  0.89392927611E+02  0.34217467066E+03  0.56768282097E+02  0.35818603909E+03  0.00000000000E+00 0. -1.
          2    1    6    6  502    0 -0.59580285554E+02 -0.13487450261E+03  0.38852924913E+03  0.41556698535E+03  0.00000000000E+00 0. -1.
          3    1    5    5  503    0 -0.60625497110E+02 -0.25269916411E+03 -0.50188086052E+02  0.26467180134E+03  0.00000000000E+00 0. -1.
         -4    1    5    5    0  503 -0.19415061217E+03 -0.39152608735E+03 -0.44950387831E+02  0.43932638738E+03  0.00000000000E+00 0.  1.
         -1    1    6    6    0  502  0.41562003939E+01 -0.30979460437E+02  0.23168231063E+03  0.23378129530E+03  0.00000000000E+00 0.  1.
<mgrwt>
<rscale>  0 0.21280651E+04</rscale>
<asrwt>0</asrwt>
<pdfrwt beam="1">  1        2 0.22906188E+00 0.21280651E+04</pdfrwt>
<pdfrwt beam="2">  1       -2 0.11698503E+00 0.21280651E+04</pdfrwt>
<totfact> 0.66967311E+00</totfact>
</mgrwt>
</event>
<event>
12    1  0.1980523E-007  0.1650297E+04  0.7818608E-02  0.8790231E-01
         -2   -1    0    0    0  501 -0.00000000000E+00  0.00000000000E+00  0.28741291859E+03  0.28741291859E+03  0.00000000000E+00 0.  1.
          2   -1    0    0  501    0  0.00000000000E+00 -0.00000000000E+00 -0.23689605180E+04  0.23689605180E+04  0.00000000000E+00 0. -1.
         23    2    1    2    0    0  0.14560345768E+02  0.55752542382E+03 -0.95777085990E+03  0.11122460490E+04  0.93379074415E+02 0.  0.
        254    2    1    2    0    0 -0.14560345768E+02 -0.55752542382E+03 -0.11237767395E+04  0.15441273876E+04  0.90022698638E+03 0.  0.
        -24    2    4    4    0    0 -0.19439189527E+03 -0.27490239744E+03 -0.11473536295E+04  0.11988565910E+04  0.86471021420E+02 0.  0.
         24    2    4    4    0    0  0.17983154951E+03 -0.28262302637E+03  0.23576890087E+02  0.34527079654E+03  0.80255167827E+02 0.  0.
         13    1    3    3    0    0 -0.11299324243E+02  0.51842362292E+03 -0.87410037013E+03  0.10163376332E+04  0.00000000000E+00 0. -1.
        -13    1    3    3    0    0  0.25859670012E+02  0.39101800899E+02 -0.83670489772E+02  0.95908415821E+02  0.00000000000E+00 0.  1.
          4    1    6    6  502    0  0.66969484483E+02 -0.55888693762E+02 -0.16718231337E+02  0.88814172301E+02  0.00000000000E+00 0. -1.
          3    1    5    5  503    0  0.50523031893E+01  0.27477645501E+01 -0.18129864503E+02  0.19020198854E+02  0.00000000000E+00 0. -1.
         -4    1    5    5    0  503 -0.19944419846E+03 -0.27765016199E+03 -0.11292237650E+04  0.11798363922E+04  0.00000000000E+00 0.  1.
         -3    1    6    6    0  502  0.11286206502E+03 -0.22673433261E+03  0.40295121424E+02  0.25645662424E+03  0.00000000000E+00 0.  1.
<mgrwt>
<rscale>  0 0.16502968E+04</rscale>
<asrwt>0</asrwt>
<pdfrwt beam="1">  1        2 0.36445546E+00 0.16502968E+04</pdfrwt>
<pdfrwt beam="2">  1       -2 0.44217372E-01 0.16502968E+04</pdfrwt>
<totfact> 0.19213064E+01</totfact>
</mgrwt>
</event>
<event>
12    1  0.1980523E-007  0.1757173E+04  0.7818608E-02  0.8729412E-01
         -2   -1    0    0    0  501 -0.00000000000E+00  0.00000000000E+00  0.19825973490E+03  0.19825973490E+03  0.00000000000E+00 0.  1.
          2   -1    0    0  501    0  0.00000000000E+00 -0.00000000000E+00 -0.38934511704E+04  0.38934511704E+04  0.00000000000E+00 0. -1.
         23    2    1    2    0    0  0.19020565331E+02 -0.34059727162E+03 -0.26351565534E+04  0.26587699595E+04  0.92948120827E+02 0.  0.
        254    2    1    2    0    0 -0.19020565331E+02  0.34059727162E+03 -0.10600348821E+04  0.14329409458E+04  0.90181900601E+03 0.  0.
        -24    2    4    4    0    0 -0.54893232958E+02  0.13968124325E+03  0.13580174448E+03  0.21716254372E+03  0.78697775387E+02 0.  0.
         24    2    4    4    0    0  0.35872667627E+02  0.20091602837E+03 -0.11958366266E+04  0.12157784021E+04  0.80235819997E+02 0.  0.
         13    1    3    3    0    0 -0.22214281281E+02 -0.18571783739E+03 -0.11674666498E+04  0.11823548400E+04  0.00000000000E+00 0.  1.
        -13    1    3    3    0    0  0.41234846612E+02 -0.15487943423E+03 -0.14676899036E+04  0.14764151194E+04  0.00000000000E+00 0. -1.
          4    1    6    6  502    0 -0.90359948565E+01  0.11264337259E+03 -0.47999708510E+03  0.49312004654E+03  0.00000000000E+00 0. -1.
          1    1    5    5  503    0 -0.57609666023E+02  0.10991928528E+03  0.13988430986E+03  0.18699931294E+03  0.00000000000E+00 0. -1.
         -2    1    5    5    0  503  0.27164330647E+01  0.29761957969E+02 -0.40825653826E+01  0.30163230776E+02  0.00000000000E+00 0.  1.
         -3    1    6    6    0  502  0.44908662484E+02  0.88272655787E+02 -0.71583954148E+03  0.72265835556E+03  0.00000000000E+00 0.  1.
<mgrwt>
<rscale>  0 0.17571734E+04</rscale>
<asrwt>0</asrwt>
<pdfrwt beam="1">  1        2 0.59899241E+00 0.17571734E+04</pdfrwt>
<pdfrwt beam="2">  1       -2 0.30501502E-01 0.17571734E+04</pdfrwt>
<totfact> 0.39728616E+00</totfact>
</mgrwt>
</event>
<event>
12    1  0.1980523E-007  0.2117444E+04  0.7818608E-02  0.8553598E-01
         -2   -1    0    0    0  501 -0.00000000000E+00  0.00000000000E+00  0.53202967564E+03  0.53202967564E+03  0.00000000000E+00 0.  1.
          2   -1    0    0  501    0  0.00000000000E+00 -0.00000000000E+00 -0.21068223835E+04  0.21068223835E+04  0.00000000000E+00 0. -1.
         23    2    1    2    0    0  0.58345692850E+03 -0.63786166059E+03 -0.65681874294E+03  0.10893930122E+04  0.89870955157E+02 0.  0.
        254    2    1    2    0    0 -0.58345692850E+03  0.63786166059E+03 -0.91797396491E+03  0.15494590469E+04  0.90047634743E+03 0.  0.
        -24    2    4    4    0    0 -0.39368492203E+02  0.67256979639E+03 -0.37429109785E+03  0.77518010010E+03  0.83128529793E+02 0.  0.
         24    2    4    4    0    0 -0.54408843630E+03 -0.34708135807E+02 -0.54368286706E+03  0.77427894679E+03  0.81730938478E+02 0.  0.
         13    1    3    3    0    0  0.28416973562E+03 -0.36401684155E+03 -0.31608439520E+03  0.55961597946E+03  0.00000000000E+00 0.  1.
        -13    1    3    3    0    0  0.29928719288E+03 -0.27384481903E+03 -0.34073434774E+03  0.52977703278E+03  0.00000000000E+00 0. -1.
          2    1    6    6  502    0 -0.19410293444E+03  0.22583587115E+02 -0.21824873156E+03  0.29294790730E+03  0.00000000000E+00 0. -1.
          3    1    5    5  503    0  0.98262974729E+01  0.30380099229E+03 -0.13325132058E+03  0.33188478946E+03  0.00000000000E+00 0. -1.
         -4    1    5    5    0  503 -0.49194789676E+02  0.36876880410E+03 -0.24103977727E+03  0.44329531064E+03  0.00000000000E+00 0.  1.
         -3    1    6    6    0  502 -0.34998550186E+03 -0.57291722921E+02 -0.32543413549E+03  0.48133103949E+03  0.00000000000E+00 0.  1.
<mgrwt>
<rscale>  0 0.21174438E+04</rscale>
<asrwt>0</asrwt>
<pdfrwt beam="1">  1        2 0.32412652E+00 0.21174438E+04</pdfrwt>
<pdfrwt beam="2">  1       -2 0.81850719E-01 0.21174438E+04</pdfrwt>
<totfact> 0.70355954E+00</totfact>
</mgrwt>
</event>
<event>
12    1  0.1980523E-007  0.1375628E+04  0.7818608E-02  0.8971652E-01
          2   -1    0    0  501    0  0.00000000000E+00  0.00000000000E+00  0.16318158762E+04  0.16318158762E+04  0.00000000000E+00 0. -1.
         -2   -1    0    0    0  501 -0.00000000000E+00 -0.00000000000E+00 -0.28991496738E+03  0.28991496738E+03  0.00000000000E+00 0.  1.
         23    2    1    2    0    0  0.10869184108E+03 -0.35841238609E+03  0.52377425074E+03  0.65000461874E+03  0.88843591985E+02 0.  0.
        254    2    1    2    0    0 -0.10869184108E+03  0.35841238609E+03  0.81812665811E+03  0.12717262249E+04  0.89871186009E+03 0.  0.
        -24    2    4    4    0    0  0.38581494172E+03  0.22339996583E+03  0.34151215354E+03  0.56719815255E+03  0.79514019235E+02 0.  0.
         24    2    4    4    0    0 -0.49450678280E+03  0.13501242026E+03  0.47661450457E+03  0.70452807231E+03  0.80206650869E+02 0.  0.
         13    1    3    3    0    0  0.12264820087E+03 -0.28680995704E+03  0.42076328653E+03  0.52377884257E+03  0.00000000000E+00 0. -1.
        -13    1    3    3    0    0 -0.13956359786E+02 -0.71602429047E+02  0.10301096421E+03  0.12622577618E+03  0.00000000000E+00 0.  1.
          2    1    6    6  502    0 -0.48580673695E+03  0.12711113347E+03  0.44559589509E+03  0.67135767490E+03  0.00000000000E+00 0. -1.
          1    1    5    5  503    0  0.35714365051E+03  0.21061420495E+03  0.33924913279E+03  0.53572372033E+03  0.00000000000E+00 0. -1.
         -4    1    5    5    0  503  0.28671291208E+02  0.12785760874E+02  0.22630207559E+01  0.31474432221E+02  0.00000000000E+00 0.  1.
         -1    1    6    6    0  502 -0.87000458527E+01  0.79012867860E+01  0.31018609473E+02  0.33170397411E+02  0.00000000000E+00 0.  1.
<mgrwt>
<rscale>  0 0.13756276E+04</rscale>
<asrwt>0</asrwt>
<pdfrwt beam="1">  1        2 0.25104859E+00 0.13756276E+04</pdfrwt>
<pdfrwt beam="2">  1       -2 0.44602303E-01 0.13756276E+04</pdfrwt>
<totfact> 0.49742531E+01</totfact>
</mgrwt>
</event>
<event>
12    1  0.1980523E-007  0.1200225E+04  0.7818608E-02  0.9112659E-01
          1   -1    0    0  501    0  0.00000000000E+00  0.00000000000E+00  0.32457471879E+03  0.32457471879E+03  0.00000000000E+00 0. -1.
         -1   -1    0    0    0  501 -0.00000000000E+00 -0.00000000000E+00 -0.11095600839E+04  0.11095600839E+04  0.00000000000E+00 0.  1.
         23    2    1    2    0    0 -0.90203271487E+02  0.12253315058E+03  0.64808410439E+02  0.18784554876E+03  0.89077589487E+02 0.  0.
        254    2    1    2    0    0  0.90203271487E+02 -0.12253315058E+03 -0.84979377552E+03  0.12462892539E+04  0.89885284684E+03 0.  0.
        -24    2    4    4    0    0  0.41942370001E+03  0.42894073614E+02 -0.73676854124E+03  0.85252210139E+03  0.78802971461E+02 0.  0.
         24    2    4    4    0    0 -0.32922042852E+03 -0.16542722419E+03 -0.11302523428E+03  0.39376715250E+03  0.80781246265E+02 0.  0.
         13    1    3    3    0    0  0.11844179397E+02  0.20183099724E+02 -0.95892651043E+01  0.25290237352E+02  0.00000000000E+00 0.  1.
        -13    1    3    3    0    0 -0.10204745088E+03  0.10235005085E+03  0.74397675544E+02  0.16255531141E+03  0.00000000000E+00 0. -1.
          2    1    6    6  502    0 -0.66711435090E+02 -0.60429037083E+02 -0.53921304032E+02  0.10492659874E+03  0.00000000000E+00 0. -1.
          3    1    5    5  503    0  0.45511466316E+02  0.13596818540E+02 -0.13841502873E+03  0.14633826300E+03  0.00000000000E+00 0. -1.
         -4    1    5    5    0  503  0.37391223369E+03  0.29297255074E+02 -0.59835351251E+03  0.70618383839E+03  0.00000000000E+00 0.  1.
         -1    1    6    6    0  502 -0.26250899343E+03 -0.10499818711E+03 -0.59103930248E+02  0.28884055376E+03  0.00000000000E+00 0.  1.
<mgrwt>
<rscale>  0 0.12002252E+04</rscale>
<asrwt>0</asrwt>
<pdfrwt beam="1">  1        1 0.49934572E-01 0.12002252E+04</pdfrwt>
<pdfrwt beam="2">  1       -1 0.17070155E+00 0.12002252E+04</pdfrwt>
<totfact> 0.19032527E+01</totfact>
</mgrwt>
</event>
<event>
12    1  0.1980523E-007  0.2710613E+04  0.7818608E-02  0.8331570E-01
         -1   -1    0    0    0  501 -0.00000000000E+00  0.00000000000E+00  0.12097426972E+04  0.12097426972E+04  0.00000000000E+00 0.  1.
          1   -1    0    0  501    0  0.00000000000E+00 -0.00000000000E+00 -0.15183858253E+04  0.15183858253E+04  0.00000000000E+00 0. -1.
         23    2    1    2    0    0  0.67384127967E+03  0.94934776410E+03  0.17035990991E+03  0.11800391440E+04  0.90258711723E+02 0.  0.
        254    2    1    2    0    0 -0.67384127967E+03 -0.94934776410E+03 -0.47900303806E+03  0.15480893786E+04  0.90100697341E+03 0.  0.
        -24    2    4    4    0    0 -0.20076048982E+03 -0.59410705186E+03 -0.66952264483E+03  0.92079063497E+03  0.79541549960E+02 0.  0.
         24    2    4    4    0    0 -0.47308078986E+03 -0.35524071224E+03  0.19051960677E+03  0.62729874358E+03  0.84879890276E+02 0.  0.
         11    1    3    3    0    0  0.57075775718E+03  0.75787895323E+03  0.11544368991E+03  0.95575738066E+03  0.00000000000E+00 0. -1.
        -11    1    3    3    0    0  0.10308352249E+03  0.19146881086E+03  0.54916219999E+02  0.22428176333E+03  0.00000000000E+00 0.  1.
          2    1    6    6  502    0 -0.41238795886E+03 -0.33793537444E+03  0.15679613025E+03  0.55574200163E+03  0.00000000000E+00 0. -1.
          3    1    5    5  503    0 -0.10664215435E+03 -0.42142579781E+03 -0.48159103812E+03  0.64876974355E+03  0.00000000000E+00 0. -1.
         -4    1    5    5    0  503 -0.94118335463E+02 -0.17268125405E+03 -0.18793160671E+03  0.27202089142E+03  0.00000000000E+00 0.  1.
         -3    1    6    6    0  502 -0.60692830997E+02 -0.17305337798E+02  0.33723476521E+02  0.71556741956E+02  0.00000000000E+00 0.  1.
<mgrwt>
<rscale>  0 0.27106133E+04</rscale>
<asrwt>0</asrwt>
<pdfrwt beam="1">  1        1 0.23359782E+00 0.27106133E+04</pdfrwt>
<pdfrwt beam="2">  1       -1 0.18611426E+00 0.27106133E+04</pdfrwt>
<totfact> 0.10430751E+00</totfact>
</mgrwt>
</event>
<event>
12    1  0.1980523E-007  0.1606621E+04  0.7818608E-02  0.8816491E-01
         -4   -1    0    0    0  501 -0.00000000000E+00  0.00000000000E+00  0.23114792271E+04  0.23114792271E+04  0.00000000000E+00 0.  1.
          4   -1    0    0  501    0  0.00000000000E+00 -0.00000000000E+00 -0.27917517061E+03  0.27917517061E+03  0.00000000000E+00 0. -1.
         23    2    1    2    0    0 -0.35961962779E+03 -0.27965679450E+03  0.21328703003E+03  0.51117042983E+03  0.90937625612E+02 0.  0.
        254    2    1    2    0    0  0.35961962779E+03  0.27965679450E+03  0.18190170264E+04  0.20794839678E+04  0.89883059066E+03 0.  0.
        -24    2    4    4    0    0 -0.16371854180E+03  0.32937715401E+03  0.33698373471E+03  0.50517670505E+03  0.79701915594E+02 0.  0.
         24    2    4    4    0    0  0.52333816958E+03 -0.49720359515E+02  0.14820332917E+04  0.15743072628E+04  0.75271017422E+02 0.  0.
         11    1    3    3    0    0 -0.17685092487E+03 -0.19411556514E+03  0.12711839611E+03  0.29174678899E+03  0.00000000000E+00 0. -1.
        -11    1    3    3    0    0 -0.18276870292E+03 -0.85541229360E+02  0.86168633916E+02  0.21942364084E+03  0.00000000000E+00 0.  1.
          4    1    6    6  502    0  0.61880004718E+02  0.29826130956E+01  0.11651215694E+03  0.13195875750E+03  0.00000000000E+00 0. -1.
          1    1    5    5  503    0 -0.12682385415E+02  0.63392612066E+02  0.28165663833E+02  0.70517875631E+02  0.00000000000E+00 0. -1.
         -2    1    5    5    0  503 -0.15103615638E+03  0.26598454195E+03  0.30881807088E+03  0.43465882942E+03  0.00000000000E+00 0.  1.
         -3    1    6    6    0  502  0.46145816487E+03 -0.52702972611E+02  0.13655211348E+04  0.14423485053E+04  0.00000000000E+00 0.  1.
<mgrwt>
<rscale>  0 0.16066208E+04</rscale>
<asrwt>0</asrwt>
<pdfrwt beam="1">  1        4 0.42950028E-01 0.16066208E+04</pdfrwt>
<pdfrwt beam="2">  1       -4 0.35561218E+00 0.16066208E+04</pdfrwt>
<totfact> 0.13921952E-01</totfact>
</mgrwt>
</event>
<event>
12    1  0.1980523E-007  0.1855251E+04  0.7818608E-02  0.8677457E-01
         -2   -1    0    0    0  501 -0.00000000000E+00  0.00000000000E+00  0.52715708692E+03  0.52715708692E+03  0.00000000000E+00 0.  1.
          2   -1    0    0  501    0  0.00000000000E+00 -0.00000000000E+00 -0.16323196792E+04  0.16323196792E+04  0.00000000000E+00 0. -1.
         23    2    1    2    0    0 -0.59248187572E+03 -0.36304898705E+03 -0.56236068177E+03  0.89854348972E+03  0.91057819392E+02 0.  0.
        254    2    1    2    0    0  0.59248187572E+03  0.36304898705E+03 -0.54280191046E+03  0.12609332764E+04  0.90137643266E+03 0.  0.
        -24    2    4    4    0    0 -0.11180489960E+03  0.40120483213E+03 -0.25398359517E+03  0.49453417741E+03  0.81183330265E+02 0.  0.
         24    2    4    4    0    0  0.70428677532E+03 -0.38155845083E+02 -0.28881831530E+03  0.76639909894E+03  0.80472536954E+02 0.  0.
         11    1    3    3    0    0 -0.42591430902E+03 -0.29963948532E+03 -0.44650133698E+03  0.68596666371E+03  0.00000000000E+00 0. -1.
        -11    1    3    3    0    0 -0.16656756669E+03 -0.63409501734E+02 -0.11585934479E+03  0.21257682602E+03  0.00000000000E+00 0.  1.
          4    1    6    6  502    0  0.22731340688E+03  0.19744245046E+02 -0.71916702411E+02  0.23923468027E+03  0.00000000000E+00 0. -1.
          1    1    5    5  503    0 -0.62926835340E+01  0.11459315813E+01 -0.16005063761E+02  0.17235808402E+02  0.00000000000E+00 0. -1.
         -2    1    5    5    0  503 -0.10551221607E+03  0.40005890055E+03 -0.23797853140E+03  0.47729836901E+03  0.00000000000E+00 0.  1.
         -3    1    6    6    0  502  0.47697336844E+03 -0.57900090129E+02 -0.21690161289E+03  0.52716441867E+03  0.00000000000E+00 0.  1.
<mgrwt>
<rscale>  0 0.18552508E+04</rscale>
<asrwt>0</asrwt>
<pdfrwt beam="1">  1        2 0.25112610E+00 0.18552508E+04</pdfrwt>
<pdfrwt beam="2">  1       -2 0.81101092E-01 0.18552508E+04</pdfrwt>
<totfact> 0.13475889E+01</totfact>
</mgrwt>
</event>
<event>
12    1  0.1980523E-007  0.3273614E+04  0.7818608E-02  0.8169642E-01
         -2   -1    0    0    0  501 -0.00000000000E+00  0.00000000000E+00  0.10755581392E+04  0.10755581392E+04  0.00000000000E+00 0.  1.
          2   -1    0    0  501    0  0.00000000000E+00 -0.00000000000E+00 -0.24909269226E+04  0.24909269226E+04  0.00000000000E+00 0. -1.
         23    2    1    2    0    0 -0.13525426225E+04 -0.30757293098E+03 -0.13081623058E+04  0.19088427352E+04  0.91756830106E+02 0.  0.
        254    2    1    2    0    0  0.13525426225E+04  0.30757293098E+03 -0.10720647758E+03  0.16576423265E+04  0.90128364023E+03 0.  0.
        -24    2    4    4    0    0  0.12860147077E+04  0.58950068320E+02  0.13539836048E+03  0.12970383090E+04  0.81649984325E+02 0.  0.
         24    2    4    4    0    0  0.66527914776E+02  0.24862286266E+03 -0.24260483806E+03  0.36060401748E+03  0.70277013969E+02 0.  0.
         13    1    3    3    0    0 -0.38804032869E+03 -0.95265687666E+02 -0.32168109085E+03  0.51296156985E+03  0.00000000000E+00 0. -1.
        -13    1    3    3    0    0 -0.96450229383E+03 -0.21230724332E+03 -0.98648121498E+03  0.13958811654E+04  0.00000000000E+00 0.  1.
          4    1    6    6  502    0  0.25455460932E+02  0.17880168821E+03 -0.19851418794E+03  0.26837642782E+03  0.00000000000E+00 0. -1.
          1    1    5    5  503    0  0.96378520201E+03  0.73769931579E+02  0.81974307087E+02  0.97007407214E+03  0.00000000000E+00 0. -1.
         -2    1    5    5    0  503  0.32222950572E+03 -0.14819863258E+02  0.53424053396E+02  0.32696423686E+03  0.00000000000E+00 0.  1.
         -3    1    6    6    0  502  0.41072453845E+02  0.69821174452E+02 -0.44090650126E+02  0.92227589664E+02  0.00000000000E+00 0.  1.
<mgrwt>
<rscale>  0 0.32736137E+04</rscale>
<asrwt>0</asrwt>
<pdfrwt beam="1">  1        2 0.38321953E+00 0.32736137E+04</pdfrwt>
<pdfrwt beam="2">  1       -2 0.16547048E+00 0.32736137E+04</pdfrwt>
<totfact> 0.67734080E-01</totfact>
</mgrwt>
</event>
<event>
12    1  0.1980523E-007  0.2998961E+04  0.7818608E-02  0.8244028E-01
          1   -1    0    0  501    0  0.00000000000E+00  0.00000000000E+00  0.11725253866E+04  0.11725253866E+04  0.00000000000E+00 0. -1.
         -1   -1    0    0    0  501 -0.00000000000E+00 -0.00000000000E+00 -0.19176060539E+04  0.19176060539E+04  0.00000000000E+00 0.  1.
         23    2    1    2    0    0 -0.74909285795E+03 -0.10735227431E+04  0.50528554515E+02  0.13132013955E+04  0.91397924268E+02 0.  0.
        254    2    1    2    0    0  0.74909285795E+03  0.10735227431E+04 -0.79560922179E+03  0.17769300450E+04  0.90049717443E+03 0.  0.
        -24    2    4    4    0    0  0.80994429983E+03  0.55030961104E+03 -0.24808254515E+03  0.10134064288E+04  0.81223172817E+02 0.  0.
         24    2    4    4    0    0 -0.60851441881E+02  0.52321313204E+03 -0.54752667664E+03  0.76352361621E+03  0.75683362459E+02 0.  0.
         11    1    3    3    0    0 -0.69223301493E+03 -0.10205670001E+04  0.61570134284E+02  0.12347203854E+04  0.00000000000E+00 0.  1.
        -11    1    3    3    0    0 -0.56859843024E+02 -0.52955742954E+02 -0.11041579769E+02  0.78481010088E+02  0.00000000000E+00 0. -1.
          2    1    6    6  502    0 -0.59920530681E+02  0.47958851800E+03 -0.52773130011E+03  0.71560879097E+03  0.00000000000E+00 0. -1.
          3    1    5    5  503    0  0.72771748538E+03  0.50191925805E+03 -0.24742567956E+03  0.91799517811E+03  0.00000000000E+00 0. -1.
         -4    1    5    5    0  503  0.82226814454E+02  0.48390352991E+02 -0.65686559398E+00  0.95411250648E+02  0.00000000000E+00 0.  1.
         -1    1    6    6    0  502 -0.93091120029E+00  0.43624614040E+02 -0.19795376537E+02  0.47914825243E+02  0.00000000000E+00 0.  1.
<mgrwt>
<rscale>  0 0.29989610E+04</rscale>
<asrwt>0</asrwt>
<pdfrwt beam="1">  1        1 0.18038852E+00 0.29989610E+04</pdfrwt>
<pdfrwt beam="2">  1       -1 0.29501631E+00 0.29989610E+04</pdfrwt>
<totfact> 0.33891928E-01</totfact>
</mgrwt>
</event>
<event>
12    1  0.1980523E-007  0.3305865E+04  0.7818608E-02  0.8161405E-01
         -1   -1    0    0    0  501 -0.00000000000E+00  0.00000000000E+00  0.12712710263E+04  0.12712710263E+04  0.00000000000E+00 0.  1.
          1   -1    0    0  501    0  0.00000000000E+00 -0.00000000000E+00 -0.21491765572E+04  0.21491765572E+04  0.00000000000E+00 0. -1.
         23    2    1    2    0    0  0.32574963500E+03 -0.31961764696E+03  0.10996138526E+04  0.11941136433E+04  0.92133074396E+02 0.  0.
        254    2    1    2    0    0 -0.32574963500E+03  0.31961764696E+03 -0.19775193835E+04  0.22263339401E+04  0.91526588261E+03 0.  0.
        -24    2    4    4    0    0 -0.55302657505E+01  0.57383476866E+03 -0.13845290177E+04  0.15013452516E+04  0.88317824671E+02 0.  0.
         24    2    4    4    0    0 -0.32021936925E+03 -0.25421712171E+03 -0.59299036581E+03  0.72498868851E+03  0.82487787643E+02 0.  0.
         13    1    3    3    0    0  0.15105968620E+03 -0.14163120112E+03  0.61785271561E+03  0.65162903872E+03  0.00000000000E+00 0.  1.
        -13    1    3    3    0    0  0.17468994880E+03 -0.17798644584E+03  0.48176113701E+03  0.54248460462E+03  0.00000000000E+00 0. -1.
          2    1    6    6  502    0 -0.20454923387E+03 -0.15760215452E+03 -0.30246493242E+03  0.39769820660E+03  0.00000000000E+00 0. -1.
          3    1    5    5  503    0  0.34130192865E+02  0.27171112899E+03 -0.71861350853E+03  0.76902352521E+03  0.00000000000E+00 0. -1.
         -4    1    5    5    0  503 -0.39660458616E+02  0.30212363967E+03 -0.66591550915E+03  0.73232172639E+03  0.00000000000E+00 0.  1.
         -1    1    6    6    0  502 -0.11567013537E+03 -0.96614967187E+02 -0.29052543339E+03  0.32729048191E+03  0.00000000000E+00 0.  1.
<mgrwt>
<rscale>  0 0.33058650E+04</rscale>
<asrwt>0</asrwt>
<pdfrwt beam="1">  1        1 0.33064255E+00 0.33058650E+04</pdfrwt>
<pdfrwt beam="2">  1       -1 0.19558016E+00 0.33058650E+04</pdfrwt>
<totfact> 0.31598777E-01</totfact>
</mgrwt>
</event>
<event>
12    1  0.1980523E-007  0.1840968E+04  0.7818608E-02  0.8684811E-01
         -2   -1    0    0    0  501 -0.00000000000E+00  0.00000000000E+00  0.88872652128E+03  0.88872652128E+03  0.00000000000E+00 0.  1.
          2   -1    0    0  501    0  0.00000000000E+00 -0.00000000000E+00 -0.95337663502E+03  0.95337663502E+03  0.00000000000E+00 0. -1.
         23    2    1    2    0    0  0.55823518599E+03 -0.36886291951E+03  0.17043147083E+03  0.69515816249E+03  0.80694537412E+02 0.  0.
        254    2    1    2    0    0 -0.55823518599E+03  0.36886291951E+03 -0.23508158457E+03  0.11469449938E+04  0.90140617434E+03 0.  0.
        -24    2    4    4    0    0 -0.53766069994E+03  0.93243425469E+02  0.23256471298E+03  0.59840319304E+03  0.78909258424E+02 0.  0.
         24    2    4    4    0    0 -0.20574486047E+02  0.27561949404E+03 -0.46764629755E+03  0.54854180076E+03  0.76260295035E+02 0.  0.
         11    1    3    3    0    0  0.44252706416E+03 -0.25692285324E+03  0.14751801067E+03  0.53254212838E+03  0.00000000000E+00 0.  1.
        -11    1    3    3    0    0  0.11570812183E+03 -0.11194006627E+03  0.22913460158E+02  0.16261603411E+03  0.00000000000E+00 0. -1.
          4    1    6    6  502    0 -0.66585514800E+01  0.36453576094E+02 -0.23432062854E+02  0.43843598021E+02  0.00000000000E+00 0. -1.
          3    1    5    5  503    0 -0.37256447349E+03  0.99215894708E+02  0.17558599091E+03  0.42364905390E+03  0.00000000000E+00 0. -1.
         -4    1    5    5    0  503 -0.16509622645E+03 -0.59724692386E+01  0.56978722071E+02  0.17475413914E+03  0.00000000000E+00 0.  1.
         -3    1    6    6    0  502 -0.13915934567E+02  0.23916591795E+03 -0.44421423470E+03  0.50469820274E+03  0.00000000000E+00 0.  1.
<mgrwt>
<rscale>  0 0.18409683E+04</rscale>
<asrwt>0</asrwt>
<pdfrwt beam="1">  1        2 0.14667333E+00 0.18409683E+04</pdfrwt>
<pdfrwt beam="2">  1       -2 0.13672716E+00 0.18409683E+04</pdfrwt>
<totfact> 0.97052488E+00</totfact>
</mgrwt>
</event>
<event>
12    1  0.1980523E-007  0.1578568E+04  0.7818608E-02  0.8833824E-01
         -1   -1    0    0    0  501 -0.00000000000E+00  0.00000000000E+00  0.28440521885E+03  0.28440521885E+03  0.00000000000E+00 0.  1.
          1   -1    0    0  501    0  0.00000000000E+00 -0.00000000000E+00 -0.21904285697E+04  0.21904285697E+04  0.00000000000E+00 0. -1.
         23    2    1    2    0    0  0.28629685580E+03  0.29491273872E+03 -0.12802284394E+03  0.43997548972E+03  0.90824940875E+02 0.  0.
        254    2    1    2    0    0 -0.28629685580E+03 -0.29491273872E+03 -0.17780005069E+04  0.20348582988E+04  0.90023501413E+03 0.  0.
        -24    2    4    4    0    0 -0.44061903703E+03 -0.17135485775E+01 -0.35409787606E+03  0.57074837311E+03  0.78869053118E+02 0.  0.
         24    2    4    4    0    0  0.15432218123E+03 -0.29319919014E+03 -0.14239026309E+04  0.14641099257E+04  0.79612007480E+02 0.  0.
         13    1    3    3    0    0  0.25360184918E+03  0.24586517902E+03 -0.13977532860E+03  0.37986935471E+03  0.00000000000E+00 0. -1.
        -13    1    3    3    0    0  0.32695006624E+02  0.49047559698E+02  0.11752484662E+02  0.60106135013E+02  0.00000000000E+00 0.  1.
          2    1    6    6  502    0  0.20774335927E+02 -0.35018544795E+01 -0.68040939485E+02  0.71227841916E+02  0.00000000000E+00 0. -1.
          3    1    5    5  503    0 -0.61342297279E+02 -0.22227517199E+02 -0.74964066876E+02  0.99380839596E+02  0.00000000000E+00 0. -1.
         -4    1    5    5    0  503 -0.37927673975E+03  0.20513968621E+02 -0.27913380918E+03  0.47136753351E+03  0.00000000000E+00 0.  1.
         -1    1    6    6    0  502  0.13354784530E+03 -0.28969733566E+03 -0.13558616914E+04  0.13928820838E+04  0.00000000000E+00 0.  1.
<mgrwt>
<rscale>  0 0.15785681E+04</rscale>
<asrwt>0</asrwt>
<pdfrwt beam="1">  1        1 0.33698902E+00 0.15785681E+04</pdfrwt>
<pdfrwt beam="2">  1       -1 0.43754648E-01 0.15785681E+04</pdfrwt>
<totfact> 0.10980917E+01</totfact>
</mgrwt>
</event>
<event>
12    1  0.1980523E-007  0.1609009E+04  0.7818608E-02  0.8815033E-01
          2   -1    0    0  501    0  0.00000000000E+00  0.00000000000E+00  0.42902942421E+03  0.42902942421E+03  0.00000000000E+00 0. -1.
         -2   -1    0    0    0  501 -0.00000000000E+00 -0.00000000000E+00 -0.15085850136E+04  0.15085850136E+04  0.00000000000E+00 0.  1.
         23    2    1    2    0    0 -0.53126252974E+03  0.13203771746E+03 -0.42558425449E+03  0.69887122368E+03  0.87322364117E+02 0.  0.
        254    2    1    2    0    0  0.53126252974E+03 -0.13203771746E+03 -0.65397133493E+03  0.12387432142E+04  0.89840548161E+03 0.  0.
        -24    2    4    4    0    0  0.59169634117E+03  0.16052605648E+03 -0.69157093390E+03  0.92749768967E+03  0.78156463321E+02 0.  0.
         24    2    4    4    0    0 -0.60433811426E+02 -0.29256377394E+03  0.37599598972E+02  0.31124552450E+03  0.78830446481E+02 0.  0.
         11    1    3    3    0    0 -0.10842795309E+03  0.55539210492E+02 -0.12449735708E+03  0.17418615569E+03  0.00000000000E+00 0.  1.
        -11    1    3    3    0    0 -0.42283457665E+03  0.76498506971E+02 -0.30108689741E+03  0.52468506799E+03  0.00000000000E+00 0. -1.
          4    1    6    6  502    0 -0.67600408306E+02 -0.13659645113E+03  0.26737793354E+02  0.15473627648E+03  0.00000000000E+00 0. -1.
          1    1    5    5  503    0  0.49687888428E+03  0.10425308333E+03 -0.56206044406E+03  0.75740958127E+03  0.00000000000E+00 0. -1.
         -2    1    5    5    0  503  0.94817456881E+02  0.56272973147E+02 -0.12951048985E+03  0.17008810839E+03  0.00000000000E+00 0.  1.
         -3    1    6    6    0  502  0.71665968800E+01 -0.15596732281E+03  0.10861805618E+02  0.15650924802E+03  0.00000000000E+00 0.  1.
<mgrwt>
<rscale>  0 0.16090088E+04</rscale>
<asrwt>0</asrwt>
<pdfrwt beam="1">  1        2 0.66004526E-01 0.16090088E+04</pdfrwt>
<pdfrwt beam="2">  1       -2 0.23209001E+00 0.16090088E+04</pdfrwt>
<totfact> 0.58367460E+00</totfact>
</mgrwt>
</event>
<event>
12    1  0.1980523E-007  0.1155286E+04  0.7818608E-02  0.9152921E-01
         -1   -1    0    0    0  501 -0.00000000000E+00  0.00000000000E+00  0.42877899613E+03  0.42877899613E+03  0.00000000000E+00 0.  1.
          1   -1    0    0  501    0  0.00000000000E+00 -0.00000000000E+00 -0.77818961731E+03  0.77818961731E+03  0.00000000000E+00 0. -1.
         23    2    1    2    0    0 -0.20068375889E+03  0.51163352373E+02 -0.12541526736E+03  0.25876033997E+03  0.91303146424E+02 0.  0.
        254    2    1    2    0    0  0.20068375889E+03 -0.51163352373E+02 -0.22399535382E+03  0.94820827347E+03  0.89779360191E+03 0.  0.
        -24    2    4    4    0    0  0.39082807923E+03 -0.32788130180E+03 -0.29670339187E+03  0.59535537246E+03  0.78500835618E+02 0.  0.
         24    2    4    4    0    0 -0.19014432034E+03  0.27671794942E+03  0.72708038049E+02  0.35285290100E+03  0.80566896794E+02 0.  0.
         11    1    3    3    0    0  0.42165248752E+01  0.18818619612E+01 -0.24807665134E+02  0.25233722196E+02  0.00000000000E+00 0. -1.
        -11    1    3    3    0    0 -0.20490028376E+03  0.49281490412E+02 -0.10060760223E+03  0.23352661777E+03  0.00000000000E+00 0.  1.
          4    1    6    6  502    0 -0.11187829269E+03  0.16723139121E+03  0.83487792481E+02  0.21783778844E+03  0.00000000000E+00 0. -1.
          1    1    5    5  503    0  0.24036083131E+03 -0.20829013601E+03 -0.22762204104E+03  0.39111367089E+03  0.00000000000E+00 0. -1.
         -2    1    5    5    0  503  0.15046724791E+03 -0.11959116579E+03 -0.69081350827E+02  0.20424170157E+03  0.00000000000E+00 0.  1.
         -3    1    6    6    0  502 -0.78266027654E+02  0.10948655822E+03 -0.10779754432E+02  0.13501511256E+03  0.00000000000E+00 0.  1.
<mgrwt>
<rscale>  0 0.11552859E+04</rscale>
<asrwt>0</asrwt>
<pdfrwt beam="1">  1        1 0.11972148E+00 0.11552859E+04</pdfrwt>
<pdfrwt beam="2">  1       -1 0.65966000E-01 0.11552859E+04</pdfrwt>
<totfact> 0.53448866E+01</totfact>
</mgrwt>
</event>
<event>
12    1  0.1980523E-007  0.2077209E+04  0.7818608E-02  0.8571350E-01
         -2   -1    0    0    0  501 -0.00000000000E+00  0.00000000000E+00  0.10246296948E+04  0.10246296948E+04  0.00000000000E+00 0. -1.
          2   -1    0    0  501    0  0.00000000000E+00 -0.00000000000E+00 -0.10527703150E+04  0.10527703150E+04  0.00000000000E+00 0.  1.
         23    2    1    2    0    0  0.52672765533E+03  0.49193105389E+03  0.42030594497E+03  0.83927413538E+03  0.91026382191E+02 0.  0.
        254    2    1    2    0    0 -0.52672765533E+03 -0.49193105389E+03 -0.44844656524E+03  0.12381258744E+04  0.90133965535E+03 0.  0.
        -24    2    4    4    0    0 -0.53508532184E+03 -0.56954552509E+03 -0.93533387735E+01  0.78515763212E+03  0.75409651442E+02 0.  0.
         24    2    4    4    0    0  0.83576665008E+01  0.77614471198E+02 -0.43909322647E+03  0.45296824228E+03  0.79268595659E+02 0.  0.
         13    1    3    3    0    0  0.13421261114E+03  0.14698019343E+03  0.73813302757E+02  0.21228425734E+03  0.00000000000E+00 0.  1.
        -13    1    3    3    0    0  0.39251504420E+03  0.34495086046E+03  0.34649264222E+03  0.62698987804E+03  0.00000000000E+00 0. -1.
          2    1    6    6  502    0  0.18684689831E+02  0.65784782503E+02 -0.42873870960E+03  0.43415853827E+03  0.00000000000E+00 0. -1.
          3    1    5    5  503    0 -0.47596677768E+03 -0.52144053754E+03 -0.28468247111E+02  0.70657982475E+03  0.00000000000E+00 0. -1.
         -4    1    5    5    0  503 -0.59118544157E+02 -0.48104987547E+02  0.19114908337E+02  0.78577807369E+02  0.00000000000E+00 0.  1.
         -1    1    6    6    0  502 -0.10327023330E+02  0.11829688695E+02 -0.10354516868E+02  0.18809704013E+02  0.00000000000E+00 0.  1.
<mgrwt>
<rscale>  0 0.20772094E+04</rscale>
<asrwt>0</asrwt>
<pdfrwt beam="1">  1        2 0.16196466E+00 0.20772094E+04</pdfrwt>
<pdfrwt beam="2">  1       -2 0.15763534E+00 0.20772094E+04</pdfrwt>
<totfact> 0.56456082E+00</totfact>
</mgrwt>
</event>
<event>
12    1  0.1980523E-007  0.5250806E+04  0.7818608E-02  0.7790941E-01
          1   -1    0    0  501    0  0.00000000000E+00  0.00000000000E+00  0.32908306987E+04  0.32908306987E+04  0.00000000000E+00 0. -1.
         -1   -1    0    0    0  501 -0.00000000000E+00 -0.00000000000E+00 -0.20945293337E+04  0.20945293337E+04  0.00000000000E+00 0.  1.
         23    2    1    2    0    0 -0.23853054109E+04  0.72597452278E+03  0.11157774847E+04  0.27331964251E+04  0.93179351257E+02 0.  0.
        254    2    1    2    0    0  0.23853054109E+04 -0.72597452278E+03  0.80523880208E+02  0.26521636073E+04  0.90042589544E+03 0.  0.
        -24    2    4    4    0    0  0.14098595179E+04 -0.24288183785E+03  0.44640874235E+03  0.15010775463E+04  0.85191474789E+02 0.  0.
         24    2    4    4    0    0  0.97544589301E+03 -0.48309268493E+03 -0.36588486214E+03  0.11510860609E+04  0.79083215068E+02 0.  0.
         13    1    3    3    0    0 -0.12898981222E+04  0.36300738424E+03  0.55909899254E+03  0.14519652923E+04  0.00000000000E+00 0. -1.
        -13    1    3    3    0    0 -0.10954072887E+04  0.36296713854E+03  0.55667849220E+03  0.12812311328E+04  0.00000000000E+00 0.  1.
          4    1    6    6  502    0  0.59648320601E+03 -0.28356057228E+03 -0.26094553744E+03  0.71013476659E+03  0.00000000000E+00 0. -1.
          3    1    5    5  503    0  0.96922518587E+03 -0.14732250737E+03  0.26940144713E+03  0.10166998189E+04  0.00000000000E+00 0. -1.
         -4    1    5    5    0  503  0.44063433206E+03 -0.95559330480E+02  0.17700729522E+03  0.48437772739E+03  0.00000000000E+00 0.  1.
         -3    1    6    6    0  502  0.37896268700E+03 -0.19953211265E+03 -0.10493932470E+03  0.44095129435E+03  0.00000000000E+00 0.  1.
<mgrwt>
<rscale>  0 0.52508062E+04</rscale>
<asrwt>0</asrwt>
<pdfrwt beam="1">  1        1 0.50628165E+00 0.52508062E+04</pdfrwt>
<pdfrwt beam="2">  1       -1 0.32223528E+00 0.52508062E+04</pdfrwt>
<totfact> 0.60763218E-03</totfact>
</mgrwt>
</event>
<event>
12    1  0.1980523E-007  0.1171808E+04  0.7818608E-02  0.9137897E-01
          1   -1    0    0  501    0  0.00000000000E+00  0.00000000000E+00  0.47807263273E+03  0.47807263273E+03  0.00000000000E+00 0. -1.
         -1   -1    0    0    0  501 -0.00000000000E+00 -0.00000000000E+00 -0.71805699525E+03  0.71805699525E+03  0.00000000000E+00 0.  1.
         23    2    1    2    0    0  0.19399858502E+03 -0.96344661746E+02  0.24815928376E+02  0.23390006889E+03  0.84709309348E+02 0.  0.
        254    2    1    2    0    0 -0.19399858502E+03  0.96344661746E+02 -0.26480029090E+03  0.96222955909E+03  0.89936020898E+03 0.  0.
        -24    2    4    4    0    0 -0.45965519116E+03 -0.89461060170E+02 -0.38099175173E+03  0.60877114907E+03  0.78494719555E+02 0.  0.
         24    2    4    4    0    0  0.26565660615E+03  0.18580572192E+03  0.11619146083E+03  0.35345841003E+03  0.79593927925E+02 0.  0.
         13    1    3    3    0    0  0.48504051900E+02 -0.69037032923E+02  0.46867923316E+01  0.84502786864E+02  0.00000000000E+00 0. -1.
        -13    1    3    3    0    0  0.14549453312E+03 -0.27307628823E+02  0.20129136044E+02  0.14939728202E+03  0.00000000000E+00 0.  1.
          2    1    6    6  502    0  0.14350888585E+03  0.14188088362E+03  0.90346031335E+02  0.22110493172E+03  0.00000000000E+00 0. -1.
          1    1    5    5  503    0 -0.45057125763E+03 -0.95483930075E+02 -0.35807532647E+03  0.58339487359E+03  0.00000000000E+00 0. -1.
         -2    1    5    5    0  503 -0.90839335352E+01  0.60228699045E+01 -0.22916425261E+02  0.25376275477E+02  0.00000000000E+00 0.  1.
         -1    1    6    6    0  502  0.12214772030E+03  0.43924838298E+02  0.25845429495E+02  0.13235347831E+03  0.00000000000E+00 0.  1.
<mgrwt>
<rscale>  0 0.11718078E+04</rscale>
<asrwt>0</asrwt>
<pdfrwt beam="1">  1        1 0.73549636E-01 0.11718078E+04</pdfrwt>
<pdfrwt beam="2">  1       -1 0.11047031E+00 0.11718078E+04</pdfrwt>
<totfact> 0.35340772E+01</totfact>
</mgrwt>
</event>
<event>
12    1  0.1980523E-007  0.1695359E+04  0.7818608E-02  0.8764016E-01
          1   -1    0    0  501    0  0.00000000000E+00  0.00000000000E+00  0.11303410327E+04  0.11303410327E+04  0.00000000000E+00 0. -1.
         -1   -1    0    0    0  501 -0.00000000000E+00 -0.00000000000E+00 -0.63570241091E+03  0.63570241091E+03  0.00000000000E+00 0.  1.
         23    2    1    2    0    0  0.17554554049E+03 -0.31473437446E+03 -0.33061713910E+03  0.49779640930E+03  0.92841850441E+02 0.  0.
        254    2    1    2    0    0 -0.17554554049E+03  0.31473437446E+03  0.82525576089E+03  0.12682470343E+04  0.89304507497E+03 0.  0.
        -24    2    4    4    0    0 -0.51710688148E+03  0.16998774675E+03  0.64515907309E+03  0.84810470312E+03  0.82194871784E+02 0.  0.
         24    2    4    4    0    0  0.34156134099E+03  0.14474662770E+03  0.18009668780E+03  0.42014233120E+03  0.80430253151E+02 0.  0.
         13    1    3    3    0    0  0.33926460502E+02 -0.23036881140E+02 -0.10915056907E+02  0.42436317962E+02  0.00000000000E+00 0. -1.
        -13    1    3    3    0    0  0.14161907999E+03 -0.29169749332E+03 -0.31970208219E+03  0.45536009134E+03  0.00000000000E+00 0.  1.
          4    1    6    6  502    0  0.30320917443E+03  0.10978302171E+03  0.12901432146E+03  0.34732234373E+03  0.00000000000E+00 0. -1.
          3    1    5    5  503    0 -0.26976899454E+03  0.10658577923E+03  0.28524163983E+03  0.40681523059E+03  0.00000000000E+00 0. -1.
         -4    1    5    5    0  503 -0.24733788694E+03  0.63401967526E+02  0.35991743326E+03  0.44128947253E+03  0.00000000000E+00 0.  1.
         -3    1    6    6    0  502  0.38352166556E+02  0.34963605990E+02  0.51082366346E+02  0.72819987468E+02  0.00000000000E+00 0.  1.
<mgrwt>
<rscale>  0 0.16953590E+04</rscale>
<asrwt>0</asrwt>
<pdfrwt beam="1">  1        1 0.17389862E+00 0.16953590E+04</pdfrwt>
<pdfrwt beam="2">  1       -1 0.97800371E-01 0.16953590E+04</pdfrwt>
<totfact> 0.11486167E+01</totfact>
</mgrwt>
</event>
<event>
12    1  0.1980523E-007  0.3738637E+04  0.7818608E-02  0.8059453E-01
         -2   -1    0    0    0  501 -0.00000000000E+00  0.00000000000E+00  0.24360540754E+04  0.24360540754E+04  0.00000000000E+00 0. -1.
          2   -1    0    0  501    0  0.00000000000E+00 -0.00000000000E+00 -0.14344308451E+04  0.14344308451E+04  0.00000000000E+00 0.  1.
         23    2    1    2    0    0  0.15097624926E+04  0.47654111008E+03 -0.32110209399E+03  0.16188103596E+04  0.10471968204E+03 0.  0.
        254    2    1    2    0    0 -0.15097624926E+04 -0.47654111008E+03  0.13227253243E+04  0.22516745610E+04  0.90219833254E+03 0.  0.
        -24    2    4    4    0    0 -0.65576022039E+03 -0.66669013687E+03  0.76260687832E+03  0.12095755282E+04  0.83704852126E+02 0.  0.
         24    2    4    4    0    0 -0.85400227223E+03  0.19014902679E+03  0.56011844598E+03  0.10420990328E+04  0.82226438850E+02 0.  0.
         13    1    3    3    0    0  0.54628923559E+03  0.13029313907E+03 -0.83320331313E+02  0.56775919950E+03  0.00000000000E+00 0.  1.
        -13    1    3    3    0    0  0.96347325703E+03  0.34624797101E+03 -0.23778176267E+03  0.10510511601E+04  0.00000000000E+00 0. -1.
          4    1    6    6  502    0 -0.93084181573E+02  0.24468984730E+02  0.33084807471E+02  0.10177426275E+03  0.00000000000E+00 0. -1.
          3    1    5    5  503    0 -0.15941876687E+02 -0.26223881826E+02  0.44462707871E+02  0.54025621713E+02  0.00000000000E+00 0. -1.
         -4    1    5    5    0  503 -0.63981834370E+03 -0.64046625504E+03  0.71814417045E+03  0.11555499065E+04  0.00000000000E+00 0.  1.
         -3    1    6    6    0  502 -0.76091809066E+03  0.16568004206E+03  0.52703363851E+03  0.94032477004E+03  0.00000000000E+00 0.  1.
<mgrwt>
<rscale>  0 0.37386367E+04</rscale>
<asrwt>0</asrwt>
<pdfrwt beam="1">  1        2 0.22068167E+00 0.37386367E+04</pdfrwt>
<pdfrwt beam="2">  1       -2 0.37477755E+00 0.37386367E+04</pdfrwt>
<totfact> 0.12050169E-01</totfact>
</mgrwt>
</event>
<event>
12    1  0.1980523E-007  0.2888738E+04  0.7818608E-02  0.8276236E-01
          2   -1    0    0  501    0  0.00000000000E+00  0.00000000000E+00  0.34654782734E+04  0.34654782734E+04  0.00000000000E+00 0. -1.
         -2   -1    0    0    0  501 -0.00000000000E+00 -0.00000000000E+00 -0.60199553882E+03  0.60199553882E+03  0.00000000000E+00 0.  1.
         23    2    1    2    0    0 -0.35313550276E+03 -0.12488451909E+04  0.14286979669E+04  0.19323837320E+04  0.92790154871E+02 0.  0.
        254    2    1    2    0    0  0.35313550276E+03  0.12488451909E+04  0.14347847677E+04  0.21350900803E+04  0.90315188482E+03 0.  0.
        -24    2    4    4    0    0  0.20202620593E+03  0.41657496330E+03  0.11447334471E+04  0.12373504917E+04  0.79197769225E+02 0.  0.
         24    2    4    4    0    0  0.15110929683E+03  0.83227022760E+03  0.29005132066E+03  0.89773958854E+03  0.79365287584E+02 0.  0.
         13    1    3    3    0    0 -0.88735636136E+02 -0.25875843990E+03  0.35445171868E+03  0.44773425624E+03  0.00000000000E+00 0. -1.
        -13    1    3    3    0    0 -0.26439986662E+03 -0.99008675100E+03  0.10742462482E+04  0.14846494757E+04  0.00000000000E+00 0.  1.
          2    1    6    6  502    0  0.10220607417E+03  0.40843582207E+03  0.11394025331E+03  0.43617460227E+03  0.00000000000E+00 0. -1.
          1    1    5    5  503    0  0.64987644227E+02  0.22438403738E+03  0.56003504327E+03  0.60680379022E+03  0.00000000000E+00 0. -1.
         -2    1    5    5    0  503  0.13703856171E+03  0.19219092592E+03  0.58469840378E+03  0.63054670151E+03  0.00000000000E+00 0.  1.
         -1    1    6    6    0  502  0.48903222651E+02  0.42383440553E+03  0.17611106735E+03  0.46156498626E+03  0.00000000000E+00 0.  1.
<mgrwt>
<rscale>  0 0.28887385E+04</rscale>
<asrwt>0</asrwt>
<pdfrwt beam="1">  1        2 0.53315049E+00 0.28887385E+04</pdfrwt>
<pdfrwt beam="2">  1       -2 0.92614700E-01 0.28887385E+04</pdfrwt>
<totfact> 0.73378565E-01</totfact>
</mgrwt>
</event>
<event>
12    1  0.1980523E-007  0.2239405E+04  0.7818608E-02  0.8502204E-01
          1   -1    0    0  501    0  0.00000000000E+00  0.00000000000E+00  0.18108816463E+04  0.18108816463E+04  0.00000000000E+00 0. -1.
         -1   -1    0    0    0  501 -0.00000000000E+00 -0.00000000000E+00 -0.69233313984E+03  0.69233313984E+03  0.00000000000E+00 0.  1.
         23    2    1    2    0    0  0.47226108139E+03 -0.58635426628E+03 -0.15224355625E+03  0.77375868136E+03  0.93180158716E+02 0.  0.
        254    2    1    2    0    0 -0.47226108139E+03  0.58635426628E+03  0.12707920627E+04  0.17294561048E+04  0.89959107220E+03 0.  0.
        -24    2    4    4    0    0 -0.39106863345E+03  0.28773856291E+03  0.82290180981E+02  0.49876079651E+03  0.79135969048E+02 0.  0.
         24    2    4    4    0    0 -0.81192447944E+02  0.29861570337E+03  0.11885018818E+04  0.12306953083E+04  0.79439706965E+02 0.  0.
         13    1    3    3    0    0  0.28374541429E+03 -0.42084366788E+03 -0.11038161428E+03  0.51942752497E+03  0.00000000000E+00 0. -1.
        -13    1    3    3    0    0  0.18851566710E+03 -0.16551059840E+03 -0.41861941963E+02  0.25433115639E+03  0.00000000000E+00 0.  1.
          2    1    6    6  502    0 -0.54233718469E+02  0.18410650387E+03  0.58014137426E+03  0.61106506619E+03  0.00000000000E+00 0. -1.
          1    1    5    5  503    0 -0.23074357197E+03  0.15473225931E+03  0.91239135351E+01  0.27797106662E+03  0.00000000000E+00 0. -1.
         -2    1    5    5    0  503 -0.16032506147E+03  0.13300630360E+03  0.73166267446E+02  0.22078972989E+03  0.00000000000E+00 0.  1.
         -1    1    6    6    0  502 -0.26958729475E+02  0.11450919950E+03  0.60836050749E+03  0.61963024211E+03  0.00000000000E+00 0.  1.
<mgrwt>
<rscale>  0 0.22394047E+04</rscale>
<asrwt>0</asrwt>
<pdfrwt beam="1">  1        1 0.27859718E+00 0.22394047E+04</pdfrwt>
<pdfrwt beam="2">  1       -1 0.10651279E+00 0.22394047E+04</pdfrwt>
<totfact> 0.29959317E+00</totfact>
</mgrwt>
</event>
<event>
12    1  0.1980523E-007  0.1188363E+04  0.7818608E-02  0.9123103E-01
         -1   -1    0    0    0  501 -0.00000000000E+00  0.00000000000E+00  0.38010710136E+03  0.38010710136E+03  0.00000000000E+00 0.  1.
          1   -1    0    0  501    0  0.00000000000E+00 -0.00000000000E+00 -0.92882212608E+03  0.92882212608E+03  0.00000000000E+00 0. -1.
         23    2    1    2    0    0  0.99176464915E+01  0.13137077979E+03 -0.34300614110E+03  0.37899416299E+03  0.92880144575E+02 0.  0.
        254    2    1    2    0    0 -0.99176464915E+01 -0.13137077979E+03 -0.20570888362E+03  0.92993506445E+03  0.89727723575E+03 0.  0.
        -24    2    4    4    0    0  0.14579887521E+03  0.21214967768E+03 -0.41219837216E+03  0.49244212562E+03  0.79542135498E+02 0.  0.
         24    2    4    4    0    0 -0.15571652171E+03 -0.34352045747E+03  0.20648948854E+03  0.43749293883E+03  0.80673557058E+02 0.  0.
         11    1    3    3    0    0  0.31243875986E+02  0.13331788910E+03 -0.26749718290E+03  0.30050720823E+03  0.00000000000E+00 0. -1.
        -11    1    3    3    0    0 -0.21326229494E+02 -0.19471093099E+01 -0.75508958199E+02  0.78486954759E+02  0.00000000000E+00 0.  1.
          2    1    6    6  502    0 -0.55166388272E+02 -0.15659623575E+03  0.13348994576E+03  0.21303820564E+03  0.00000000000E+00 0. -1.
          1    1    5    5  503    0  0.12670680776E+03  0.12803031622E+03 -0.31167239313E+03  0.35998063510E+03  0.00000000000E+00 0. -1.
         -4    1    5    5    0  503  0.19092067455E+02  0.84119361459E+02 -0.10052597903E+03  0.13246149053E+03  0.00000000000E+00 0.  1.
         -1    1    6    6    0  502 -0.10055013343E+03 -0.18692422173E+03  0.72999542789E+02  0.22445473319E+03  0.00000000000E+00 0.  1.
<mgrwt>
<rscale>  0 0.11883634E+04</rscale>
<asrwt>0</asrwt>
<pdfrwt beam="1">  1        1 0.14289571E+00 0.11883634E+04</pdfrwt>
<pdfrwt beam="2">  1       -1 0.58478016E-01 0.11883634E+04</pdfrwt>
<totfact> 0.50597649E+01</totfact>
</mgrwt>
</event>
<event>
12    1  0.1980523E-007  0.1969379E+04  0.7818608E-02  0.8621072E-01
          2   -1    0    0  501    0  0.00000000000E+00  0.00000000000E+00  0.20130168278E+04  0.20130168278E+04  0.00000000000E+00 0.  1.
         -2   -1    0    0    0  501 -0.00000000000E+00 -0.00000000000E+00 -0.48167185110E+03  0.48167185110E+03  0.00000000000E+00 0. -1.
         23    2    1    2    0    0 -0.57268018811E+03 -0.25231440589E+03  0.26316417112E+02  0.63294485920E+03  0.91112478271E+02 0.  0.
        254    2    1    2    0    0  0.57268018811E+03  0.25231440589E+03  0.15050285596E+04  0.18617438197E+04  0.89964099940E+03 0.  0.
        -24    2    4    4    0    0  0.47021921539E+03 -0.19768576052E+03  0.11904852719E+04  0.12976705908E+04  0.80672232897E+02 0.  0.
         24    2    4    4    0    0  0.10246097272E+03  0.45000016641E+03  0.31454328774E+03  0.56407322897E+03  0.79010930091E+02 0.  0.
         11    1    3    3    0    0 -0.29040006449E+03 -0.11741222853E+03  0.57729238103E+02  0.31851294134E+03  0.00000000000E+00 0.  1.
        -11    1    3    3    0    0 -0.28228012362E+03 -0.13490217736E+03 -0.31412820991E+02  0.31443191786E+03  0.00000000000E+00 0. -1.
          2    1    6    6  502    0  0.65225026353E+01  0.20508062694E+03  0.13619232756E+03  0.24627008888E+03  0.00000000000E+00 0. -1.
          3    1    5    5  503    0  0.33496209246E+03 -0.10000417798E+03  0.80199614855E+03  0.87487042543E+03  0.00000000000E+00 0. -1.
         -4    1    5    5    0  503  0.13525712293E+03 -0.97681582540E+02  0.38848912331E+03  0.42280016533E+03  0.00000000000E+00 0.  1.
         -1    1    6    6    0  502  0.95938470084E+02  0.24491953947E+03  0.17835096018E+03  0.31780314009E+03  0.00000000000E+00 0.  1.
<mgrwt>
<rscale>  0 0.19693791E+04</rscale>
<asrwt>0</asrwt>
<pdfrwt beam="1">  1        2 0.30969489E+00 0.19693791E+04</pdfrwt>
<pdfrwt beam="2">  1       -2 0.74103363E-01 0.19693791E+04</pdfrwt>
<totfact> 0.10035164E+01</totfact>
</mgrwt>
</event>
<event>
12    1  0.1980523E-007  0.3264347E+04  0.7818608E-02  0.8172027E-01
          2   -1    0    0  501    0  0.00000000000E+00  0.00000000000E+00  0.32390786159E+04  0.32390786159E+04  0.00000000000E+00 0. -1.
         -2   -1    0    0    0  501 -0.00000000000E+00 -0.00000000000E+00 -0.82245309373E+03  0.82245309373E+03  0.00000000000E+00 0.  1.
         23    2    1    2    0    0  0.14871902986E+04 -0.24059899600E+03  0.11574639749E+04  0.19020562070E+04  0.92044013161E+02 0.  0.
        254    2    1    2    0    0 -0.14871902986E+04  0.24059899600E+03  0.12591615472E+04  0.21594755026E+04  0.89901267129E+03 0.  0.
        -24    2    4    4    0    0 -0.13491720442E+04  0.38198396779E+03  0.13309939920E+04  0.19349635256E+04  0.79761407832E+02 0.  0.
         24    2    4    4    0    0 -0.13801825437E+03 -0.14138497179E+03 -0.71832444788E+02  0.22451197695E+03  0.78784382226E+02 0.  0.
         13    1    3    3    0    0  0.40047510918E+03 -0.45494713520E+02  0.35572090273E+03  0.53757552276E+03  0.00000000000E+00 0. -1.
        -13    1    3    3    0    0  0.10867151894E+04 -0.19510428248E+03  0.80174307218E+03  0.13644806843E+04  0.00000000000E+00 0.  1.
          2    1    6    6  502    0 -0.54932005121E+02 -0.74348386716E+02 -0.72934882902E+02  0.11774848168E+03  0.00000000000E+00 0. -1.
          3    1    5    5  503    0 -0.48113572834E+03  0.97646824990E+02  0.47673207272E+03  0.68432445570E+03  0.00000000000E+00 0. -1.
         -4    1    5    5    0  503 -0.86803631588E+03  0.28433714280E+03  0.85426191931E+03  0.12506390699E+04  0.00000000000E+00 0.  1.
         -1    1    6    6    0  502 -0.83086249248E+02 -0.67036585074E+02  0.11024381149E+01  0.10676349527E+03  0.00000000000E+00 0.  1.
<mgrwt>
<rscale>  0 0.32643469E+04</rscale>
<asrwt>0</asrwt>
<pdfrwt beam="1">  1        2 0.49831978E+00 0.32643469E+04</pdfrwt>
<pdfrwt beam="2">  1       -2 0.12653125E+00 0.32643469E+04</pdfrwt>
<totfact> 0.47566471E-01</totfact>
</mgrwt>
</event>
<event>
12    1  0.1980523E-007  0.2138855E+04  0.7818608E-02  0.8544318E-01
          1   -1    0    0  501    0  0.00000000000E+00  0.00000000000E+00  0.10314001791E+04  0.10314001791E+04  0.00000000000E+00 0. -1.
         -1   -1    0    0    0  501 -0.00000000000E+00 -0.00000000000E+00 -0.11088572811E+04  0.11088572811E+04  0.00000000000E+00 0.  1.
         23    2    1    2    0    0  0.70872987337E+03 -0.34621261708E+03  0.35191132817E+03  0.86849227687E+03  0.90972756682E+02 0.  0.
        254    2    1    2    0    0 -0.70872987337E+03  0.34621261708E+03 -0.42936843021E+03  0.12717651833E+04  0.90048221690E+03 0.  0.
        -24    2    4    4    0    0 -0.25294671027E+03  0.45113634776E+03  0.12904559697E+03  0.53900102269E+03  0.79770256730E+02 0.  0.
         24    2    4    4    0    0 -0.45578316310E+03 -0.10492373069E+03 -0.55841402718E+03  0.73276416060E+03  0.79811078702E+02 0.  0.
         13    1    3    3    0    0  0.21739535678E+03 -0.78214844270E+02  0.13938782054E+03  0.26982821856E+03  0.00000000000E+00 0. -1.
        -13    1    3    3    0    0  0.49133451659E+03 -0.26799777280E+03  0.21252350763E+03  0.59866405831E+03  0.00000000000E+00 0.  1.
          2    1    6    6  502    0 -0.40218192598E+03 -0.11099443683E+03 -0.46372728018E+03  0.62378927289E+03  0.00000000000E+00 0. -1.
          1    1    5    5  503    0 -0.13488561556E+03  0.26642118189E+03  0.35750914798E+02  0.30075322667E+03  0.00000000000E+00 0. -1.
         -2    1    5    5    0  503 -0.11806109471E+03  0.18471516587E+03  0.93294682172E+02  0.23824779602E+03  0.00000000000E+00 0.  1.
         -1    1    6    6    0  502 -0.53601237118E+02  0.60707061397E+01 -0.94686747001E+02  0.10897488771E+03  0.00000000000E+00 0.  1.
<mgrwt>
<rscale>  0 0.21388554E+04</rscale>
<asrwt>0</asrwt>
<pdfrwt beam="1">  1        1 0.15867695E+00 0.21388554E+04</pdfrwt>
<pdfrwt beam="2">  1       -1 0.17059343E+00 0.21388554E+04</pdfrwt>
<totfact> 0.31938307E+00</totfact>
</mgrwt>
</event>
<event>
12    1  0.1980523E-007  0.2595478E+04  0.7818608E-02  0.8369739E-01
          1   -1    0    0  501    0  0.00000000000E+00  0.00000000000E+00  0.12563769477E+04  0.12563769477E+04  0.00000000000E+00 0. -1.
         -1   -1    0    0    0  501 -0.00000000000E+00 -0.00000000000E+00 -0.13404629579E+04  0.13404629579E+04  0.00000000000E+00 0.  1.
         23    2    1    2    0    0 -0.46601974530E+01  0.10935831238E+04  0.28233220918E+03  0.11332922008E+04  0.93241460601E+02 0.  0.
        254    2    1    2    0    0  0.46601974530E+01 -0.10935831238E+04 -0.36641821933E+03  0.14635477047E+04  0.90097935963E+03 0.  0.
        -24    2    4    4    0    0  0.37578849819E+03 -0.92143543924E+03 -0.22296246397E+03  0.10226652103E+04  0.76626418789E+02 0.  0.
         24    2    4    4    0    0 -0.37112830074E+03 -0.17214768457E+03 -0.14345575536E+03  0.44088249439E+03  0.80167195330E+02 0.  0.
         13    1    3    3    0    0 -0.14696693908E+02  0.15956414339E+03  0.11038199850E+02  0.16061927195E+03  0.00000000000E+00 0.  1.
        -13    1    3    3    0    0  0.10036496455E+02  0.93401898042E+03  0.27129400933E+03  0.97267292886E+03  0.00000000000E+00 0. -1.
          4    1    6    6  502    0 -0.26902730702E+03 -0.12858093439E+03 -0.14103668989E+03  0.32984859633E+03  0.00000000000E+00 0. -1.
          3    1    5    5  503    0  0.32260024961E+03 -0.81104643820E+03 -0.17037390757E+03  0.88932250300E+03  0.00000000000E+00 0. -1.
         -4    1    5    5    0  503  0.53188248576E+02 -0.11038900104E+03 -0.52588556407E+02  0.13334270734E+03  0.00000000000E+00 0.  1.
         -3    1    6    6    0  502 -0.10210099372E+03 -0.43566750181E+02 -0.24190654626E+01  0.11103389806E+03  0.00000000000E+00 0.  1.
<mgrwt>
<rscale>  0 0.25954782E+04</rscale>
<asrwt>0</asrwt>
<pdfrwt beam="1">  1        1 0.19328876E+00 0.25954782E+04</pdfrwt>
<pdfrwt beam="2">  1       -1 0.20622507E+00 0.25954782E+04</pdfrwt>
<totfact> 0.11685262E+00</totfact>
</mgrwt>
</event>
<event>
12    1  0.1980523E-007  0.1661564E+04  0.7818608E-02  0.8783594E-01
          2   -1    0    0  501    0  0.00000000000E+00  0.00000000000E+00  0.10702848110E+04  0.10702848110E+04  0.00000000000E+00 0. -1.
         -2   -1    0    0    0  501 -0.00000000000E+00 -0.00000000000E+00 -0.64487405449E+03  0.64487405449E+03  0.00000000000E+00 0.  1.
         23    2    1    2    0    0 -0.43279900436E+02 -0.56502338842E+03  0.35361970740E+03  0.67378537356E+03  0.88403919089E+02 0.  0.
        254    2    1    2    0    0  0.43279900436E+02  0.56502338842E+03  0.71791049154E+02  0.10413734920E+04  0.87073544536E+03 0.  0.
        -24    2    4    4    0    0  0.14647611359E+03 -0.19373037305E+03  0.90048588205E+02  0.27121349350E+03  0.80382221454E+02 0.  0.
         24    2    4    4    0    0 -0.10319621315E+03  0.75875376147E+03 -0.18257539051E+02  0.77015999847E+03  0.80351456511E+02 0.  0.
         11    1    3    3    0    0  0.10844285440E+00 -0.45853137170E+03  0.28115025009E+03  0.53786289491E+03  0.00000000000E+00 0. -1.
        -11    1    3    3    0    0 -0.43388343290E+02 -0.10649201672E+03  0.72469457307E+02  0.13592247865E+03  0.00000000000E+00 0.  1.
          4    1    6    6  502    0 -0.11585376545E+03  0.68600652142E+03 -0.23657335333E+02  0.69612262707E+03  0.00000000000E+00 0. -1.
          1    1    5    5  503    0  0.12051056063E+03 -0.18800433256E+03  0.97395995906E+02  0.24362759348E+03  0.00000000000E+00 0. -1.
         -2    1    5    5    0  503  0.25965552962E+02 -0.57260404874E+01 -0.73474077013E+01  0.27585900025E+02  0.00000000000E+00 0.  1.
         -3    1    6    6    0  502  0.12657552295E+02  0.72747240047E+02  0.53997962819E+01  0.74037371405E+02  0.00000000000E+00 0.  1.
<mgrwt>
<rscale>  0 0.16615642E+04</rscale>
<asrwt>0</asrwt>
<pdfrwt beam="1">  1        2 0.16465920E+00 0.16615642E+04</pdfrwt>
<pdfrwt beam="2">  1       -2 0.99211393E-01 0.16615642E+04</pdfrwt>
<totfact> 0.18263418E+01</totfact>
</mgrwt>
</event>
<event>
12    1  0.1980523E-007  0.2906308E+04  0.7818608E-02  0.8271003E-01
          2   -1    0    0  501    0  0.00000000000E+00  0.00000000000E+00  0.15929335654E+04  0.15929335654E+04  0.00000000000E+00 0. -1.
         -2   -1    0    0    0  501 -0.00000000000E+00 -0.00000000000E+00 -0.13256400352E+04  0.13256400352E+04  0.00000000000E+00 0.  1.
         23    2    1    2    0    0 -0.67993730962E+03 -0.11173357885E+04  0.22495861962E+03  0.13305393447E+04  0.94734143447E+02 0.  0.
        254    2    1    2    0    0  0.67993730962E+03  0.11173357885E+04  0.42334910629E+02  0.15880342559E+04  0.89961466411E+03 0.  0.
        -24    2    4    4    0    0  0.50211060302E+03  0.25452038725E+03 -0.29564380554E+03  0.64108773889E+03  0.81807970325E+02 0.  0.
         24    2    4    4    0    0  0.17782670660E+03  0.86281540126E+03  0.33797871617E+03  0.94694651699E+03  0.80033363131E+02 0.  0.
         11    1    3    3    0    0 -0.49286270089E+03 -0.77882934734E+03  0.11756008067E+03  0.92914431967E+03  0.00000000000E+00 0.  1.
        -11    1    3    3    0    0 -0.18707460874E+03 -0.33850644117E+03  0.10739853895E+03  0.40139502503E+03  0.00000000000E+00 0. -1.
          2    1    6    6  502    0  0.46481733651E+02  0.42359091605E+03  0.16188484133E+03  0.45584703309E+03  0.00000000000E+00 0. -1.
          1    1    5    5  503    0  0.13819724494E+03  0.71947131973E+02 -0.41875242968E+02  0.16133320886E+03  0.00000000000E+00 0. -1.
         -2    1    5    5    0  503  0.36391335808E+03  0.18257325528E+03 -0.25376856257E+03  0.47975453003E+03  0.00000000000E+00 0.  1.
         -1    1    6    6    0  502  0.13134497295E+03  0.43922448521E+03  0.17609387484E+03  0.49109948390E+03  0.00000000000E+00 0.  1.
<mgrwt>
<rscale>  0 0.29063080E+04</rscale>
<asrwt>0</asrwt>
<pdfrwt beam="1">  1        2 0.24506670E+00 0.29063080E+04</pdfrwt>
<pdfrwt beam="2">  1       -2 0.20394462E+00 0.29063080E+04</pdfrwt>
<totfact> 0.12167845E+00</totfact>
</mgrwt>
</event>
<event>
12    1  0.1980523E-007  0.1230082E+04  0.7818608E-02  0.9086926E-01
          2   -1    0    0  501    0  0.00000000000E+00  0.00000000000E+00  0.23646555146E+04  0.23646555146E+04  0.00000000000E+00 0. -1.
         -2   -1    0    0    0  501 -0.00000000000E+00 -0.00000000000E+00 -0.15997069507E+03  0.15997069507E+03  0.00000000000E+00 0.  1.
         23    2    1    2    0    0  0.18029423689E+03 -0.19385674887E+03  0.41064118238E+03  0.49694798705E+03  0.90800166427E+02 0.  0.
        254    2    1    2    0    0 -0.18029423689E+03  0.19385674887E+03  0.17940436371E+04  0.20276782226E+04  0.90708321091E+03 0.  0.
        -24    2    4    4    0    0  0.20538848932E+03  0.41517728103E+03  0.11342491496E+04  0.12278893080E+04  0.81451906410E+02 0.  0.
         24    2    4    4    0    0 -0.38568272621E+03 -0.22132053216E+03  0.65979448747E+03  0.79978891456E+03  0.81237915432E+02 0.  0.
         11    1    3    3    0    0  0.18336683546E+03 -0.17951270091E+03  0.40808170855E+03  0.48205693335E+03  0.00000000000E+00 0. -1.
        -11    1    3    3    0    0 -0.30725985653E+01 -0.14344047966E+02  0.25594738261E+01  0.14891053699E+02  0.00000000000E+00 0.  1.
          2    1    6    6  502    0 -0.24955393238E+03 -0.11931655006E+03  0.34728278015E+03  0.44398078075E+03  0.00000000000E+00 0. -1.
          3    1    5    5  503    0  0.11444895498E+03  0.20986594966E+03  0.68767922373E+03  0.72804189087E+03  0.00000000000E+00 0. -1.
         -4    1    5    5    0  503  0.90939534340E+02  0.20531133137E+03  0.44656992591E+03  0.49984741714E+03  0.00000000000E+00 0.  1.
         -1    1    6    6    0  502 -0.13612879382E+03 -0.10200398210E+03  0.31251170732E+03  0.35580813381E+03  0.00000000000E+00 0.  1.
<mgrwt>
<rscale>  0 0.12300823E+04</rscale>
<asrwt>0</asrwt>
<pdfrwt beam="1">  1        2 0.36379313E+00 0.12300823E+04</pdfrwt>
<pdfrwt beam="2">  1       -2 0.24610878E-01 0.12300823E+04</pdfrwt>
<totfact> 0.60802443E+01</totfact>
</mgrwt>
</event>
<event>
12    1  0.1980523E-007  0.2265222E+04  0.7818608E-02  0.8491761E-01
          2   -1    0    0  501    0  0.00000000000E+00  0.00000000000E+00  0.13963505436E+04  0.13963505436E+04  0.00000000000E+00 0. -1.
         -2   -1    0    0    0  501 -0.00000000000E+00 -0.00000000000E+00 -0.91868587401E+03  0.91868587401E+03  0.00000000000E+00 0.  1.
         23    2    1    2    0    0  0.89279669590E+03  0.10032275902E+03 -0.11703482044E+03  0.91060299350E+03  0.91378697609E+02 0.  0.
        254    2    1    2    0    0 -0.89279669590E+03 -0.10032275902E+03  0.59469949001E+03  0.14044334241E+04  0.90089686598E+03 0.  0.
        -24    2    4    4    0    0 -0.10351474369E+04 -0.20251648688E+03  0.59172004043E+03  0.12121079338E+04  0.80807755535E+02 0.  0.
         24    2    4    4    0    0  0.14235074104E+03  0.10219372786E+03  0.29794495859E+01  0.19232549027E+03  0.79201802994E+02 0.  0.
         11    1    3    3    0    0  0.10408816133E+02 -0.91995675944E+01 -0.18936728900E+01  0.14020039024E+02  0.00000000000E+00 0. -1.
        -11    1    3    3    0    0  0.88238787977E+03  0.10952232661E+03 -0.11514114755E+03  0.89658295447E+03  0.00000000000E+00 0.  1.
          2    1    6    6  502    0  0.98629494300E+02  0.10357826221E+03 -0.17378212669E+02  0.14407718704E+03  0.00000000000E+00 0. -1.
          3    1    5    5  503    0 -0.10100687787E+04 -0.20710232521E+03  0.56748348179E+03  0.11769315243E+04  0.00000000000E+00 0. -1.
         -4    1    5    5    0  503 -0.25078658247E+02  0.45858383322E+01  0.24236558636E+02  0.35176409527E+02  0.00000000000E+00 0.  1.
         -1    1    6    6    0  502  0.43721246742E+02 -0.13845343536E+01  0.20357662255E+02  0.48248303230E+02  0.00000000000E+00 0.  1.
<mgrwt>
<rscale>  0 0.22652219E+04</rscale>
<asrwt>0</asrwt>
<pdfrwt beam="1">  1        2 0.21482316E+00 0.22652219E+04</pdfrwt>
<pdfrwt beam="2">  1       -2 0.14133629E+00 0.22652219E+04</pdfrwt>
<totfact> 0.46328742E+00</totfact>
</mgrwt>
</event>
<event>
12    1  0.1980523E-007  0.3181753E+04  0.7818608E-02  0.8193653E-01
          2   -1    0    0  501    0  0.00000000000E+00  0.00000000000E+00  0.37832808340E+04  0.37832808340E+04  0.00000000000E+00 0.  1.
         -2   -1    0    0    0  501 -0.00000000000E+00 -0.00000000000E+00 -0.66896631466E+03  0.66896631466E+03  0.00000000000E+00 0. -1.
         23    2    1    2    0    0  0.85351915486E+03 -0.41129063496E+02 -0.22494300810E+03  0.88895733066E+03  0.97258579364E+02 0.  0.
        254    2    1    2    0    0 -0.85351915486E+03  0.41129063496E+02  0.33392575274E+04  0.35632898180E+04  0.90344172190E+03 0.  0.
        -24    2    4    4    0    0 -0.45749906982E+03 -0.39014040977E+03  0.12108365529E+04  0.13542632889E+04  0.79930968323E+02 0.  0.
         24    2    4    4    0    0 -0.39602008504E+03  0.43126947327E+03  0.21284209745E+04  0.22090265290E+04  0.82444495841E+02 0.  0.
         11    1    3    3    0    0  0.94075218827E+02 -0.28248694885E+02 -0.56771156994E+01  0.98388846943E+02  0.00000000000E+00 0. -1.
        -11    1    3    3    0    0  0.75944393603E+03 -0.12880368611E+02 -0.21926589240E+03  0.79056848372E+03  0.00000000000E+00 0.  1.
          4    1    6    6  502    0 -0.26734200149E+03  0.27577465778E+03  0.12479990470E+04  0.13057660697E+04  0.00000000000E+00 0. -1.
          1    1    5    5  503    0 -0.46567380193E+02 -0.76665642137E+02  0.18060440223E+03  0.20165339493E+03  0.00000000000E+00 0. -1.
         -2    1    5    5    0  503 -0.41093168963E+03 -0.31347476763E+03  0.10302321507E+04  0.11526098940E+04  0.00000000000E+00 0.  1.
         -3    1    6    6    0  502 -0.12867808354E+03  0.15549481548E+03  0.88042192755E+03  0.90326045930E+03  0.00000000000E+00 0.  1.
<mgrwt>
<rscale>  0 0.31817526E+04</rscale>
<asrwt>0</asrwt>
<pdfrwt beam="1">  1        2 0.58204319E+00 0.31817526E+04</pdfrwt>
<pdfrwt beam="2">  1       -2 0.10291790E+00 0.31817526E+04</pdfrwt>
<totfact> 0.32842766E-01</totfact>
</mgrwt>
</event>
<event>
12    1  0.1980523E-007  0.3004974E+04  0.7818608E-02  0.8242312E-01
         -2   -1    0    0    0  501 -0.00000000000E+00  0.00000000000E+00  0.66900542593E+03  0.66900542593E+03  0.00000000000E+00 0.  1.
          2   -1    0    0  501    0  0.00000000000E+00 -0.00000000000E+00 -0.33743631352E+04  0.33743631352E+04  0.00000000000E+00 0. -1.
         23    2    1    2    0    0 -0.11492462847E+04 -0.23167440847E+03 -0.21756520603E+04  0.24732127028E+04  0.94229143359E+02 0.  0.
        254    2    1    2    0    0  0.11492462847E+04  0.23167440847E+03 -0.52970564896E+03  0.15701558583E+04  0.90020069459E+03 0.  0.
        -24    2    4    4    0    0  0.49353792320E+03 -0.27021477719E+03  0.30466670999E+02  0.56920223794E+03  0.80419289946E+02 0.  0.
         24    2    4    4    0    0  0.65570836146E+03  0.50188918566E+03 -0.56017231996E+03  0.10009536204E+04  0.79176461920E+02 0.  0.
         11    1    3    3    0    0 -0.97134415325E+03 -0.16867624533E+03 -0.18706371262E+04  0.21145317207E+04  0.00000000000E+00 0. -1.
        -11    1    3    3    0    0 -0.17790213140E+03 -0.62998163140E+02 -0.30501493408E+03  0.35868098211E+03  0.00000000000E+00 0.  1.
          4    1    6    6  502    0  0.19252624631E+03  0.18999966240E+03 -0.16462296870E+03  0.31664956822E+03  0.00000000000E+00 0. -1.
          1    1    5    5  503    0  0.33784347393E+03 -0.18402039795E+03 -0.16780946812E+02  0.38507573271E+03  0.00000000000E+00 0. -1.
         -2    1    5    5    0  503  0.15569444926E+03 -0.86194379237E+02  0.47247617810E+02  0.18412650524E+03  0.00000000000E+00 0.  1.
         -3    1    6    6    0  502  0.46318211514E+03  0.31188952326E+03 -0.39554935127E+03  0.68430405216E+03  0.00000000000E+00 0.  1.
<mgrwt>
<rscale>  0 0.30049740E+04</rscale>
<asrwt>0</asrwt>
<pdfrwt beam="1">  1        2 0.51913279E+00 0.30049740E+04</pdfrwt>
<pdfrwt beam="2">  1       -2 0.10292391E+00 0.30049740E+04</pdfrwt>
<totfact> 0.65439571E-01</totfact>
</mgrwt>
</event>
<event>
12    1  0.1980523E-007  0.1292012E+04  0.7818608E-02  0.9035924E-01
          2   -1    0    0  501    0  0.00000000000E+00  0.00000000000E+00  0.14932582911E+04  0.14932582911E+04  0.00000000000E+00 0. -1.
         -2   -1    0    0    0  501 -0.00000000000E+00 -0.00000000000E+00 -0.27947207045E+03  0.27947207045E+03  0.00000000000E+00 0.  1.
         23    2    1    2    0    0  0.11717263447E+03  0.29428329944E+03  0.32452836387E+03  0.46816707759E+03  0.11631709672E+03 0.  0.
        254    2    1    2    0    0 -0.11717263447E+03 -0.29428329944E+03  0.88925785675E+03  0.13045632839E+04  0.90042975261E+03 0.  0.
        -24    2    4    4    0    0  0.24744633394E+03  0.54675084973E+02  0.71859398134E+03  0.76629349032E+03  0.81297910161E+02 0.  0.
         24    2    4    4    0    0 -0.36461896841E+03 -0.34895838441E+03  0.17066387540E+03  0.53826979360E+03  0.76741554345E+02 0.  0.
         13    1    3    3    0    0  0.77812570156E+02  0.28435291198E+03  0.30064610287E+03  0.42106941684E+03  0.00000000000E+00 0. -1.
        -13    1    3    3    0    0  0.39360064315E+02  0.99303874554E+01  0.23882261000E+02  0.47097660752E+02  0.00000000000E+00 0.  1.
          4    1    6    6  502    0 -0.30222943851E+03 -0.32451407043E+03  0.15041320104E+03  0.46826930975E+03  0.00000000000E+00 0. -1.
          3    1    5    5  503    0  0.14477302284E+03  0.64713321316E+02  0.50069893893E+03  0.52521088102E+03  0.00000000000E+00 0. -1.
         -2    1    5    5    0  503  0.10267331110E+03 -0.10038236343E+02  0.21789504241E+03  0.24108260930E+03  0.00000000000E+00 0.  1.
         -3    1    6    6    0  502 -0.62389529899E+02 -0.24444313979E+02  0.20250674363E+02  0.70000483849E+02  0.00000000000E+00 0.  1.
<mgrwt>
<rscale>  0 0.12920124E+04</rscale>
<asrwt>0</asrwt>
<pdfrwt beam="1">  1        2 0.22973204E+00 0.12920124E+04</pdfrwt>
<pdfrwt beam="2">  1       -2 0.42995704E-01 0.12920124E+04</pdfrwt>
<totfact> 0.64384806E+01</totfact>
</mgrwt>
</event>
<event>
12    1  0.1980523E-007  0.1808957E+04  0.7818608E-02  0.8701551E-01
         -2   -1    0    0    0  501 -0.00000000000E+00  0.00000000000E+00  0.46327247525E+03  0.46327247525E+03  0.00000000000E+00 0.  1.
          2   -1    0    0  501    0  0.00000000000E+00 -0.00000000000E+00 -0.17658758073E+04  0.17658758073E+04  0.00000000000E+00 0. -1.
         23    2    1    2    0    0  0.63783740899E+03 -0.19277308660E+03 -0.34173442222E+03  0.75408286807E+03  0.88659648993E+02 0.  0.
        254    2    1    2    0    0 -0.63783740899E+03  0.19277308660E+03 -0.96086890985E+03  0.14750654145E+04  0.89919457956E+03 0.  0.
        -24    2    4    4    0    0 -0.12440752266E+03 -0.33327996697E+03 -0.43398461356E+03  0.56676379377E+03  0.79534803947E+02 0.  0.
         24    2    4    4    0    0 -0.51342988634E+03  0.52605305357E+03 -0.52688429629E+03  0.90830162073E+03  0.84039926228E+02 0.  0.
         11    1    3    3    0    0  0.25279501866E+03 -0.31901667551E+02 -0.13608684108E+03  0.28886444254E+03  0.00000000000E+00 0. -1.
        -11    1    3    3    0    0  0.38504239033E+03 -0.16087141904E+03 -0.20564758114E+03  0.46521842553E+03  0.00000000000E+00 0.  1.
          2    1    6    6  502    0 -0.24800007297E+03  0.21349077154E+03 -0.19643492515E+03  0.38166611789E+03  0.00000000000E+00 0. -1.
          3    1    5    5  503    0 -0.59342543401E+02 -0.23622530723E+03 -0.33137923167E+03  0.41126163013E+03  0.00000000000E+00 0. -1.
         -4    1    5    5    0  503 -0.65064979258E+02 -0.97054659741E+02 -0.10260538189E+03  0.15550216364E+03  0.00000000000E+00 0.  1.
         -1    1    6    6    0  502 -0.26542981336E+03  0.31256228203E+03 -0.33044937113E+03  0.52663550284E+03  0.00000000000E+00 0.  1.
<mgrwt>
<rscale>  0 0.18089573E+04</rscale>
<asrwt>0</asrwt>
<pdfrwt beam="1">  1        2 0.27167320E+00 0.18089573E+04</pdfrwt>
<pdfrwt beam="2">  1       -2 0.71272689E-01 0.18089573E+04</pdfrwt>
<totfact> 0.15193775E+01</totfact>
</mgrwt>
</event>
<event>
12    1  0.1980523E-007  0.2945906E+04  0.7818608E-02  0.8259349E-01
         -1   -1    0    0    0  501 -0.00000000000E+00  0.00000000000E+00  0.32507650550E+04  0.32507650550E+04  0.00000000000E+00 0.  1.
          1   -1    0    0  501    0  0.00000000000E+00 -0.00000000000E+00 -0.66740935671E+03  0.66740935671E+03  0.00000000000E+00 0. -1.
         23    2    1    2    0    0 -0.12626819049E+04  0.41150347917E+03  0.10151475040E+04  0.16743430768E+04  0.95914429197E+02 0.  0.
        254    2    1    2    0    0  0.12626819049E+04 -0.41150347917E+03  0.15682081943E+04  0.22438313348E+04  0.90100022877E+03 0.  0.
        -24    2    4    4    0    0  0.13917218076E+04 -0.34251020839E+03  0.13727892924E+04  0.19862806880E+04  0.80979614094E+02 0.  0.
         24    2    4    4    0    0 -0.12903990267E+03 -0.68993270785E+02  0.19541890189E+03  0.25755064678E+03  0.82051328742E+02 0.  0.
         11    1    3    3    0    0 -0.69633025201E+02  0.46995034762E+02  0.65171192433E+02  0.10632297877E+03  0.00000000000E+00 0. -1.
        -11    1    3    3    0    0 -0.11930488797E+04  0.36450844441E+03  0.94997631155E+03  0.15680200981E+04  0.00000000000E+00 0.  1.
          2    1    6    6  502    0  0.74022577787E+01  0.58267637426E+01  0.25300780288E+02  0.26997668031E+02  0.00000000000E+00 0. -1.
          3    1    5    5  503    0  0.43566468005E+03 -0.69423143756E+02  0.41231505226E+03  0.60384351338E+03  0.00000000000E+00 0. -1.
         -4    1    5    5    0  503  0.95605712754E+03 -0.27308706463E+03  0.96047424012E+03  0.13824371747E+04  0.00000000000E+00 0.  1.
         -1    1    6    6    0  502 -0.13644216045E+03 -0.74820034528E+02  0.17011812160E+03  0.23055297875E+03  0.00000000000E+00 0.  1.
<mgrwt>
<rscale>  0 0.29459063E+04</rscale>
<asrwt>0</asrwt>
<pdfrwt beam="1">  1        1 0.10267836E+00 0.29459063E+04</pdfrwt>
<pdfrwt beam="2">  1       -1 0.50011769E+00 0.29459063E+04</pdfrwt>
<totfact> 0.37129020E-02</totfact>
</mgrwt>
</event>
<event>
12    1  0.1980523E-007  0.2872875E+04  0.7818608E-02  0.8280994E-01
          1   -1    0    0  501    0  0.00000000000E+00  0.00000000000E+00  0.19483925466E+04  0.19483925466E+04  0.00000000000E+00 0. -1.
         -1   -1    0    0    0  501 -0.00000000000E+00 -0.00000000000E+00 -0.10590022539E+04  0.10590022539E+04  0.00000000000E+00 0.  1.
         23    2    1    2    0    0  0.10663845372E+04 -0.42858206740E+03  0.10236991072E+04  0.15417193826E+04  0.89890059834E+02 0.  0.
        254    2    1    2    0    0 -0.10663845372E+04  0.42858206740E+03 -0.13430881451E+03  0.14656754179E+04  0.89961491946E+03 0.  0.
        -24    2    4    4    0    0 -0.19234305143E+03 -0.14678510012E+03  0.24236912130E+03  0.35069277756E+03  0.75504425200E+02 0.  0.
         24    2    4    4    0    0 -0.87404148580E+03  0.57536716751E+03 -0.37667793581E+03  0.11149826404E+04  0.79398517868E+02 0.  0.
         13    1    3    3    0    0  0.33847283112E+03 -0.10062212623E+03  0.34814995418E+03  0.49588008661E+03  0.00000000000E+00 0. -1.
        -13    1    3    3    0    0  0.72791170611E+03 -0.32795994116E+03  0.67554915305E+03  0.10458392960E+04  0.00000000000E+00 0.  1.
          2    1    6    6  502    0 -0.71844891886E+03  0.43594080589E+03 -0.29435792982E+03  0.89042676627E+03  0.00000000000E+00 0. -1.
          3    1    5    5  503    0 -0.46346161293E+02 -0.73661001602E+02  0.11144804826E+03  0.14140218274E+03  0.00000000000E+00 0. -1.
         -2    1    5    5    0  503 -0.14599689014E+03 -0.73124098513E+02  0.13092107304E+03  0.20929059482E+03  0.00000000000E+00 0.  1.
         -1    1    6    6    0  502 -0.15559256694E+03  0.13942636163E+03 -0.82320005991E+02  0.22455587409E+03  0.00000000000E+00 0.  1.
<mgrwt>
<rscale>  0 0.28728746E+04</rscale>
<asrwt>0</asrwt>
<pdfrwt beam="1">  1        1 0.29975270E+00 0.28728746E+04</pdfrwt>
<pdfrwt beam="2">  1       -1 0.16292342E+00 0.28728746E+04</pdfrwt>
<totfact> 0.77192088E-01</totfact>
</mgrwt>
</event>
<event>
12    1  0.1980523E-007  0.3009097E+04  0.7818608E-02  0.8241138E-01
         -2   -1    0    0    0  501 -0.00000000000E+00  0.00000000000E+00  0.13015717959E+04  0.13015717959E+04  0.00000000000E+00 0.  1.
          2   -1    0    0  501    0  0.00000000000E+00 -0.00000000000E+00 -0.17391794083E+04  0.17391794083E+04  0.00000000000E+00 0. -1.
         23    2    1    2    0    0 -0.28596003532E+03 -0.10521532611E+04  0.63428984837E+03  0.12647358225E+04  0.91833884004E+02 0.  0.
        254    2    1    2    0    0  0.28596003532E+03  0.10521532611E+04 -0.10718974607E+04  0.17760153818E+04  0.90358554836E+03 0.  0.
        -24    2    4    4    0    0  0.45238818522E+03  0.47351410025E+03 -0.15849460069E+03  0.67880142434E+03  0.82341738902E+02 0.  0.
         24    2    4    4    0    0 -0.16642814990E+03  0.57863916087E+03 -0.91340286004E+03  0.10972139574E+04  0.83976639875E+02 0.  0.
         13    1    3    3    0    0 -0.42281880178E+02 -0.21022428567E+03  0.86966136912E+02  0.23139817771E+03  0.00000000000E+00 0.  1.
        -13    1    3    3    0    0 -0.24367815514E+03 -0.84192897546E+03  0.54732371145E+03  0.10333376448E+04  0.00000000000E+00 0. -1.
          2    1    6    6  502    0 -0.10369634278E+03  0.42757602380E+03 -0.60426979360E+03  0.74747319089E+03  0.00000000000E+00 0. -1.
          1    1    5    5  503    0  0.25561140567E+03  0.21244130842E+03 -0.96023612880E+02  0.34596103027E+03  0.00000000000E+00 0. -1.
         -4    1    5    5    0  503  0.19677677955E+03  0.26107279184E+03 -0.62470987811E+02  0.33284039407E+03  0.00000000000E+00 0.  1.
         -1    1    6    6    0  502 -0.62731807129E+02  0.15106313707E+03 -0.30913306643E+03  0.34974076653E+03  0.00000000000E+00 0.  1.
<mgrwt>
<rscale>  0 0.30090975E+04</rscale>
<asrwt>0</asrwt>
<pdfrwt beam="1">  1        2 0.26756606E+00 0.30090975E+04</pdfrwt>
<pdfrwt beam="2">  1       -2 0.20024182E+00 0.30090975E+04</pdfrwt>
<totfact> 0.10573205E+00</totfact>
</mgrwt>
</event>
<event>
12    1  0.1980523E-007  0.1456478E+04  0.7818608E-02  0.8913921E-01
          2   -1    0    0  501    0  0.00000000000E+00  0.00000000000E+00  0.22030263157E+04  0.22030263157E+04  0.00000000000E+00 0. -1.
         -2   -1    0    0    0  501 -0.00000000000E+00 -0.00000000000E+00 -0.24072899954E+03  0.24072899954E+03  0.00000000000E+00 0.  1.
         23    2    1    2    0    0 -0.34935126744E+03 -0.26006517418E+03  0.45977306648E+03  0.63937465174E+03  0.87911715660E+02 0.  0.
        254    2    1    2    0    0  0.34935126744E+03  0.26006517418E+03  0.15025242497E+04  0.18043806635E+04  0.89918310428E+03 0.  0.
        -24    2    4    4    0    0  0.17494350320E+03 -0.59914273300E+02 -0.49913267170E+02  0.20775703982E+03  0.80477971498E+02 0.  0.
         24    2    4    4    0    0  0.17440776424E+03  0.31997944748E+03  0.15524375168E+04  0.15966236237E+04  0.79623092822E+02 0.  0.
         13    1    3    3    0    0 -0.22915332317E+03 -0.13784005601E+03  0.32775357552E+03  0.42300535792E+03  0.00000000000E+00 0. -1.
        -13    1    3    3    0    0 -0.12019794427E+03 -0.12222511816E+03  0.13201949096E+03  0.21636929382E+03  0.00000000000E+00 0.  1.
          4    1    6    6  502    0  0.16160432974E+02  0.83838104171E+02  0.27543491486E+03  0.28836501111E+03  0.00000000000E+00 0. -1.
          1    1    5    5  503    0  0.12286552653E+03 -0.75698305664E+02 -0.51743980566E+02  0.15330887324E+03  0.00000000000E+00 0. -1.
         -4    1    5    5    0  503  0.52077976672E+02  0.15784032363E+02  0.18307133965E+01  0.54448166576E+02  0.00000000000E+00 0.  1.
         -3    1    6    6    0  502  0.15824733126E+03  0.23614134331E+03  0.12770026020E+04  0.13082586126E+04  0.00000000000E+00 0.  1.
<mgrwt>
<rscale>  0 0.14564784E+04</rscale>
<asrwt>0</asrwt>
<pdfrwt beam="1">  1        2 0.33892711E+00 0.14564784E+04</pdfrwt>
<pdfrwt beam="2">  1       -2 0.37035232E-01 0.14564784E+04</pdfrwt>
<totfact> 0.34301795E+01</totfact>
</mgrwt>
</event>
<event>
12    1  0.1980523E-007  0.1508023E+04  0.7818608E-02  0.8879135E-01
          2   -1    0    0  501    0  0.00000000000E+00  0.00000000000E+00  0.63675241383E+03  0.63675241383E+03  0.00000000000E+00 0. -1.
         -2   -1    0    0    0  501 -0.00000000000E+00 -0.00000000000E+00 -0.89286390727E+03  0.89286390727E+03  0.00000000000E+00 0.  1.
         23    2    1    2    0    0  0.38128174919E+03  0.69095745127E+02  0.20240478185E+03  0.44679310267E+03  0.92230074367E+02 0.  0.
        254    2    1    2    0    0 -0.38128174919E+03 -0.69095745127E+02 -0.45851627528E+03  0.10828232184E+04  0.90117642746E+03 0.  0.
        -24    2    4    4    0    0 -0.85428898706E+02 -0.32739136711E+03 -0.56903251552E+03  0.66684740953E+03  0.80026619853E+02 0.  0.
         24    2    4    4    0    0 -0.29585285049E+03  0.25829562199E+03  0.11051624024E+03  0.41597580889E+03  0.81095602527E+02 0.  0.
         11    1    3    3    0    0  0.16319892192E+03  0.67360489366E+02  0.12085026273E+03  0.21395352216E+03  0.00000000000E+00 0.  1.
        -11    1    3    3    0    0  0.21808282727E+03  0.17352557608E+01  0.81554519122E+02  0.23283958051E+03  0.00000000000E+00 0. -1.
          4    1    6    6  502    0 -0.15694540016E+03  0.17354740383E+03  0.35015615850E+02  0.23659385741E+03  0.00000000000E+00 0. -1.
          3    1    5    5  503    0 -0.17775374152E+02 -0.14657018579E+03 -0.18218349097E+03  0.23449863043E+03  0.00000000000E+00 0. -1.
         -4    1    5    5    0  503 -0.67653524555E+02 -0.18082118132E+03 -0.38684902455E+03  0.43234877911E+03  0.00000000000E+00 0.  1.
         -3    1    6    6    0  502 -0.13890745032E+03  0.84748218153E+02  0.75500624389E+02  0.17938195149E+03  0.00000000000E+00 0.  1.
<mgrwt>
<rscale>  0 0.15080229E+04</rscale>
<asrwt>0</asrwt>
<pdfrwt beam="1">  1        2 0.97961911E-01 0.15080229E+04</pdfrwt>
<pdfrwt beam="2">  1       -2 0.13736368E+00 0.15080229E+04</pdfrwt>
<totfact> 0.16795496E+01</totfact>
</mgrwt>
</event>
<event>
12    1  0.1980523E-007  0.1178512E+04  0.7818608E-02  0.9131876E-01
         -1   -1    0    0    0  501 -0.00000000000E+00  0.00000000000E+00  0.25265227726E+03  0.25265227726E+03  0.00000000000E+00 0.  1.
          1   -1    0    0  501    0  0.00000000000E+00 -0.00000000000E+00 -0.13743104308E+04  0.13743104308E+04  0.00000000000E+00 0. -1.
         23    2    1    2    0    0 -0.30839544758E+02  0.85616656838E+02 -0.55002203052E+03  0.56514873494E+03  0.92669137787E+02 0.  0.
        254    2    1    2    0    0  0.30839544758E+02 -0.85616656838E+02 -0.57163612300E+03  0.10618139731E+04  0.89016839245E+03 0.  0.
        -24    2    4    4    0    0  0.16875965669E+03 -0.28208836225E+03  0.92200231183E+02  0.35100292377E+03  0.81538359208E+02 0.  0.
         24    2    4    4    0    0 -0.13792011193E+03  0.19647170541E+03 -0.66383635418E+03  0.71081104933E+03  0.83369985118E+02 0.  0.
         11    1    3    3    0    0  0.80698207416E+01  0.77208920228E+02 -0.46288643352E+03  0.46935081730E+03  0.00000000000E+00 0. -1.
        -11    1    3    3    0    0 -0.38909365499E+02  0.84077366097E+01 -0.87135597007E+02  0.95797917641E+02  0.00000000000E+00 0.  1.
          2    1    6    6  502    0 -0.10510449769E+03  0.18022916892E+03 -0.61725103118E+03  0.65155839666E+03  0.00000000000E+00 0. -1.
          3    1    5    5  503    0  0.98703665210E+02 -0.21865820602E+03  0.90726975031E+02  0.25648627368E+03  0.00000000000E+00 0. -1.
         -4    1    5    5    0  503  0.70055991476E+02 -0.63430156229E+02  0.14732561521E+01  0.94516650092E+02  0.00000000000E+00 0.  1.
         -1    1    6    6    0  502 -0.32815614239E+02  0.16242536490E+02 -0.46585322995E+02  0.59252652667E+02  0.00000000000E+00 0.  1.
<mgrwt>
<rscale>  0 0.11785120E+04</rscale>
<asrwt>0</asrwt>
<pdfrwt beam="1">  1        1 0.21143237E+00 0.11785120E+04</pdfrwt>
<pdfrwt beam="2">  1       -1 0.38869582E-01 0.11785120E+04</pdfrwt>
<totfact> 0.50939881E+01</totfact>
</mgrwt>
</event>
<event>
12    1  0.1980523E-007  0.1553101E+04  0.7818608E-02  0.8849889E-01
          1   -1    0    0  501    0  0.00000000000E+00  0.00000000000E+00  0.15117381322E+04  0.15117381322E+04  0.00000000000E+00 0. -1.
         -1   -1    0    0    0  501 -0.00000000000E+00 -0.00000000000E+00 -0.39889907902E+03  0.39889907902E+03  0.00000000000E+00 0.  1.
         23    2    1    2    0    0 -0.49877127104E+02  0.48344237710E+03  0.55451075619E+03  0.74518101365E+03  0.10774184236E+03 0.  0.
        254    2    1    2    0    0  0.49877127104E+02 -0.48344237710E+03  0.55832829695E+03  0.11654561975E+04  0.90019631271E+03 0.  0.
        -24    2    4    4    0    0 -0.10869553031E+03 -0.57609052553E+03  0.21034434562E+02  0.59208088252E+03  0.80139329224E+02 0.  0.
         24    2    4    4    0    0  0.15857265741E+03  0.92648148434E+02  0.53729386239E+03  0.57337531502E+03  0.79659213019E+02 0.  0.
         13    1    3    3    0    0 -0.52558945677E+02  0.29974329940E+03  0.27182738077E+03  0.40804241598E+03  0.00000000000E+00 0.  1.
        -13    1    3    3    0    0  0.26818185730E+01  0.18369907770E+03  0.28268337542E+03  0.33713859767E+03  0.00000000000E+00 0. -1.
          4    1    6    6  502    0  0.15091461075E+03  0.10457085312E+03  0.51691619263E+03  0.54855504124E+03  0.00000000000E+00 0. -1.
          3    1    5    5  503    0 -0.52766027403E+02 -0.35955298238E+03  0.49009497178E+02  0.36669405722E+03  0.00000000000E+00 0. -1.
         -4    1    5    5    0  503 -0.55929502905E+02 -0.21653754315E+03 -0.27975062616E+02  0.22538682530E+03  0.00000000000E+00 0.  1.
         -3    1    6    6    0  502  0.76580466637E+01 -0.11922704685E+02  0.20377669758E+02  0.24820273779E+02  0.00000000000E+00 0.  1.
<mgrwt>
<rscale>  0 0.15531013E+04</rscale>
<asrwt>0</asrwt>
<pdfrwt beam="1">  1        1 0.23257509E+00 0.15531013E+04</pdfrwt>
<pdfrwt beam="2">  1       -1 0.61369090E-01 0.15531013E+04</pdfrwt>
<totfact> 0.16652579E+01</totfact>
</mgrwt>
</event>
<event>
12    1  0.1980523E-007  0.1991672E+04  0.7818608E-02  0.8610524E-01
          2   -1    0    0  501    0  0.00000000000E+00  0.00000000000E+00  0.58898616452E+03  0.58898616452E+03  0.00000000000E+00 0. -1.
         -2   -1    0    0    0  501 -0.00000000000E+00 -0.00000000000E+00 -0.16837224244E+04  0.16837224244E+04  0.00000000000E+00 0.  1.
         23    2    1    2    0    0 -0.74279289304E+03  0.26608619996E+03 -0.40773723073E+03  0.89292653416E+03  0.92330917443E+02 0.  0.
        254    2    1    2    0    0  0.74279289304E+03 -0.26608619996E+03 -0.68699902910E+03  0.13797820547E+04  0.89960419341E+03 0.  0.
        -24    2    4    4    0    0  0.19310104525E+03  0.31264063661E+03 -0.33564446328E+03  0.50403051856E+03  0.79733158507E+02 0.  0.
         24    2    4    4    0    0  0.54969184779E+03 -0.57872683657E+03 -0.35135456581E+03  0.87575153617E+03  0.80030264838E+02 0.  0.
         11    1    3    3    0    0 -0.32665747090E+03  0.15890759683E+03 -0.16022315252E+03  0.39702416328E+03  0.00000000000E+00 0. -1.
        -11    1    3    3    0    0 -0.41613542214E+03  0.10717860314E+03 -0.24751407821E+03  0.49590237088E+03  0.00000000000E+00 0.  1.
          4    1    6    6  502    0  0.95476456096E+02 -0.14307145980E+03 -0.91723731468E+02  0.19493188347E+03  0.00000000000E+00 0. -1.
          3    1    5    5  503    0  0.12031444017E+03  0.12170745322E+03 -0.16651840275E+03  0.23878158878E+03  0.00000000000E+00 0. -1.
         -2    1    5    5    0  503  0.72786605081E+02  0.19093318339E+03 -0.16912606053E+03  0.26524892978E+03  0.00000000000E+00 0.  1.
         -3    1    6    6    0  502  0.45421539169E+03 -0.43565537677E+03 -0.25963083435E+03  0.68081965270E+03  0.00000000000E+00 0.  1.
<mgrwt>
<rscale>  0 0.19916719E+04</rscale>
<asrwt>0</asrwt>
<pdfrwt beam="1">  1        2 0.90613257E-01 0.19916719E+04</pdfrwt>
<pdfrwt beam="2">  1       -2 0.25903422E+00 0.19916719E+04</pdfrwt>
<totfact> 0.26668861E+00</totfact>
</mgrwt>
</event>
<event>
12    1  0.1980523E-007  0.1753928E+04  0.7818608E-02  0.8731191E-01
         -2   -1    0    0    0  501 -0.00000000000E+00  0.00000000000E+00  0.26596256408E+03  0.26596256408E+03  0.00000000000E+00 0.  1.
          2   -1    0    0  501    0  0.00000000000E+00 -0.00000000000E+00 -0.28916304936E+04  0.28916304936E+04  0.00000000000E+00 0. -1.
         23    2    1    2    0    0  0.54616084015E+03 -0.98149137062E+02 -0.39374628898E+03  0.68656617780E+03  0.91717283000E+02 0.  0.
        254    2    1    2    0    0 -0.54616084015E+03  0.98149137062E+02 -0.22319216406E+04  0.24710268799E+04  0.90364523744E+03 0.  0.
        -24    2    4    4    0    0 -0.27584692501E+03  0.24134598455E+03 -0.20899620319E+04  0.21233444244E+04  0.79440792817E+02 0.  0.
         24    2    4    4    0    0 -0.27031391513E+03 -0.14319684749E+03 -0.14195960864E+03  0.34768245547E+03  0.84590835862E+02 0.  0.
         13    1    3    3    0    0  0.27147370437E+03 -0.91868423116E+02 -0.22229309524E+03  0.36270097811E+03  0.00000000000E+00 0. -1.
        -13    1    3    3    0    0  0.27468713577E+03 -0.62807139464E+01 -0.17145319374E+03  0.32386519969E+03  0.00000000000E+00 0.  1.
          4    1    6    6  502    0 -0.18235483820E+03 -0.50236234689E+02 -0.91477027355E+02  0.21010714606E+03  0.00000000000E+00 0. -1.
          3    1    5    5  503    0 -0.20342437409E+02  0.54050292637E+02 -0.36301845877E+03  0.36758352833E+03  0.00000000000E+00 0. -1.
         -4    1    5    5    0  503 -0.25550448760E+03  0.18729569191E+03 -0.17269435732E+04  0.17557608961E+04  0.00000000000E+00 0.  1.
         -3    1    6    6    0  502 -0.87959076930E+02 -0.92960612797E+02 -0.50482581284E+02  0.13757530941E+03  0.00000000000E+00 0.  1.
<mgrwt>
<rscale>  0 0.17539275E+04</rscale>
<asrwt>0</asrwt>
<pdfrwt beam="1">  1        2 0.44486624E+00 0.17539275E+04</pdfrwt>
<pdfrwt beam="2">  1       -2 0.40917317E-01 0.17539275E+04</pdfrwt>
<totfact> 0.10935122E+01</totfact>
</mgrwt>
</event>
<event>
12    1  0.1980523E-007  0.1670283E+04  0.7818608E-02  0.8778497E-01
          2   -1    0    0  501    0  0.00000000000E+00  0.00000000000E+00  0.13591127916E+04  0.13591127916E+04  0.00000000000E+00 0. -1.
         -2   -1    0    0    0  501 -0.00000000000E+00 -0.00000000000E+00 -0.51317376172E+03  0.51317376172E+03  0.00000000000E+00 0.  1.
         23    2    1    2    0    0 -0.51299806547E+03  0.27668236853E+03  0.19411222377E+03  0.62144867059E+03  0.93801633931E+02 0.  0.
        254    2    1    2    0    0  0.51299806547E+03 -0.27668236853E+03  0.65182680612E+03  0.12508378827E+04  0.89442555613E+03 0.  0.
        -24    2    4    4    0    0  0.14398691520E+03 -0.37928959669E+03 -0.79746247900E+02  0.42113373242E+03  0.80008290967E+02 0.  0.
         24    2    4    4    0    0  0.36901115027E+03  0.10260722816E+03  0.73157305402E+03  0.82970415030E+03  0.80699264996E+02 0.  0.
         13    1    3    3    0    0 -0.42776992627E+03  0.21931533209E+03  0.19486661071E+03  0.51870928339E+03  0.00000000000E+00 0. -1.
        -13    1    3    3    0    0 -0.85228139198E+02  0.57367036440E+02 -0.75438693778E+00  0.10273938719E+03  0.00000000000E+00 0.  1.
          4    1    6    6  502    0  0.14662995161E+03  0.67239211990E+02  0.37162862512E+03  0.40512873183E+03  0.00000000000E+00 0. -1.
          3    1    5    5  503    0  0.13898783630E+03 -0.26674031689E+03 -0.61583659633E+02  0.30701883074E+03  0.00000000000E+00 0. -1.
         -4    1    5    5    0  503  0.49990788941E+01 -0.11254927980E+03 -0.18162588268E+02  0.11411490168E+03  0.00000000000E+00 0.  1.
         -3    1    6    6    0  502  0.22238119866E+03  0.35368016174E+02  0.35994442889E+03  0.42457541848E+03  0.00000000000E+00 0.  1.
<mgrwt>
<rscale>  0 0.16702826E+04</rscale>
<asrwt>0</asrwt>
<pdfrwt beam="1">  1        2 0.20909427E+00 0.16702826E+04</pdfrwt>
<pdfrwt beam="2">  1       -2 0.78949810E-01 0.16702826E+04</pdfrwt>
<totfact> 0.20747098E+01</totfact>
</mgrwt>
</event>
<event>
12    1  0.1980523E-007  0.2540725E+04  0.7818608E-02  0.8388619E-01
          1   -1    0    0  501    0  0.00000000000E+00  0.00000000000E+00  0.15535422154E+04  0.15535422154E+04  0.00000000000E+00 0. -1.
         -1   -1    0    0    0  501 -0.00000000000E+00 -0.00000000000E+00 -0.10388006635E+04  0.10388006635E+04  0.00000000000E+00 0.  1.
         23    2    1    2    0    0  0.10680894076E+04 -0.26516539721E+03  0.91823552405E+02  0.11082602089E+04  0.93174327895E+02 0.  0.
        254    2    1    2    0    0 -0.10680894076E+04  0.26516539721E+03  0.42291799952E+03  0.14840826699E+04  0.90139562134E+03 0.  0.
        -24    2    4    4    0    0 -0.73801077914E+03  0.58280136388E+03  0.18545273550E+03  0.96175855230E+03  0.79179896157E+02 0.  0.
         24    2    4    4    0    0 -0.33007862849E+03 -0.31763596667E+03  0.23746526403E+03  0.52232411759E+03  0.81167874727E+02 0.  0.
         11    1    3    3    0    0  0.73407356928E+03 -0.14409102112E+03  0.85181322695E+02  0.75291572252E+03  0.00000000000E+00 0. -1.
        -11    1    3    3    0    0  0.33401583835E+03 -0.12107437609E+03  0.66422297104E+01  0.35534448642E+03  0.00000000000E+00 0.  1.
          2    1    6    6  502    0 -0.23288041273E+02 -0.23696542567E+02  0.44873878265E+02  0.55834791542E+02  0.00000000000E+00 0. -1.
          3    1    5    5  503    0 -0.99458804625E+00  0.85473517184E+01  0.56426996179E+01  0.10290115925E+02  0.00000000000E+00 0. -1.
         -4    1    5    5    0  503 -0.73701619109E+03  0.57425401216E+03  0.17981003588E+03  0.95146843638E+03  0.00000000000E+00 0.  1.
         -1    1    6    6    0  502 -0.30679058721E+03 -0.29393942410E+03  0.19259138576E+03  0.46648932605E+03  0.00000000000E+00 0.  1.
<mgrwt>
<rscale>  0 0.25407248E+04</rscale>
<asrwt>0</asrwt>
<pdfrwt beam="1">  1        1 0.23900650E+00 0.25407248E+04</pdfrwt>
<pdfrwt beam="2">  1       -1 0.15981549E+00 0.25407248E+04</pdfrwt>
<totfact> 0.15591004E+00</totfact>
</mgrwt>
</event>
<event>
12    1  0.1980523E-007  0.1649417E+04  0.7818608E-02  0.8790752E-01
          2   -1    0    0  501    0  0.00000000000E+00  0.00000000000E+00  0.24502486095E+04  0.24502486095E+04  0.00000000000E+00 0. -1.
         -2   -1    0    0    0  501 -0.00000000000E+00 -0.00000000000E+00 -0.27758162058E+03  0.27758162058E+03  0.00000000000E+00 0.  1.
         23    2    1    2    0    0 -0.42319314966E+03  0.33615360197E+03  0.11039016097E+04  0.12324856965E+04  0.91271803781E+02 0.  0.
        254    2    1    2    0    0  0.42319314966E+03 -0.33615360197E+03  0.10687653792E+04  0.14953445336E+04  0.89537933425E+03 0.  0.
        -24    2    4    4    0    0  0.34698043558E+03  0.25683503094E+03  0.51667895503E+03  0.67792261464E+03  0.79134525120E+02 0.  0.
         24    2    4    4    0    0  0.76212714082E+02 -0.59298863291E+03  0.55208642419E+03  0.81742191893E+03  0.77040750412E+02 0.  0.
         13    1    3    3    0    0 -0.19080216041E+03  0.16415579056E+03  0.41482508530E+03  0.48521380791E+03  0.00000000000E+00 0.  1.
        -13    1    3    3    0    0 -0.23239098926E+03  0.17199781142E+03  0.68907652440E+03  0.74727188860E+03  0.00000000000E+00 0. -1.
          2    1    6    6  502    0  0.25359783398E+02 -0.45094300264E+03  0.40292452680E+03  0.60526100531E+03  0.00000000000E+00 0. -1.
          1    1    5    5  503    0  0.25910919954E+03  0.22417780109E+03  0.37414274899E+03  0.50732244225E+03  0.00000000000E+00 0. -1.
         -2    1    5    5    0  503  0.87871236046E+02  0.32657229847E+02  0.14253620604E+03  0.17060017239E+03  0.00000000000E+00 0.  1.
         -1    1    6    6    0  502  0.50852930684E+02 -0.14204563027E+03  0.14916189738E+03  0.21216091362E+03  0.00000000000E+00 0.  1.
<mgrwt>
<rscale>  0 0.16494168E+04</rscale>
<asrwt>0</asrwt>
<pdfrwt beam="1">  1        2 0.37696131E+00 0.16494168E+04</pdfrwt>
<pdfrwt beam="2">  1       -2 0.42704866E-01 0.16494168E+04</pdfrwt>
<totfact> 0.18501326E+01</totfact>
</mgrwt>
</event>
<event>
12    1  0.1980523E-007  0.1629108E+04  0.7818608E-02  0.8802862E-01
          2   -1    0    0  501    0  0.00000000000E+00  0.00000000000E+00  0.18461625155E+04  0.18461625155E+04  0.00000000000E+00 0. -1.
         -2   -1    0    0    0  501 -0.00000000000E+00 -0.00000000000E+00 -0.35939336840E+03  0.35939336840E+03  0.00000000000E+00 0.  1.
         23    2    1    2    0    0 -0.39170760049E+03  0.31711999121E+03  0.85392389595E+03  0.99556906037E+03  0.89284941485E+02 0.  0.
        254    2    1    2    0    0  0.39170760049E+03 -0.31711999121E+03  0.63284525114E+03  0.12099868235E+04  0.89976389574E+03 0.  0.
        -24    2    4    4    0    0 -0.23522611064E+03 -0.28188716598E+03  0.11664390891E+03  0.39301657652E+03  0.77875095255E+02 0.  0.
         24    2    4    4    0    0  0.62693371113E+03 -0.35232825232E+02  0.51620134223E+03  0.81697024700E+03  0.81788315989E+02 0.  0.
         13    1    3    3    0    0 -0.22675688283E+03  0.15940154097E+03  0.38896353902E+03  0.47761927292E+03  0.00000000000E+00 0. -1.
        -13    1    3    3    0    0 -0.16495071766E+03  0.15771845024E+03  0.46496035693E+03  0.51794978745E+03  0.00000000000E+00 0.  1.
          2    1    6    6  502    0  0.40636270544E+03  0.16394760388E+02  0.33074047082E+03  0.52420291451E+03  0.00000000000E+00 0. -1.
          1    1    5    5  503    0 -0.22908637492E+03 -0.24848349481E+03  0.89723649209E+02  0.34967834877E+03  0.00000000000E+00 0. -1.
         -2    1    5    5    0  503 -0.61397357173E+01 -0.33403671171E+02  0.26920259701E+02  0.43338227753E+02  0.00000000000E+00 0.  1.
         -1    1    6    6    0  502  0.22057100569E+03 -0.51627585620E+02  0.18546087141E+03  0.29276733249E+03  0.00000000000E+00 0.  1.
<mgrwt>
<rscale>  0 0.16291084E+04</rscale>
<asrwt>0</asrwt>
<pdfrwt beam="1">  1        2 0.28402500E+00 0.16291084E+04</pdfrwt>
<pdfrwt beam="2">  1       -2 0.55291288E-01 0.16291084E+04</pdfrwt>
<totfact> 0.23931553E+01</totfact>
</mgrwt>
</event>
<event>
12    1  0.1980523E-007  0.1312189E+04  0.7818608E-02  0.9019954E-01
         -2   -1    0    0    0  501 -0.00000000000E+00  0.00000000000E+00  0.51337616831E+03  0.51337616831E+03  0.00000000000E+00 0.  1.
          2   -1    0    0  501    0  0.00000000000E+00 -0.00000000000E+00 -0.83848881483E+03  0.83848881483E+03  0.00000000000E+00 0. -1.
         23    2    1    2    0    0 -0.11745724771E+03 -0.31082248269E+03 -0.14880602196E+03  0.37766750465E+03  0.10041260435E+03 0.  0.
        254    2    1    2    0    0  0.11745724771E+03  0.31082248269E+03 -0.17630662456E+03  0.97419747849E+03  0.89864891946E+03 0.  0.
        -24    2    4    4    0    0  0.40066407867E+03  0.46448871507E+03 -0.17284685793E+03  0.64233559407E+03  0.80234087113E+02 0.  0.
         24    2    4    4    0    0 -0.28320683096E+03 -0.15366623238E+03 -0.34597666276E+01  0.33186188442E+03  0.79378336280E+02 0.  0.
         13    1    3    3    0    0 -0.93907499912E+02 -0.12330122804E+03 -0.92368235856E+02  0.18042644588E+03  0.00000000000E+00 0. -1.
        -13    1    3    3    0    0 -0.23549747803E+02 -0.18752125465E+03 -0.56437786099E+02  0.19724105877E+03  0.00000000000E+00 0.  1.
          2    1    6    6  502    0 -0.21066107818E+03 -0.15056101697E+03 -0.85167827890E+01  0.25907382207E+03  0.00000000000E+00 0. -1.
          1    1    5    5  503    0  0.32837735182E+03  0.40650629759E+03 -0.12195059463E+03  0.53661066212E+03  0.00000000000E+00 0. -1.
         -2    1    5    5    0  503  0.72286726854E+02  0.57982417480E+02 -0.50896263305E+02  0.10572493194E+03  0.00000000000E+00 0.  1.
         -1    1    6    6    0  502 -0.72545752775E+02 -0.31052154111E+01  0.50570161614E+01  0.72788062351E+02  0.00000000000E+00 0.  1.
<mgrwt>
<rscale>  0 0.13121893E+04</rscale>
<asrwt>0</asrwt>
<pdfrwt beam="1">  1        2 0.12899828E+00 0.13121893E+04</pdfrwt>
<pdfrwt beam="2">  1       -2 0.78980950E-01 0.13121893E+04</pdfrwt>
<totfact> 0.45070561E+01</totfact>
</mgrwt>
</event>
<event>
12    1  0.1980523E-007  0.1571263E+04  0.7818608E-02  0.8838399E-01
         -2   -1    0    0    0  501 -0.00000000000E+00  0.00000000000E+00  0.69067450284E+03  0.69067450284E+03  0.00000000000E+00 0.  1.
          2   -1    0    0  501    0  0.00000000000E+00 -0.00000000000E+00 -0.89364411672E+03  0.89364411672E+03  0.00000000000E+00 0. -1.
         23    2    1    2    0    0 -0.20464009212E+03 -0.37117147907E+03  0.23923467345E+03  0.49569776303E+03  0.94006431238E+02 0.  0.
        254    2    1    2    0    0  0.20464009212E+03  0.37117147907E+03 -0.44220428734E+03  0.10886208565E+04  0.89994716698E+03 0.  0.
        -24    2    4    4    0    0  0.11949420709E+03 -0.26935694329E+03 -0.72617221035E+01  0.30563459331E+03  0.80794452739E+02 0.  0.
         24    2    4    4    0    0  0.85145885031E+02  0.64052842236E+03 -0.43494256524E+03  0.78298626322E+03  0.79787040016E+02 0.  0.
         13    1    3    3    0    0 -0.11462334441E+03 -0.24904632314E+03  0.10651065960E+03  0.29412089821E+03  0.00000000000E+00 0. -1.
        -13    1    3    3    0    0 -0.90016747703E+02 -0.12212515592E+03  0.13272401385E+03  0.20157686482E+03  0.00000000000E+00 0.  1.
          4    1    6    6  502    0  0.48667035415E+02  0.41287949949E+03 -0.32426583573E+03  0.52724405512E+03  0.00000000000E+00 0. -1.
          3    1    5    5  503    0  0.42854121911E+02 -0.18869510895E+03  0.59211409430E+01  0.19359075344E+03  0.00000000000E+00 0. -1.
         -4    1    5    5    0  503  0.76640085175E+02 -0.80661834336E+02 -0.13182863047E+02  0.11204383987E+03  0.00000000000E+00 0.  1.
         -3    1    6    6    0  502  0.36478849616E+02  0.22764892287E+03 -0.11067672951E+03  0.25574220811E+03  0.00000000000E+00 0.  1.
<mgrwt>
<rscale>  0 0.15712634E+04</rscale>
<asrwt>0</asrwt>
<pdfrwt beam="1">  1        2 0.13748371E+00 0.15712634E+04</pdfrwt>
<pdfrwt beam="2">  1       -2 0.10625762E+00 0.15712634E+04</pdfrwt>
<totfact> 0.20333086E+01</totfact>
</mgrwt>
</event>
<event>
12    1  0.1980523E-007  0.1334437E+04  0.7818608E-02  0.9002693E-01
         -2   -1    0    0    0  501 -0.00000000000E+00  0.00000000000E+00  0.24725853189E+03  0.24725853189E+03  0.00000000000E+00 0.  1.
          2   -1    0    0  501    0  0.00000000000E+00 -0.00000000000E+00 -0.18004657422E+04  0.18004657422E+04  0.00000000000E+00 0. -1.
         23    2    1    2    0    0  0.25749915373E+03 -0.24480004650E+03 -0.41791955957E+03  0.55640556560E+03  0.93260485858E+02 0.  0.
        254    2    1    2    0    0 -0.25749915373E+03  0.24480004650E+03 -0.11352876508E+04  0.14913187085E+04  0.89940011310E+03 0.  0.
        -24    2    4    4    0    0 -0.19252581232E+03 -0.14015290118E+02  0.95254905602E+02  0.22938035335E+03  0.79241609610E+02 0.  0.
         24    2    4    4    0    0 -0.64973341411E+02  0.25881533662E+03 -0.12305425564E+04  0.12619383552E+04  0.83943526397E+02 0.  0.
         13    1    3    3    0    0  0.25023059438E+01  0.11920873853E+01 -0.33487588186E+02  0.33602100676E+02  0.00000000000E+00 0. -1.
        -13    1    3    3    0    0  0.25499684779E+03 -0.24599213389E+03 -0.38443197138E+03  0.52280346492E+03  0.00000000000E+00 0.  1.
          2    1    6    6  502    0  0.55285503107E+01  0.67564894535E+02 -0.19289629294E+03  0.20446163375E+03  0.00000000000E+00 0. -1.
          1    1    5    5  503    0 -0.79842518619E+02 -0.45192510033E+02  0.42651704167E+02  0.10117489121E+03  0.00000000000E+00 0. -1.
         -2    1    5    5    0  503 -0.11268329370E+03  0.31177219916E+02  0.52603201435E+02  0.12820546214E+03  0.00000000000E+00 0.  1.
         -1    1    6    6    0  502 -0.70501891722E+02  0.19125044209E+03 -0.10376462635E+04  0.10574767214E+04  0.00000000000E+00 0.  1.
<mgrwt>
<rscale>  0 0.13344370E+04</rscale>
<asrwt>0</asrwt>
<pdfrwt beam="1">  1        2 0.27699474E+00 0.13344370E+04</pdfrwt>
<pdfrwt beam="2">  1       -2 0.38039773E-01 0.13344370E+04</pdfrwt>
<totfact> 0.55015334E+01</totfact>
</mgrwt>
</event>
<event>
12    1  0.1980523E-007  0.1118399E+04  0.7818608E-02  0.9187442E-01
         -1   -1    0    0    0  501 -0.00000000000E+00  0.00000000000E+00  0.57313902618E+03  0.57313902618E+03  0.00000000000E+00 0.  1.
          1   -1    0    0  501    0  0.00000000000E+00 -0.00000000000E+00 -0.54559919967E+03  0.54559919967E+03  0.00000000000E+00 0. -1.
         23    2    1    2    0    0 -0.39503445179E+02 -0.15910490305E+03  0.80529712680E+02  0.20413060629E+03  0.91155786671E+02 0.  0.
        254    2    1    2    0    0  0.39503445179E+02  0.15910490305E+03 -0.52989886162E+02  0.91460761956E+03  0.89823397696E+03 0.  0.
        -24    2    4    4    0    0 -0.35070471554E+03  0.42583795928E+02  0.21457329610E+03  0.42090272989E+03  0.79436965283E+02 0.  0.
         24    2    4    4    0    0  0.39020816072E+03  0.11652110712E+03 -0.26756318226E+03  0.49370488967E+03  0.79466247430E+02 0.  0.
         13    1    3    3    0    0 -0.41619794072E+02 -0.21678462993E+02  0.37620961940E+02  0.60145654819E+02  0.00000000000E+00 0.  1.
        -13    1    3    3    0    0  0.21163488922E+01 -0.13742644006E+03  0.42908750740E+02  0.14398495147E+03  0.00000000000E+00 0. -1.
          4    1    6    6  502    0  0.30649702188E+03  0.79334338199E+02 -0.16798298712E+03  0.35840290958E+03  0.00000000000E+00 0. -1.
          1    1    5    5  503    0 -0.16304125192E+03  0.12821144237E+02  0.54295058890E+02  0.17232174845E+03  0.00000000000E+00 0. -1.
         -2    1    5    5    0  503 -0.18766346362E+03  0.29762651691E+02  0.16027823721E+03  0.24858098144E+03  0.00000000000E+00 0.  1.
         -3    1    6    6    0  502  0.83711138844E+02  0.37186768924E+02 -0.99580195144E+02  0.13530198008E+03  0.00000000000E+00 0.  1.
<mgrwt>
<rscale>  0 0.11183992E+04</rscale>
<asrwt>0</asrwt>
<pdfrwt beam="1">  1        1 0.83938339E-01 0.11183992E+04</pdfrwt>
<pdfrwt beam="2">  1       -1 0.88175235E-01 0.11183992E+04</pdfrwt>
<totfact> 0.49375470E+01</totfact>
</mgrwt>
</event>
<event>
12    1  0.1980523E-007  0.3168997E+04  0.7818608E-02  0.8197053E-01
          1   -1    0    0  501    0  0.00000000000E+00  0.00000000000E+00  0.23239062787E+04  0.23239062787E+04  0.00000000000E+00 0. -1.
         -1   -1    0    0    0  501 -0.00000000000E+00 -0.00000000000E+00 -0.10803515709E+04  0.10803515709E+04  0.00000000000E+00 0.  1.
         23    2    1    2    0    0  0.99652571783E+03  0.27195468734E+03  0.16745870945E+04  0.19694150778E+04  0.85620986649E+02 0.  0.
        254    2    1    2    0    0 -0.99652571783E+03 -0.27195468734E+03 -0.43103238660E+03  0.14348427718E+04  0.89775386559E+03 0.  0.
        -24    2    4    4    0    0 -0.11521319047E+04 -0.17902395975E+03 -0.39434667164E+03  0.12334172051E+04  0.79694418626E+02 0.  0.
         24    2    4    4    0    0  0.15560618686E+03 -0.92930727586E+02 -0.36685714964E+02  0.20142556672E+03  0.79856194046E+02 0.  0.
         13    1    3    3    0    0  0.41441542096E+03  0.95998144006E+02  0.76378664548E+03  0.87425729885E+03  0.00000000000E+00 0.  1.
        -13    1    3    3    0    0  0.58211029687E+03  0.17595654334E+03  0.91080044898E+03  0.10951577789E+04  0.00000000000E+00 0. -1.
          2    1    6    6  502    0  0.44936491475E+02 -0.20488755948E+02  0.25141256786E+02  0.55418049218E+02  0.00000000000E+00 0. -1.
          3    1    5    5  503    0 -0.49278058747E+03 -0.53218672702E+02 -0.20128957515E+03  0.53496021120E+03  0.00000000000E+00 0. -1.
         -4    1    5    5    0  503 -0.65935131723E+03 -0.12580528705E+03 -0.19305709648E+03  0.69845699387E+03  0.00000000000E+00 0.  1.
         -1    1    6    6    0  502  0.11066969538E+03 -0.72441971638E+02 -0.61826971750E+02  0.14600751750E+03  0.00000000000E+00 0.  1.
<mgrwt>
<rscale>  0 0.31689972E+04</rscale>
<asrwt>0</asrwt>
<pdfrwt beam="1">  1        1 0.35752404E+00 0.31689972E+04</pdfrwt>
<pdfrwt beam="2">  1       -1 0.16620793E+00 0.31689972E+04</pdfrwt>
<totfact> 0.39455707E-01</totfact>
</mgrwt>
</event>
<event>
12    1  0.1980523E-007  0.2374878E+04  0.7818608E-02  0.8448969E-01
          2   -1    0    0  501    0  0.00000000000E+00  0.00000000000E+00  0.30380813984E+04  0.30380813984E+04  0.00000000000E+00 0. -1.
         -2   -1    0    0    0  501 -0.00000000000E+00 -0.00000000000E+00 -0.46411225626E+03  0.46411225626E+03  0.00000000000E+00 0.  1.
         23    2    1    2    0    0 -0.15211291483E+03 -0.91039218647E+03  0.48071155396E+03  0.10447362488E+04  0.91858365901E+02 0.  0.
        254    2    1    2    0    0  0.15211291483E+03  0.91039218647E+03  0.20932575882E+04  0.24574574058E+04  0.89745044382E+03 0.  0.
        -24    2    4    4    0    0  0.48189243488E+02  0.85914958015E+03  0.21408066840E+04  0.23089197631E+04  0.87160829287E+02 0.  0.
         24    2    4    4    0    0  0.10392367135E+03  0.51242606317E+02 -0.47549095823E+02  0.14853764271E+03  0.79853494725E+02 0.  0.
         13    1    3    3    0    0 -0.11963961221E+03 -0.61811881193E+03  0.37159634708E+03  0.73107342151E+03  0.00000000000E+00 0. -1.
        -13    1    3    3    0    0 -0.32473302626E+02 -0.29227337454E+03  0.10911520688E+03  0.31366282729E+03  0.00000000000E+00 0.  1.
          4    1    6    6  502    0  0.82633757844E+02  0.68380934097E+02 -0.18841407451E+02  0.10890036142E+03  0.00000000000E+00 0. -1.
          3    1    5    5  503    0  0.59340174264E+02  0.83196766225E+03  0.20890631624E+04  0.22494168897E+04  0.00000000000E+00 0. -1.
         -4    1    5    5    0  503 -0.11150930776E+02  0.27181917908E+02  0.51743521603E+02  0.59502873428E+02  0.00000000000E+00 0.  1.
         -3    1    6    6    0  502  0.21289913502E+02 -0.17138327780E+02 -0.28707688372E+02  0.39637281285E+02  0.00000000000E+00 0.  1.
<mgrwt>
<rscale>  0 0.23748775E+04</rscale>
<asrwt>0</asrwt>
<pdfrwt beam="1">  1        2 0.46739713E+00 0.23748775E+04</pdfrwt>
<pdfrwt beam="2">  1       -2 0.71401887E-01 0.23748775E+04</pdfrwt>
<totfact> 0.26441655E+00</totfact>
</mgrwt>
</event>
<event>
12    1  0.1980523E-007  0.1450830E+04  0.7818608E-02  0.8917825E-01
          2   -1    0    0  501    0  0.00000000000E+00  0.00000000000E+00  0.11038249032E+04  0.11038249032E+04  0.00000000000E+00 0. -1.
         -2   -1    0    0    0  501 -0.00000000000E+00 -0.00000000000E+00 -0.47673067538E+03  0.47673067538E+03  0.00000000000E+00 0.  1.
         23    2    1    2    0    0  0.17432646605E+03 -0.35369231710E+03 -0.16840493091E+02  0.40477219593E+03  0.89827370283E+02 0.  0.
        254    2    1    2    0    0 -0.17432646605E+03  0.35369231710E+03  0.64393472094E+03  0.11757833827E+04  0.90129166546E+03 0.  0.
        -24    2    4    4    0    0  0.34852863664E+03  0.31911996594E+02  0.29860942570E+03  0.46695970179E+03  0.79957413000E+02 0.  0.
         24    2    4    4    0    0 -0.52285510269E+03  0.32178032050E+03  0.34532529525E+03  0.70882368090E+03  0.79129122312E+02 0.  0.
         13    1    3    3    0    0  0.58405668307E+02 -0.42195094010E+02 -0.26334953588E+01  0.72101202118E+02  0.00000000000E+00 0.  1.
        -13    1    3    3    0    0  0.11592079774E+03 -0.31149722309E+03 -0.14206997732E+02  0.33267099381E+03  0.00000000000E+00 0. -1.
          2    1    6    6  502    0 -0.26356341018E+03  0.11720823465E+03  0.17184154566E+03  0.33575729072E+03  0.00000000000E+00 0. -1.
          3    1    5    5  503    0  0.27636363131E+03  0.50608099320E+02  0.20771312595E+03  0.34940346180E+03  0.00000000000E+00 0. -1.
         -4    1    5    5    0  503  0.72165005328E+02 -0.18696102727E+02  0.90896299751E+02  0.11755623999E+03  0.00000000000E+00 0.  1.
         -1    1    6    6    0  502 -0.25929169251E+03  0.20457208585E+03  0.17348374958E+03  0.37306639018E+03  0.00000000000E+00 0.  1.
<mgrwt>
<rscale>  0 0.14508304E+04</rscale>
<asrwt>0</asrwt>
<pdfrwt beam="1">  1        2 0.16981922E+00 0.14508304E+04</pdfrwt>
<pdfrwt beam="2">  1       -2 0.73343181E-01 0.14508304E+04</pdfrwt>
<totfact> 0.35259124E+01</totfact>
</mgrwt>
</event>
<event>
12    1  0.1980523E-007  0.4110339E+04  0.7818608E-02  0.7982650E-01
          2   -1    0    0  501    0  0.00000000000E+00  0.00000000000E+00  0.15962309101E+04  0.15962309101E+04  0.00000000000E+00 0. -1.
         -2   -1    0    0    0  501 -0.00000000000E+00 -0.00000000000E+00 -0.26460589145E+04  0.26460589145E+04  0.00000000000E+00 0.  1.
         23    2    1    2    0    0  0.15760819778E+04  0.38064109156E+03 -0.16283337742E+04  0.22995621837E+04  0.87139629713E+02 0.  0.
        254    2    1    2    0    0 -0.15760819778E+04 -0.38064109156E+03  0.57850576978E+03  0.19427276409E+04  0.90033311594E+03 0.  0.
        -24    2    4    4    0    0 -0.13183736537E+04 -0.58276264356E+02  0.13151830645E+03  0.13290180555E+04  0.86525793386E+02 0.  0.
         24    2    4    4    0    0 -0.25770832407E+03 -0.32236482720E+03  0.44698746334E+03  0.61370958545E+03  0.80678378581E+02 0.  0.
         11    1    3    3    0    0  0.86990052327E+03  0.23350083581E+03 -0.85182429843E+03  0.12396992361E+04  0.00000000000E+00 0. -1.
        -11    1    3    3    0    0  0.70618145455E+03  0.14714025575E+03 -0.77650947579E+03  0.10598629476E+04  0.00000000000E+00 0.  1.
          4    1    6    6  502    0 -0.24599998796E+03 -0.26383306306E+03  0.38828146840E+03  0.52998714885E+03  0.00000000000E+00 0. -1.
          3    1    5    5  503    0 -0.12786357714E+04 -0.71082831095E+02  0.13066340049E+03  0.12872587653E+04  0.00000000000E+00 0. -1.
         -4    1    5    5    0  503 -0.39737882388E+02  0.12806566739E+02  0.85490595717E+00  0.41759290134E+02  0.00000000000E+00 0.  1.
         -3    1    6    6    0  502 -0.11708336112E+02 -0.58531764138E+02  0.58705994943E+02  0.83722436598E+02  0.00000000000E+00 0.  1.
<mgrwt>
<rscale>  0 0.41103387E+04</rscale>
<asrwt>0</asrwt>
<pdfrwt beam="1">  1        2 0.24557399E+00 0.41103387E+04</pdfrwt>
<pdfrwt beam="2">  1       -2 0.40708598E+00 0.41103387E+04</pdfrwt>
<totfact> 0.58419655E-02</totfact>
</mgrwt>
</event>
<event>
12    1  0.1980523E-007  0.3022857E+04  0.7818608E-02  0.8237234E-01
         -1   -1    0    0    0  501 -0.00000000000E+00  0.00000000000E+00  0.10524890894E+04  0.10524890894E+04  0.00000000000E+00 0.  1.
          1   -1    0    0  501    0  0.00000000000E+00 -0.00000000000E+00 -0.21704884809E+04  0.21704884809E+04  0.00000000000E+00 0. -1.
         23    2    1    2    0    0 -0.32926208707E+03 -0.10296825668E+04 -0.14174931696E+04  0.17849315962E+04  0.89633736562E+02 0.  0.
        254    2    1    2    0    0  0.32926208707E+03  0.10296825668E+04  0.29949377810E+03  0.14380459742E+04  0.89978885873E+03 0.  0.
        -24    2    4    4    0    0  0.26512884489E+03  0.95204114123E+03  0.56654278741E+03  0.11419769300E+04  0.80404848067E+02 0.  0.
         24    2    4    4    0    0  0.64133242181E+02  0.77641425584E+02 -0.26704900931E+03  0.29606904421E+03  0.78742884400E+02 0.  0.
         11    1    3    3    0    0 -0.19293635122E+03 -0.46415374033E+03 -0.68038076400E+03  0.84592027656E+03  0.00000000000E+00 0. -1.
        -11    1    3    3    0    0 -0.13632573585E+03 -0.56552882648E+03 -0.73711240563E+03  0.93901131962E+03  0.00000000000E+00 0.  1.
          4    1    6    6  502    0  0.20776937865E+02  0.52659191859E+02 -0.57738630239E+02  0.80860503685E+02  0.00000000000E+00 0. -1.
          1    1    5    5  503    0  0.18741253144E+02  0.18118955874E+03  0.11064511040E+03  0.21312726532E+03  0.00000000000E+00 0. -1.
         -2    1    5    5    0  503  0.24638759174E+03  0.77085158249E+03  0.45589767701E+03  0.92884966463E+03  0.00000000000E+00 0.  1.
         -3    1    6    6    0  502  0.43356304316E+02  0.24982233725E+02 -0.20931037908E+03  0.21520854052E+03  0.00000000000E+00 0.  1.
<mgrwt>
<rscale>  0 0.30228566E+04</rscale>
<asrwt>0</asrwt>
<pdfrwt beam="1">  1        1 0.33392130E+00 0.30228566E+04</pdfrwt>
<pdfrwt beam="2">  1       -1 0.16192140E+00 0.30228566E+04</pdfrwt>
<totfact> 0.54772289E-01</totfact>
</mgrwt>
</event>
<event>
12    1  0.1980523E-007  0.2241951E+04  0.7818608E-02  0.8501167E-01
         -1   -1    0    0    0  501 -0.00000000000E+00  0.00000000000E+00  0.90485797182E+03  0.90485797182E+03  0.00000000000E+00 0.  1.
          1   -1    0    0  501    0  0.00000000000E+00 -0.00000000000E+00 -0.13887112155E+04  0.13887112155E+04  0.00000000000E+00 0. -1.
         23    2    1    2    0    0 -0.86266397764E+03 -0.15489692020E+03 -0.53159901319E+03  0.10291195466E+04  0.91144589143E+02 0.  0.
        254    2    1    2    0    0  0.86266397764E+03  0.15489692020E+03  0.47745769537E+02  0.12644496407E+04  0.91014891156E+03 0.  0.
        -24    2    4    4    0    0  0.78600428649E+03 -0.26154556428E+03  0.25194695212E+02  0.83278395131E+03  0.81765006619E+02 0.  0.
         24    2    4    4    0    0  0.76659691143E+02  0.41644248448E+03  0.22551074325E+02  0.43166568941E+03  0.80781590310E+02 0.  0.
         11    1    3    3    0    0 -0.78682066503E+03 -0.12657889656E+03 -0.50686204694E+03  0.94446710403E+03  0.00000000000E+00 0. -1.
        -11    1    3    3    0    0 -0.75843312603E+02 -0.28318023642E+02 -0.24736966252E+02  0.84652442545E+02  0.00000000000E+00 0.  1.
          4    1    6    6  502    0 -0.39038575691E+01  0.83275713844E+02 -0.21454237163E+02  0.86083499653E+02  0.00000000000E+00 0. -1.
          3    1    5    5  503    0  0.89177759110E+01  0.55604359074E+01 -0.16311856534E+01  0.10635127706E+02  0.00000000000E+00 0. -1.
         -4    1    5    5    0  503  0.77708651058E+03 -0.26710600019E+03  0.26825880865E+02  0.82214882360E+03  0.00000000000E+00 0.  1.
         -3    1    6    6    0  502  0.80563548712E+02  0.33316677064E+03  0.44005311489E+02  0.34558218976E+03  0.00000000000E+00 0.  1.
<mgrwt>
<rscale>  0 0.22419513E+04</rscale>
<asrwt>0</asrwt>
<pdfrwt beam="1">  1        1 0.21364788E+00 0.22419513E+04</pdfrwt>
<pdfrwt beam="2">  1       -1 0.13920892E+00 0.22419513E+04</pdfrwt>
<totfact> 0.30240871E+00</totfact>
</mgrwt>
</event>
<event>
12    1  0.1980523E-007  0.2287141E+04  0.7818608E-02  0.8483008E-01
          2   -1    0    0  501    0  0.00000000000E+00  0.00000000000E+00  0.11758183292E+04  0.11758183292E+04  0.00000000000E+00 0. -1.
         -2   -1    0    0    0  501 -0.00000000000E+00 -0.00000000000E+00 -0.11122074912E+04  0.11122074912E+04  0.00000000000E+00 0.  1.
         23    2    1    2    0    0 -0.15483967700E+03  0.57588507598E+03 -0.73094703483E+03  0.94760769772E+03  0.89765442832E+02 0.  0.
        254    2    1    2    0    0  0.15483967700E+03 -0.57588507598E+03  0.79455787282E+03  0.13404181228E+04  0.89987753848E+03 0.  0.
        -24    2    4    4    0    0 -0.60921961395E+02  0.22021392346E+03  0.25888945139E+03  0.35380553244E+03  0.77129431991E+02 0.  0.
         24    2    4    4    0    0  0.21576163839E+03 -0.79609899944E+03  0.53566842143E+03  0.98661259032E+03  0.78339288680E+02 0.  0.
         13    1    3    3    0    0 -0.11675403078E+03  0.51344688563E+03 -0.60577277330E+03  0.80263307989E+03  0.00000000000E+00 0. -1.
        -13    1    3    3    0    0 -0.38085646219E+02  0.62438190351E+02 -0.12517426154E+03  0.14497461783E+03  0.00000000000E+00 0.  1.
          2    1    6    6  502    0 -0.50962662736E+01 -0.16843776653E+02  0.19026946205E+02  0.25917357577E+02  0.00000000000E+00 0. -1.
          1    1    5    5  503    0 -0.65489589391E+02  0.10063013652E+03  0.11049915240E+03  0.16317283284E+03  0.00000000000E+00 0. -1.
         -2    1    5    5    0  503  0.45676279959E+01  0.11958378694E+03  0.14839029899E+03  0.19063269960E+03  0.00000000000E+00 0.  1.
         -1    1    6    6    0  502  0.22085790466E+03 -0.77925522279E+03  0.51664147522E+03  0.96069523275E+03  0.00000000000E+00 0.  1.
<mgrwt>
<rscale>  0 0.22871414E+04</rscale>
<asrwt>0</asrwt>
<pdfrwt beam="1">  1        2 0.18089513E+00 0.22871414E+04</pdfrwt>
<pdfrwt beam="2">  1       -2 0.17110884E+00 0.22871414E+04</pdfrwt>
<totfact> 0.37202663E+00</totfact>
</mgrwt>
</event>
<event>
12    1  0.1980523E-007  0.1436815E+04  0.7818608E-02  0.8927593E-01
         -2   -1    0    0    0  501 -0.00000000000E+00  0.00000000000E+00  0.21055206423E+03  0.21055206423E+03  0.00000000000E+00 0.  1.
          2   -1    0    0  501    0  0.00000000000E+00 -0.00000000000E+00 -0.24512187663E+04  0.24512187663E+04  0.00000000000E+00 0. -1.
         23    2    1    2    0    0 -0.81429250234E+02  0.25366344259E+03 -0.13103309649E+04  0.13402497282E+04  0.91248185883E+02 0.  0.
        254    2    1    2    0    0  0.81429250234E+02 -0.25366344259E+03 -0.93033573717E+03  0.13215211023E+04  0.89995420727E+03 0.  0.
        -24    2    4    4    0    0  0.46639397184E+03 -0.25005233897E+03 -0.63437325051E+03  0.82941167571E+03  0.73788872147E+02 0.  0.
         24    2    4    4    0    0 -0.38496472161E+03 -0.36111036239E+01 -0.29596248667E+03  0.49210942663E+03  0.79793591959E+02 0.  0.
         13    1    3    3    0    0 -0.41005191373E+02  0.15770782925E+03 -0.57716958297E+03  0.59973153380E+03  0.00000000000E+00 0.  1.
        -13    1    3    3    0    0 -0.40424058860E+02  0.95955613338E+02 -0.73316138190E+03  0.74051819436E+03  0.00000000000E+00 0. -1.
          2    1    6    6  502    0 -0.94383160904E+02 -0.23952537640E+02 -0.10810630507E+03  0.14549528624E+03  0.00000000000E+00 0. -1.
          1    1    5    5  503    0  0.13522584155E+02  0.46758726260E+01 -0.12161588570E+02  0.18778399921E+02  0.00000000000E+00 0. -1.
         -2    1    5    5    0  503  0.45287138768E+03 -0.25472821159E+03 -0.62221166194E+03  0.81063327579E+03  0.00000000000E+00 0.  1.
         -1    1    6    6    0  502 -0.29058156070E+03  0.20341434016E+02 -0.18785618159E+03  0.34661414039E+03  0.00000000000E+00 0.  1.
<mgrwt>
<rscale>  0 0.14368148E+04</rscale>
<asrwt>0</asrwt>
<pdfrwt beam="1">  1        2 0.37711060E+00 0.14368148E+04</pdfrwt>
<pdfrwt beam="2">  1       -2 0.32392623E-01 0.14368148E+04</pdfrwt>
<totfact> 0.32105660E+01</totfact>
</mgrwt>
</event>
<event>
12    1  0.1980523E-007  0.1459237E+04  0.7818608E-02  0.8912022E-01
          1   -1    0    0  501    0  0.00000000000E+00  0.00000000000E+00  0.12735387807E+04  0.12735387807E+04  0.00000000000E+00 0. -1.
         -1   -1    0    0    0  501 -0.00000000000E+00 -0.00000000000E+00 -0.41800304797E+03  0.41800304797E+03  0.00000000000E+00 0.  1.
         23    2    1    2    0    0  0.21082020522E+03 -0.30184559059E+03 -0.20790412338E+02  0.38005698958E+03  0.91951914591E+02 0.  0.
        254    2    1    2    0    0 -0.21082020522E+03  0.30184559059E+03  0.87632614507E+03  0.13114848391E+04  0.90359783707E+03 0.  0.
        -24    2    4    4    0    0  0.30815737391E+03  0.26470621791E+03  0.21506511436E+03  0.46626642362E+03  0.78236982820E+02 0.  0.
         24    2    4    4    0    0 -0.51897757913E+03  0.37139372671E+02  0.66126103071E+03  0.84521841547E+03  0.80068461177E+02 0.  0.
         13    1    3    3    0    0  0.17336896462E+02 -0.13478032297E+02 -0.24331706176E+02  0.32775863970E+02  0.00000000000E+00 0.  1.
        -13    1    3    3    0    0  0.19348330875E+03 -0.28836755829E+03  0.35412938386E+01  0.34728112561E+03  0.00000000000E+00 0. -1.
          2    1    6    6  502    0 -0.45097424164E+03  0.51942861595E+02  0.60086630634E+03  0.75307114245E+03  0.00000000000E+00 0. -1.
          1    1    5    5  503    0  0.21907081836E+03  0.16487453901E+03  0.10717049605E+03  0.29438266303E+03  0.00000000000E+00 0. -1.
         -2    1    5    5    0  503  0.89086555554E+02  0.99831678900E+02  0.10789461831E+03  0.17188376059E+03  0.00000000000E+00 0.  1.
         -1    1    6    6    0  502 -0.68003337488E+02 -0.14803488923E+02  0.60394724371E+02  0.92147273023E+02  0.00000000000E+00 0.  1.
<mgrwt>
<rscale>  0 0.14592369E+04</rscale>
<asrwt>0</asrwt>
<pdfrwt beam="1">  1        1 0.19592904E+00 0.14592369E+04</pdfrwt>
<pdfrwt beam="2">  1       -1 0.64308162E-01 0.14592369E+04</pdfrwt>
<totfact> 0.22488262E+01</totfact>
</mgrwt>
</event>
<event>
12    1  0.1980523E-007  0.1884781E+04  0.7818608E-02  0.8662469E-01
         -1   -1    0    0    0  501 -0.00000000000E+00  0.00000000000E+00  0.57194332038E+03  0.57194332038E+03  0.00000000000E+00 0.  1.
          1   -1    0    0  501    0  0.00000000000E+00 -0.00000000000E+00 -0.15527762838E+04  0.15527762838E+04  0.00000000000E+00 0. -1.
         23    2    1    2    0    0 -0.15940595075E+03 -0.43105499095E+03  0.25422343561E+03  0.53298734120E+03  0.90704400737E+02 0.  0.
        254    2    1    2    0    0  0.15940595075E+03  0.43105499095E+03 -0.12350563990E+04  0.15917322630E+04  0.89276459711E+03 0.  0.
        -24    2    4    4    0    0 -0.14704100290E+03  0.54107948381E+03 -0.10853735731E+04  0.12249497118E+04  0.89877354448E+02 0.  0.
         24    2    4    4    0    0  0.30644695365E+03 -0.11002449286E+03 -0.14968282595E+03  0.36678255123E+03  0.78162440246E+02 0.  0.
         13    1    3    3    0    0 -0.15342094838E+03 -0.29867946407E+03  0.17595385165E+03  0.37908728226E+03  0.00000000000E+00 0.  1.
        -13    1    3    3    0    0 -0.59850023677E+01 -0.13237552688E+03  0.78269583959E+02  0.15390005894E+03  0.00000000000E+00 0. -1.
          4    1    6    6  502    0  0.17470539536E+03 -0.64124118180E+02 -0.42600819381E+02  0.19091544598E+03  0.00000000000E+00 0. -1.
          1    1    5    5  503    0 -0.67774160092E+02  0.26679947372E+03 -0.62945248463E+03  0.68701217337E+03  0.00000000000E+00 0. -1.
         -2    1    5    5    0  503 -0.79266842810E+02  0.27428001009E+03 -0.45592108846E+03  0.53793753838E+03  0.00000000000E+00 0.  1.
         -3    1    6    6    0  502  0.13174155829E+03 -0.45900374682E+02 -0.10708200657E+03  0.17586710525E+03  0.00000000000E+00 0.  1.
<mgrwt>
<rscale>  0 0.18847812E+04</rscale>
<asrwt>0</asrwt>
<pdfrwt beam="1">  1        1 0.23888866E+00 0.18847812E+04</pdfrwt>
<pdfrwt beam="2">  1       -1 0.87991281E-01 0.18847812E+04</pdfrwt>
<totfact> 0.71521658E+00</totfact>
</mgrwt>
</event>
<event>
12    1  0.1980523E-007  0.2965940E+04  0.7818608E-02  0.8253524E-01
          1   -1    0    0  501    0  0.00000000000E+00  0.00000000000E+00  0.25282483574E+04  0.25282483574E+04  0.00000000000E+00 0. -1.
         -1   -1    0    0    0  501 -0.00000000000E+00 -0.00000000000E+00 -0.86985123701E+03  0.86985123701E+03  0.00000000000E+00 0.  1.
         23    2    1    2    0    0 -0.75138896062E+03 -0.10919788956E+04  0.10108021676E+04  0.16694126835E+04  0.90633366036E+02 0.  0.
        254    2    1    2    0    0  0.75138896062E+03  0.10919788956E+04  0.64759495284E+03  0.17286869110E+04  0.90109707282E+03 0.  0.
        -24    2    4    4    0    0 -0.17631970676E+03  0.11163319405E+03 -0.14511908175E+02  0.22328000066E+03  0.78056096567E+02 0.  0.
         24    2    4    4    0    0  0.92770866737E+03  0.98034570158E+03  0.66210686101E+03  0.15054069103E+04  0.78379870764E+02 0.  0.
         13    1    3    3    0    0 -0.33666479248E+03 -0.55376535314E+03  0.52708615063E+03  0.83535564822E+03  0.00000000000E+00 0. -1.
        -13    1    3    3    0    0 -0.41472416813E+03 -0.53821354249E+03  0.48371601697E+03  0.83405703524E+03  0.00000000000E+00 0.  1.
          4    1    6    6  502    0  0.45290783647E+03  0.46479304152E+03  0.27605806948E+03  0.70524189999E+03  0.00000000000E+00 0. -1.
          1    1    5    5  503    0 -0.15834187282E+03  0.74855616087E+02  0.10238099338E+02  0.17544324047E+03  0.00000000000E+00 0. -1.
         -2    1    5    5    0  503 -0.17977833938E+02  0.36777577962E+02 -0.24750007513E+02  0.47836760193E+02  0.00000000000E+00 0.  1.
         -3    1    6    6    0  502  0.47480083090E+03  0.51555266006E+03  0.38604879153E+03  0.80016501034E+03  0.00000000000E+00 0.  1.
<mgrwt>
<rscale>  0 0.29659400E+04</rscale>
<asrwt>0</asrwt>
<pdfrwt beam="1">  1        1 0.38896128E+00 0.29659400E+04</pdfrwt>
<pdfrwt beam="2">  1       -1 0.13382327E+00 0.29659400E+04</pdfrwt>
<totfact> 0.52043478E-01</totfact>
</mgrwt>
</event>
<event>
12    1  0.1980523E-007  0.2172858E+04  0.7818608E-02  0.8529811E-01
          2   -1    0    0  501    0  0.00000000000E+00  0.00000000000E+00  0.34031112012E+04  0.34031112012E+04  0.00000000000E+00 0. -1.
         -2   -1    0    0    0  501 -0.00000000000E+00 -0.00000000000E+00 -0.34683803387E+03  0.34683803387E+03  0.00000000000E+00 0.  1.
         23    2    1    2    0    0 -0.69316776263E+03  0.37849972361E+03  0.19962792074E+04  0.21487197547E+04  0.90123927605E+02 0.  0.
        254    2    1    2    0    0  0.69316776263E+03 -0.37849972361E+03  0.10599939599E+04  0.16012294804E+04  0.90366203076E+03 0.  0.
        -24    2    4    4    0    0  0.15231076385E+03 -0.28104771227E+03  0.98752044959E+03  0.10410429118E+04  0.79920713396E+02 0.  0.
         24    2    4    4    0    0  0.54085699878E+03 -0.97452011340E+02  0.72473510289E+02  0.56018656858E+03  0.80829414702E+02 0.  0.
         13    1    3    3    0    0 -0.17110915450E+03  0.13926815888E+03  0.56021302073E+03  0.60209018546E+03  0.00000000000E+00 0.  1.
        -13    1    3    3    0    0 -0.52205860812E+03  0.23923156473E+03  0.14360661867E+04  0.15466295693E+04  0.00000000000E+00 0. -1.
          4    1    6    6  502    0 -0.29647275445E+01 -0.11595278907E+01  0.11369762902E+00  0.31854421190E+01  0.00000000000E+00 0. -1.
          3    1    5    5  503    0  0.21672737853E+02 -0.30277791981E+02  0.53657050523E+02  0.65311035240E+02  0.00000000000E+00 0. -1.
         -4    1    5    5    0  503  0.13063802599E+03 -0.25076992028E+03  0.93386339907E+03  0.97573187653E+03  0.00000000000E+00 0.  1.
         -3    1    6    6    0  502  0.54382172632E+03 -0.96292483450E+02  0.72359812660E+02  0.55700112646E+03  0.00000000000E+00 0.  1.
<mgrwt>
<rscale>  0 0.21728584E+04</rscale>
<asrwt>0</asrwt>
<pdfrwt beam="1">  1        2 0.52355555E+00 0.21728584E+04</pdfrwt>
<pdfrwt beam="2">  1       -2 0.53359700E-01 0.21728584E+04</pdfrwt>
<totfact> 0.28866017E+00</totfact>
</mgrwt>
</event>
<event>
12    1  0.1980523E-007  0.2377757E+04  0.7818608E-02  0.8447878E-01
          3   -1    0    0  501    0  0.00000000000E+00  0.00000000000E+00  0.13348198737E+04  0.13348198737E+04  0.00000000000E+00 0. -1.
         -3   -1    0    0    0  501 -0.00000000000E+00 -0.00000000000E+00 -0.10588937193E+04  0.10588937193E+04  0.00000000000E+00 0.  1.
         23    2    1    2    0    0 -0.84790367507E+03  0.55579991744E+03  0.18528146234E+03  0.10345345435E+04  0.89879424466E+02 0.  0.
        254    2    1    2    0    0  0.84790367507E+03 -0.55579991744E+03  0.90644692016E+02  0.13591790495E+04  0.90072028843E+03 0.  0.
        -24    2    4    4    0    0  0.63623606880E+03 -0.75926080413E+03 -0.10111301365E+03  0.99893895389E+03  0.79886720656E+02 0.  0.
         24    2    4    4    0    0  0.21166760628E+03  0.20346088669E+03  0.19175770567E+03  0.36024009561E+03  0.82476668493E+02 0.  0.
         11    1    3    3    0    0 -0.32300620048E+03  0.22060672044E+03  0.27802242636E+02  0.39213938256E+03  0.00000000000E+00 0.  1.
        -11    1    3    3    0    0 -0.52489747459E+03  0.33519319699E+03  0.15747921970E+03  0.64239516093E+03  0.00000000000E+00 0. -1.
          4    1    6    6  502    0  0.21301922837E+03  0.20246889693E+03  0.17222412229E+03  0.34063469315E+03  0.00000000000E+00 0. -1.
          1    1    5    5  503    0  0.42893372782E+03 -0.56787884492E+03 -0.71136994680E+02  0.71521395217E+03  0.00000000000E+00 0. -1.
         -2    1    5    5    0  503  0.20730234097E+03 -0.19138195921E+03 -0.29976018972E+02  0.28372500172E+03  0.00000000000E+00 0.  1.
         -3    1    6    6    0  502 -0.13516220951E+01  0.99198975671E+00  0.19533583382E+02  0.19605402463E+02  0.00000000000E+00 0.  1.
<mgrwt>
<rscale>  0 0.23777572E+04</rscale>
<asrwt>0</asrwt>
<pdfrwt beam="1">  1        3 0.20535690E+00 0.23777572E+04</pdfrwt>
<pdfrwt beam="2">  1       -3 0.16290673E+00 0.23777572E+04</pdfrwt>
<totfact> 0.83061090E-02</totfact>
</mgrwt>
</event>
<event>
12    1  0.1980523E-007  0.2518018E+04  0.7818608E-02  0.8396595E-01
          2   -1    0    0  501    0  0.00000000000E+00  0.00000000000E+00  0.39074867337E+04  0.39074867337E+04  0.00000000000E+00 0. -1.
         -2   -1    0    0    0  501 -0.00000000000E+00 -0.00000000000E+00 -0.40565808493E+03  0.40565808493E+03  0.00000000000E+00 0.  1.
         23    2    1    2    0    0 -0.85208052766E+03 -0.43968790840E+03  0.62047495861E+03  0.11457476574E+04  0.91552376799E+02 0.  0.
        254    2    1    2    0    0  0.85208052766E+03  0.43968790840E+03  0.28813536901E+04  0.31673971612E+04  0.90046599433E+03 0.  0.
        -24    2    4    4    0    0  0.10244865347E+03  0.53727634788E+03  0.13017190127E+04  0.14143653763E+04  0.82434392916E+02 0.  0.
         24    2    4    4    0    0  0.74963187419E+03 -0.97588439475E+02  0.15796346775E+04  0.17530317850E+04  0.80020462632E+02 0.  0.
         13    1    3    3    0    0 -0.63105111463E+03 -0.33623909571E+03  0.41514247026E+03  0.82681649075E+03  0.00000000000E+00 0.  1.
        -13    1    3    3    0    0 -0.22102941303E+03 -0.10344881270E+03  0.20533248835E+03  0.31893116662E+03  0.00000000000E+00 0. -1.
          2    1    6    6  502    0  0.17263512926E+03 -0.39890723786E+01  0.29861489532E+03  0.34494877339E+03  0.00000000000E+00 0. -1.
          1    1    5    5  503    0  0.34081013946E+02  0.16068600521E+03  0.49305494405E+03  0.51969672467E+03  0.00000000000E+00 0. -1.
         -2    1    5    5    0  503  0.68367639524E+02  0.37659034267E+03  0.80866406860E+03  0.89466865161E+03  0.00000000000E+00 0.  1.
         -1    1    6    6    0  502  0.57699674492E+03 -0.93599367096E+02  0.12810197822E+04  0.14080830116E+04  0.00000000000E+00 0.  1.
<mgrwt>
<rscale>  0 0.25180179E+04</rscale>
<asrwt>0</asrwt>
<pdfrwt beam="1">  1        2 0.60115178E+00 0.25180179E+04</pdfrwt>
<pdfrwt beam="2">  1       -2 0.62408939E-01 0.25180179E+04</pdfrwt>
<totfact> 0.86271227E-01</totfact>
</mgrwt>
</event>
<event>
12    1  0.1980523E-007  0.2283340E+04  0.7818608E-02  0.8484519E-01
          1   -1    0    0  501    0  0.00000000000E+00  0.00000000000E+00  0.34144889504E+04  0.34144889504E+04  0.00000000000E+00 0. -1.
         -1   -1    0    0    0  501 -0.00000000000E+00 -0.00000000000E+00 -0.38172940230E+03  0.38172940230E+03  0.00000000000E+00 0.  1.
         23    2    1    2    0    0 -0.45563052556E+03 -0.48487127042E+03  0.12853757125E+03  0.68383893220E+03  0.91730329052E+02 0.  0.
        254    2    1    2    0    0  0.45563052556E+03  0.48487127042E+03  0.29042219769E+04  0.31123794205E+04  0.89983389668E+03 0.  0.
        -24    2    4    4    0    0  0.27724645444E+03  0.66824739204E+03  0.26311327933E+04  0.27299117795E+04  0.78347778154E+02 0.  0.
         24    2    4    4    0    0  0.17838407112E+03 -0.18337612162E+03  0.27308918355E+03  0.38246764101E+03  0.79095609483E+02 0.  0.
         13    1    3    3    0    0 -0.21414936771E+03 -0.25568608575E+03  0.21838235120E+02  0.33423380237E+03  0.00000000000E+00 0.  1.
        -13    1    3    3    0    0 -0.24148115785E+03 -0.22918518467E+03  0.10669933613E+03  0.34960512983E+03  0.00000000000E+00 0. -1.
          2    1    6    6  502    0  0.43545438972E+02 -0.13154312306E+02  0.79276091592E+02  0.91399889965E+02  0.00000000000E+00 0. -1.
          3    1    5    5  503    0  0.75879618600E+02  0.27192066730E+03  0.10868939272E+04  0.11229590264E+04  0.00000000000E+00 0. -1.
         -4    1    5    5    0  503  0.20136683584E+03  0.39632672474E+03  0.15442388661E+04  0.16069527531E+04  0.00000000000E+00 0.  1.
         -1    1    6    6    0  502  0.13483863215E+03 -0.17022180931E+03  0.19381309196E+03  0.29106775105E+03  0.00000000000E+00 0.  1.
<mgrwt>
<rscale>  0 0.22833404E+04</rscale>
<asrwt>0</asrwt>
<pdfrwt beam="1">  1        1 0.52530597E+00 0.22833404E+04</pdfrwt>
<pdfrwt beam="2">  1       -1 0.58727603E-01 0.22833404E+04</pdfrwt>
<totfact> 0.77690154E-01</totfact>
</mgrwt>
</event>
<event>
12    1  0.1980523E-007  0.2046898E+04  0.7818608E-02  0.8585003E-01
         -2   -1    0    0    0  501 -0.00000000000E+00  0.00000000000E+00  0.10213278047E+04  0.10213278047E+04  0.00000000000E+00 0.  1.
          2   -1    0    0  501    0  0.00000000000E+00 -0.00000000000E+00 -0.10255746306E+04  0.10255746306E+04  0.00000000000E+00 0. -1.
         23    2    1    2    0    0  0.47966472442E+03 -0.58975634223E+03 -0.31864390962E+03  0.83143422751E+03  0.10889509853E+03 0.  0.
        254    2    1    2    0    0 -0.47966472442E+03  0.58975634223E+03  0.31439708375E+03  0.12154682078E+04  0.89477742867E+03 0.  0.
        -24    2    4    4    0    0 -0.22578457946E+02  0.43156860678E+03 -0.21901760913E+03  0.49099168354E+03  0.79642143854E+02 0.  0.
         24    2    4    4    0    0 -0.45708626647E+03  0.15818773546E+03  0.53341469288E+03  0.72447652427E+03  0.79898591884E+02 0.  0.
         11    1    3    3    0    0  0.51770822684E+02 -0.12863069125E+03 -0.49913015176E+02  0.14736818482E+03  0.00000000000E+00 0.  1.
        -11    1    3    3    0    0  0.42789390173E+03 -0.46112565098E+03 -0.26873089445E+03  0.68406604269E+03  0.00000000000E+00 0. -1.
          2    1    6    6  502    0 -0.40478215956E+02  0.15451021759E+02  0.19007800839E+02  0.47312963690E+02  0.00000000000E+00 0. -1.
          1    1    5    5  503    0  0.73948078260E+01  0.32115373285E+03 -0.13223348277E+03  0.34739041044E+03  0.00000000000E+00 0. -1.
         -2    1    5    5    0  503 -0.29973265772E+02  0.11041487393E+03 -0.86784126363E+02  0.14360127310E+03  0.00000000000E+00 0.  1.
         -1    1    6    6    0  502 -0.41660805052E+03  0.14273671370E+03  0.51440689205E+03  0.67716356058E+03  0.00000000000E+00 0.  1.
<mgrwt>
<rscale>  0 0.20468980E+04</rscale>
<asrwt>0</asrwt>
<pdfrwt beam="1">  1        2 0.15778071E+00 0.20468980E+04</pdfrwt>
<pdfrwt beam="2">  1       -2 0.15712735E+00 0.20468980E+04</pdfrwt>
<totfact> 0.59398235E+00</totfact>
</mgrwt>
</event>
<event>
12    1  0.2591082E-007  0.3313543E+04  0.7818608E-02  0.8159458E-01
          1   -1    0    0  501    0  0.00000000000E+00  0.00000000000E+00  0.20716822340E+04  0.20716822340E+04  0.00000000000E+00 0. -1.
         -1   -1    0    0    0  501 -0.00000000000E+00 -0.00000000000E+00 -0.13249576766E+04  0.13249576766E+04  0.00000000000E+00 0.  1.
         23    2    1    2    0    0  0.23785111208E+03  0.14467338575E+04 -0.11257765076E+03  0.14735123151E+04  0.94619285793E+02 0.  0.
        254    2    1    2    0    0 -0.23785111208E+03 -0.14467338575E+04  0.85930220811E+03  0.19231275955E+04  0.90022633695E+03 0.  0.
        -24    2    4    4    0    0 -0.44962890636E+03 -0.10484885758E+04  0.91094545966E+03  0.14622222023E+04  0.82326735246E+02 0.  0.
         24    2    4    4    0    0  0.21177779428E+03 -0.39824528176E+03 -0.51643251555E+02  0.46090539326E+03  0.79483441753E+02 0.  0.
         13    1    3    3    0    0  0.12868581307E+03  0.68867252346E+03 -0.89291988014E+01  0.70064942278E+03  0.00000000000E+00 0. -1.
        -13    1    3    3    0    0  0.10916529901E+03  0.75806133407E+03 -0.10364845196E+03  0.77286289232E+03  0.00000000000E+00 0.  1.
          2    1    6    6  502    0  0.20022577030E+03 -0.39769565300E+03 -0.44888535700E+02  0.44751220335E+03  0.00000000000E+00 0. -1.
          3    1    5    5  503    0 -0.45086929830E+03 -0.10413306860E+04  0.91061941179E+03  0.14549503204E+04  0.00000000000E+00 0. -1.
         -4    1    5    5    0  503  0.12403919416E+01 -0.71578897989E+01  0.32604787156E+00  0.72718818580E+01  0.00000000000E+00 0.  1.
         -1    1    6    6    0  502  0.11552023972E+02 -0.54962875584E+00 -0.67547158555E+01  0.13393189908E+02  0.00000000000E+00 0.  1.
<mgrwt>
<rscale>  0 0.33135427E+04</rscale>
<asrwt>0</asrwt>
<pdfrwt beam="1">  1        1 0.31872034E+00 0.33135427E+04</pdfrwt>
<pdfrwt beam="2">  1       -1 0.20383964E+00 0.33135427E+04</pdfrwt>
<totfact> 0.31265170E-01</totfact>
</mgrwt>
</event>
<event>
12    1  0.1980523E-007  0.1206964E+04  0.7818608E-02  0.9106782E-01
          1   -1    0    0  501    0  0.00000000000E+00  0.00000000000E+00  0.84935814702E+03  0.84935814702E+03  0.00000000000E+00 0. -1.
         -1   -1    0    0    0  501 -0.00000000000E+00 -0.00000000000E+00 -0.42878349335E+03  0.42878349335E+03  0.00000000000E+00 0.  1.
         23    2    1    2    0    0  0.22372809093E+03  0.81896472391E+02 -0.37974730288E+01  0.25576483564E+03  0.92951274818E+02 0.  0.
        254    2    1    2    0    0 -0.22372809093E+03 -0.81896472391E+02  0.42437212669E+03  0.10223768047E+04  0.89911141583E+03 0.  0.
        -24    2    4    4    0    0  0.16751834357E+03 -0.12616496357E+03  0.55638706665E+03  0.59943216562E+03  0.75976047421E+02 0.  0.
         24    2    4    4    0    0 -0.39124643450E+03  0.44268491181E+02 -0.13201493995E+03  0.42294463911E+03  0.80129592286E+02 0.  0.
         11    1    3    3    0    0  0.13021537772E+03  0.17429404964E+02  0.34621844437E+02  0.13586206558E+03  0.00000000000E+00 0. -1.
        -11    1    3    3    0    0  0.93512713211E+02  0.64467067427E+02 -0.38419317466E+02  0.11990277006E+03  0.00000000000E+00 0.  1.
          4    1    6    6  502    0 -0.35657266285E+02  0.20310492993E+02  0.45346872727E+01  0.41285834777E+02  0.00000000000E+00 0. -1.
          3    1    5    5  503    0  0.67691707819E+02 -0.73486669678E+02  0.17303979804E+03  0.19981298665E+03  0.00000000000E+00 0. -1.
         -4    1    5    5    0  503  0.99826635752E+02 -0.52678293894E+02  0.38334726860E+03  0.39961917897E+03  0.00000000000E+00 0.  1.
         -3    1    6    6    0  502 -0.35558916821E+03  0.23957998188E+02 -0.13654962723E+03  0.38165880433E+03  0.00000000000E+00 0.  1.
<mgrwt>
<rscale>  0 0.12069644E+04</rscale>
<asrwt>0</asrwt>
<pdfrwt beam="1">  1        1 0.13067048E+00 0.12069644E+04</pdfrwt>
<pdfrwt beam="2">  1       -1 0.65966691E-01 0.12069644E+04</pdfrwt>
<totfact> 0.46210738E+01</totfact>
</mgrwt>
</event>
<event>
12    1  0.1980523E-007  0.1679418E+04  0.7818608E-02  0.8773191E-01
          2   -1    0    0  501    0  0.00000000000E+00  0.00000000000E+00  0.43907362947E+03  0.43907362947E+03  0.00000000000E+00 0. -1.
         -2   -1    0    0    0  501 -0.00000000000E+00 -0.00000000000E+00 -0.16059066012E+04  0.16059066012E+04  0.00000000000E+00 0.  1.
         23    2    1    2    0    0 -0.39636711521E+03 -0.40022333964E+03 -0.18869236613E+03  0.60114824942E+03  0.92134668440E+02 0.  0.
        254    2    1    2    0    0  0.39636711521E+03  0.40022333964E+03 -0.97814060561E+03  0.14438319813E+04  0.90033667822E+03 0.  0.
        -24    2    4    4    0    0  0.36237333366E+03 -0.11468322134E+03 -0.80414819910E+03  0.89319279042E+03  0.81684518389E+02 0.  0.
         24    2    4    4    0    0  0.33993781555E+02  0.51490656099E+03 -0.17399240651E+03  0.55063919084E+03  0.81521881904E+02 0.  0.
         11    1    3    3    0    0 -0.29512968716E+03 -0.30244710737E+03 -0.18238763430E+03  0.46026191907E+03  0.00000000000E+00 0.  1.
        -11    1    3    3    0    0 -0.10123742805E+03 -0.97776232270E+02 -0.63047318274E+01  0.14088633035E+03  0.00000000000E+00 0. -1.
          4    1    6    6  502    0  0.15959421615E+02  0.44420041989E+03 -0.17491077304E+03  0.47766357899E+03  0.00000000000E+00 0. -1.
          1    1    5    5  503    0  0.16239176073E+03 -0.72720017345E+02 -0.29409239859E+03  0.34372899759E+03  0.00000000000E+00 0. -1.
         -2    1    5    5    0  503  0.19998157292E+03 -0.41963203997E+02 -0.51005580051E+03  0.54946379283E+03  0.00000000000E+00 0.  1.
         -3    1    6    6    0  502  0.18034359940E+02  0.70706141093E+02  0.91836652685E+00  0.72975611842E+02  0.00000000000E+00 0.  1.
<mgrwt>
<rscale>  0 0.16794180E+04</rscale>
<asrwt>0</asrwt>
<pdfrwt beam="1">  1        2 0.67549788E-01 0.16794180E+04</pdfrwt>
<pdfrwt beam="2">  1       -2 0.24706256E+00 0.16794180E+04</pdfrwt>
<totfact> 0.45675291E+00</totfact>
</mgrwt>
</event>
<event>
12    1  0.1980523E-007  0.2032532E+04  0.7818608E-02  0.8591560E-01
         -2   -1    0    0    0  501 -0.00000000000E+00  0.00000000000E+00  0.85227304326E+03  0.85227304326E+03  0.00000000000E+00 0.  1.
          2   -1    0    0  501    0  0.00000000000E+00 -0.00000000000E+00 -0.12118136699E+04  0.12118136699E+04  0.00000000000E+00 0. -1.
         23    2    1    2    0    0  0.37742247735E+03 -0.57750986958E+03 -0.58482773446E+03  0.90890339392E+03  0.90091756612E+02 0.  0.
        254    2    1    2    0    0 -0.37742247735E+03  0.57750986958E+03  0.22528710780E+03  0.11551833193E+04  0.89873736113E+03 0.  0.
        -24    2    4    4    0    0  0.18401101868E+03  0.30896802231E+03  0.35798066644E+03  0.51380799750E+03  0.80791131616E+02 0.  0.
         24    2    4    4    0    0 -0.56143349603E+03  0.26854184727E+03 -0.13269355864E+03  0.64137532176E+03  0.80202423065E+02 0.  0.
         13    1    3    3    0    0  0.29273840219E+03 -0.46081324295E+03 -0.41274619714E+03  0.68440049696E+03  0.00000000000E+00 0. -1.
        -13    1    3    3    0    0  0.84684075160E+02 -0.11669662663E+03 -0.17208153733E+03  0.22450289696E+03  0.00000000000E+00 0.  1.
          2    1    6    6  502    0 -0.59127008665E+02  0.44946352429E+02  0.54235184969E+01  0.74468733729E+02  0.00000000000E+00 0. -1.
          1    1    5    5  503    0  0.14396018633E+03  0.17254587812E+03  0.19499503519E+03  0.29752256898E+03  0.00000000000E+00 0. -1.
         -2    1    5    5    0  503  0.40050832352E+02  0.13642214419E+03  0.16298563125E+03  0.21628542852E+03  0.00000000000E+00 0.  1.
         -1    1    6    6    0  502 -0.50230648736E+03  0.22359549485E+03 -0.13811707714E+03  0.56690658804E+03  0.00000000000E+00 0.  1.
<mgrwt>
<rscale>  0 0.20325315E+04</rscale>
<asrwt>0</asrwt>
<pdfrwt beam="1">  1        2 0.18643287E+00 0.20325315E+04</pdfrwt>
<pdfrwt beam="2">  1       -2 0.13111893E+00 0.20325315E+04</pdfrwt>
<totfact> 0.73392052E+00</totfact>
</mgrwt>
</event>
<event>
12    1  0.1980523E-007  0.1582630E+04  0.7818608E-02  0.8831291E-01
          2   -1    0    0  501    0  0.00000000000E+00  0.00000000000E+00  0.15547764867E+04  0.15547764867E+04  0.00000000000E+00 0. -1.
         -2   -1    0    0    0  501 -0.00000000000E+00 -0.00000000000E+00 -0.40274555855E+03  0.40274555855E+03  0.00000000000E+00 0.  1.
         23    2    1    2    0    0 -0.11548202482E+03 -0.19046034968E+03  0.98597732761E+03  0.10149671742E+04  0.91628768811E+02 0.  0.
        254    2    1    2    0    0  0.11548202482E+03  0.19046034968E+03  0.16605360056E+03  0.94255487108E+03  0.90068010074E+03 0.  0.
        -24    2    4    4    0    0  0.11927283111E+03 -0.34560839673E+03  0.14146213244E+03  0.40005369655E+03  0.79751194809E+02 0.  0.
         24    2    4    4    0    0 -0.37908062885E+01  0.53606874641E+03  0.24591468122E+02  0.54250117453E+03  0.79490332532E+02 0.  0.
         11    1    3    3    0    0 -0.12844092202E+03 -0.18253050116E+03  0.95088047843E+03  0.97672316373E+03  0.00000000000E+00 0. -1.
        -11    1    3    3    0    0  0.12958897199E+02 -0.79298485156E+01  0.35096849174E+02  0.38244010460E+02  0.00000000000E+00 0.  1.
          4    1    6    6  502    0 -0.27475427685E+02  0.43584485629E+03  0.38519031876E+00  0.43671018565E+03  0.00000000000E+00 0. -1.
          3    1    5    5  503    0  0.43437053123E+02 -0.74088760805E+02  0.65723196363E+02  0.10814555285E+03  0.00000000000E+00 0. -1.
         -4    1    5    5    0  503  0.75835777988E+02 -0.27151963593E+03  0.75738936079E+02  0.29190814370E+03  0.00000000000E+00 0.  1.
         -3    1    6    6    0  502  0.23684621397E+02  0.10022389012E+03  0.24206277803E+02  0.10579098887E+03  0.00000000000E+00 0.  1.
<mgrwt>
<rscale>  0 0.15826299E+04</rscale>
<asrwt>0</asrwt>
<pdfrwt beam="1">  1        2 0.23919638E+00 0.15826299E+04</pdfrwt>
<pdfrwt beam="2">  1       -2 0.61960856E-01 0.15826299E+04</pdfrwt>
<totfact> 0.27456956E+01</totfact>
</mgrwt>
</event>
<event>
12    1  0.1980523E-007  0.1586688E+04  0.7818608E-02  0.8828768E-01
         -2   -1    0    0    0  501 -0.00000000000E+00  0.00000000000E+00  0.55043580953E+03  0.55043580953E+03  0.00000000000E+00 0.  1.
          2   -1    0    0  501    0  0.00000000000E+00 -0.00000000000E+00 -0.11434479405E+04  0.11434479405E+04  0.00000000000E+00 0. -1.
         23    2    1    2    0    0  0.45169123610E+03 -0.32262890342E+02  0.98221045698E+02  0.47242836678E+03  0.92061506906E+02 0.  0.
        254    2    1    2    0    0 -0.45169123610E+03  0.32262890342E+02 -0.69123317668E+03  0.12214553833E+04  0.89949101268E+03 0.  0.
        -24    2    4    4    0    0 -0.30593626516E+03 -0.19699087957E+03 -0.82730589184E+03  0.90728505465E+03  0.79553294975E+02 0.  0.
         24    2    4    4    0    0 -0.14575497094E+03  0.22925376991E+03  0.13607271516E+03  0.31417032862E+03  0.79908754218E+02 0.  0.
         13    1    3    3    0    0  0.74299236806E+02  0.16407319780E+02 -0.10190658934E+02  0.76768654162E+02  0.00000000000E+00 0. -1.
        -13    1    3    3    0    0  0.37739199930E+03 -0.48670210122E+02  0.10841170463E+03  0.39565971262E+03  0.00000000000E+00 0.  1.
          2    1    6    6  502    0 -0.12858931342E+03  0.22884881991E+03  0.13855074059E+03  0.29682200326E+03  0.00000000000E+00 0. -1.
          1    1    5    5  503    0 -0.23429233380E+03 -0.10938523751E+03 -0.54874302106E+03  0.60661102119E+03  0.00000000000E+00 0. -1.
         -2    1    5    5    0  503 -0.71643931362E+02 -0.87605642057E+02 -0.27856287078E+03  0.30067403346E+03  0.00000000000E+00 0.  1.
         -1    1    6    6    0  502 -0.17165657522E+02  0.40494999714E+00 -0.24780254314E+01  0.17348325357E+02  0.00000000000E+00 0.  1.
<mgrwt>
<rscale>  0 0.15866880E+04</rscale>
<asrwt>0</asrwt>
<pdfrwt beam="1">  1        2 0.17591506E+00 0.15866880E+04</pdfrwt>
<pdfrwt beam="2">  1       -2 0.84682434E-01 0.15866880E+04</pdfrwt>
<totfact> 0.23905310E+01</totfact>
</mgrwt>
</event>
<event>
12    1  0.1980523E-007  0.4112676E+04  0.7818608E-02  0.7982194E-01
         -2   -1    0    0    0  501 -0.00000000000E+00  0.00000000000E+00  0.17890521294E+04  0.17890521294E+04  0.00000000000E+00 0.  1.
          2   -1    0    0  501    0  0.00000000000E+00 -0.00000000000E+00 -0.23635569794E+04  0.23635569794E+04  0.00000000000E+00 0. -1.
         23    2    1    2    0    0  0.17690091115E+04 -0.82870414853E+03 -0.39927490829E+03  0.19959634274E+04  0.91135879574E+02 0.  0.
        254    2    1    2    0    0 -0.17690091115E+04  0.82870414853E+03 -0.17522994174E+03  0.21566456815E+04  0.89681171957E+03 0.  0.
        -24    2    4    4    0    0 -0.15400957688E+04  0.49266690517E+03 -0.42355279420E+03  0.16735195405E+04  0.81578345359E+02 0.  0.
         24    2    4    4    0    0 -0.22891334276E+03  0.33603724337E+03  0.24832285246E+03  0.48312614097E+03  0.80151616447E+02 0.  0.
         13    1    3    3    0    0  0.93627703744E+03 -0.48434529732E+03 -0.23429572493E+03  0.10798608913E+04  0.00000000000E+00 0.  1.
        -13    1    3    3    0    0  0.83273207409E+03 -0.34435885121E+03 -0.16497918337E+03  0.91610253606E+03  0.00000000000E+00 0. -1.
          4    1    6    6  502    0 -0.21597450401E+03  0.31309725399E+03  0.20411791608E+03  0.43167001344E+03  0.00000000000E+00 0. -1.
          3    1    5    5  503    0 -0.87294779259E+03  0.31746575097E+03 -0.26102553879E+03  0.96486096590E+03  0.00000000000E+00 0. -1.
         -4    1    5    5    0  503 -0.66714797620E+03  0.17520115420E+03 -0.16252725541E+03  0.70865857458E+03  0.00000000000E+00 0.  1.
         -3    1    6    6    0  502 -0.12938838743E+02  0.22939989381E+02  0.44204936378E+02  0.51456127536E+02  0.00000000000E+00 0.  1.
<mgrwt>
<rscale>  0 0.41126763E+04</rscale>
<asrwt>0</asrwt>
<pdfrwt beam="1">  1        2 0.36362415E+00 0.41126763E+04</pdfrwt>
<pdfrwt beam="2">  1       -2 0.27523879E+00 0.41126763E+04</pdfrwt>
<totfact> 0.14682493E-01</totfact>
</mgrwt>
</event>
<event>
12    1  0.2613028E-007  0.1966092E+04  0.7818608E-02  0.8622640E-01
         -1   -1    0    0    0  501 -0.00000000000E+00  0.00000000000E+00  0.56480374761E+03  0.56480374761E+03  0.00000000000E+00 0.  1.
          1   -1    0    0  501    0  0.00000000000E+00 -0.00000000000E+00 -0.17109999761E+04  0.17109999761E+04  0.00000000000E+00 0. -1.
         23    2    1    2    0    0  0.28789741906E+03  0.64818146980E+03 -0.94689274647E+02  0.72140613441E+03  0.91851022519E+02 0.  0.
        254    2    1    2    0    0 -0.28789741906E+03 -0.64818146980E+03 -0.10515069539E+04  0.15543975894E+04  0.89858825389E+03 0.  0.
        -24    2    4    4    0    0  0.24816629052E+03 -0.32761032026E+03 -0.74352218236E+03  0.85349360059E+03  0.81921065015E+02 0.  0.
         24    2    4    4    0    0 -0.53606370958E+03 -0.32057114954E+03 -0.30798477152E+03  0.70090398876E+03  0.79256667394E+02 0.  0.
         13    1    3    3    0    0  0.12526080880E+03  0.30252303702E+03  0.16610825767E+01  0.32743429470E+03  0.00000000000E+00 0.  1.
        -13    1    3    3    0    0  0.16263661026E+03  0.34565843278E+03 -0.96350357224E+02  0.39397183971E+03  0.00000000000E+00 0. -1.
          2    1    6    6  502    0 -0.32637562514E+02 -0.37904820786E+01 -0.45323101764E+01  0.33168058080E+02  0.00000000000E+00 0. -1.
          3    1    5    5  503    0  0.10618633421E+02 -0.33033213983E+02 -0.30164502855E+02  0.45976579192E+02  0.00000000000E+00 0. -1.
         -4    1    5    5    0  503  0.23754765710E+03 -0.29457710628E+03 -0.71335767951E+03  0.80751702140E+03  0.00000000000E+00 0.  1.
         -1    1    6    6    0  502 -0.50342614707E+03 -0.31678066746E+03 -0.30345246135E+03  0.66773593068E+03  0.00000000000E+00 0.  1.
<mgrwt>
<rscale>  0 0.19660918E+04</rscale>
<asrwt>0</asrwt>
<pdfrwt beam="1">  1        1 0.26323076E+00 0.19660918E+04</pdfrwt>
<pdfrwt beam="2">  1       -1 0.86892885E-01 0.19660918E+04</pdfrwt>
<totfact> 0.56863978E+00</totfact>
</mgrwt>
</event>
<event>
12    1  0.1980523E-007  0.2534930E+04  0.7818608E-02  0.8390646E-01
         -1   -1    0    0    0  501 -0.00000000000E+00  0.00000000000E+00  0.16040294381E+04  0.16040294381E+04  0.00000000000E+00 0.  1.
          1   -1    0    0  501    0  0.00000000000E+00 -0.00000000000E+00 -0.10015203024E+04  0.10015203024E+04  0.00000000000E+00 0. -1.
         23    2    1    2    0    0  0.16619767475E+03  0.10609562919E+04  0.53064789278E+03  0.12012388482E+04  0.90209001361E+02 0.  0.
        254    2    1    2    0    0 -0.16619767475E+03 -0.10609562919E+04  0.71861242934E+02  0.14043108923E+04  0.90203942467E+03 0.  0.
        -24    2    4    4    0    0 -0.20977337096E+03 -0.21012327164E+03 -0.33693720356E+03  0.45598785845E+03  0.79003743323E+02 0.  0.
         24    2    4    4    0    0  0.43575696217E+02 -0.85083302028E+03  0.40879844650E+03  0.94832303389E+03  0.79904549573E+02 0.  0.
         13    1    3    3    0    0  0.72336713130E+02  0.51319061964E+03  0.30558296255E+03  0.60164620763E+03  0.00000000000E+00 0.  1.
        -13    1    3    3    0    0  0.93860961616E+02  0.54776567227E+03  0.22506493024E+03  0.59959264059E+03  0.00000000000E+00 0. -1.
          2    1    6    6  502    0 -0.12878311171E+01  0.15973361779E+01  0.13488711710E+01  0.24554928807E+01  0.00000000000E+00 0. -1.
          3    1    5    5  503    0 -0.73205203466E+02 -0.59860252688E+02 -0.57864909363E+02  0.11086297579E+03  0.00000000000E+00 0. -1.
         -4    1    5    5    0  503 -0.13656816750E+03 -0.15026301895E+03 -0.27907229420E+03  0.34512488266E+03  0.00000000000E+00 0.  1.
         -1    1    6    6    0  502  0.44863527334E+02 -0.85243035646E+03  0.40744957533E+03  0.94586754100E+03  0.00000000000E+00 0.  1.
<mgrwt>
<rscale>  0 0.25349304E+04</rscale>
<asrwt>0</asrwt>
<pdfrwt beam="1">  1        1 0.15408005E+00 0.25349304E+04</pdfrwt>
<pdfrwt beam="2">  1       -1 0.24677376E+00 0.25349304E+04</pdfrwt>
<totfact> 0.97817288E-01</totfact>
</mgrwt>
</event>
<event>
12    1  0.1980523E-007  0.1460314E+04  0.7818608E-02  0.8911281E-01
          2   -1    0    0  501    0  0.00000000000E+00  0.00000000000E+00  0.11062512433E+04  0.11062512433E+04  0.00000000000E+00 0. -1.
         -2   -1    0    0    0  501 -0.00000000000E+00 -0.00000000000E+00 -0.48192437365E+03  0.48192437365E+03  0.00000000000E+00 0.  1.
         23    2    1    2    0    0  0.28578248778E+03 -0.48410668882E+02  0.56466244509E+03  0.64142070854E+03  0.92529050937E+02 0.  0.
        254    2    1    2    0    0 -0.28578248778E+03  0.48410668882E+02  0.59664424596E+02  0.94675490844E+03  0.89931629026E+03 0.  0.
        -24    2    4    4    0    0 -0.34195960612E+03  0.40682044755E+03  0.16239600389E+03  0.56136359531E+03  0.79481918087E+02 0.  0.
         24    2    4    4    0    0  0.56177118339E+02 -0.35840977867E+03 -0.10273157929E+03  0.38539131313E+03  0.79744898188E+02 0.  0.
         13    1    3    3    0    0  0.22714616871E+03 -0.46131769452E+02  0.35713818559E+03  0.42575956328E+03  0.00000000000E+00 0.  1.
        -13    1    3    3    0    0  0.58636319064E+02 -0.22788994301E+01  0.20752425950E+03  0.21566114527E+03  0.00000000000E+00 0. -1.
          4    1    6    6  502    0 -0.14368715186E+02 -0.62829945271E+02  0.49942262461E+00  0.64453948070E+02  0.00000000000E+00 0. -1.
          1    1    5    5  503    0 -0.66935633097E+02  0.73097309208E+02  0.63635126261E+02  0.11778380570E+03  0.00000000000E+00 0. -1.
         -2    1    5    5    0  503 -0.27502397302E+03  0.33372313834E+03  0.98760877625E+02  0.44357978961E+03  0.00000000000E+00 0.  1.
         -3    1    6    6    0  502  0.70545833525E+02 -0.29557983340E+03 -0.10323100191E+03  0.32093736506E+03  0.00000000000E+00 0.  1.
<mgrwt>
<rscale>  0 0.14603143E+04</rscale>
<asrwt>0</asrwt>
<pdfrwt beam="1">  1        2 0.17019250E+00 0.14603143E+04</pdfrwt>
<pdfrwt beam="2">  1       -2 0.74142211E-01 0.14603143E+04</pdfrwt>
<totfact> 0.34282016E+01</totfact>
</mgrwt>
</event>
<event>
12    1  0.1980523E-007  0.1469242E+04  0.7818608E-02  0.8905168E-01
         -2   -1    0    0    0  501 -0.00000000000E+00  0.00000000000E+00  0.29269618970E+03  0.29269618970E+03  0.00000000000E+00 0.  1.
          2   -1    0    0  501    0  0.00000000000E+00 -0.00000000000E+00 -0.18437834015E+04  0.18437834015E+04  0.00000000000E+00 0. -1.
         23    2    1    2    0    0  0.42180622310E+03 -0.11839810594E+03 -0.65411076923E+03  0.79253871588E+03  0.91203708386E+02 0.  0.
        254    2    1    2    0    0 -0.42180622310E+03  0.11839810594E+03 -0.89697644261E+03  0.13439408754E+04  0.89981761292E+03 0.  0.
        -24    2    4    4    0    0 -0.32200478732E+03  0.77631801542E+02  0.86921021966E+02  0.35117730034E+03  0.77823213454E+02 0.  0.
         24    2    4    4    0    0 -0.99801435779E+02  0.40766304402E+02 -0.98389746458E+03  0.99276357501E+03  0.76831483873E+02 0.  0.
         13    1    3    3    0    0  0.30601758871E+03 -0.97545517442E+02 -0.40383540943E+03  0.51598927361E+03  0.00000000000E+00 0. -1.
        -13    1    3    3    0    0  0.11578863439E+03 -0.20852588503E+02 -0.25027535980E+03  0.27654944227E+03  0.00000000000E+00 0.  1.
          4    1    6    6  502    0 -0.81346808764E+02  0.17492131870E+02 -0.89856779446E+03  0.90241196757E+03  0.00000000000E+00 0. -1.
          1    1    5    5  503    0 -0.28245453100E+03  0.40473202494E+02  0.80839847400E+02  0.29656992958E+03  0.00000000000E+00 0. -1.
         -2    1    5    5    0  503 -0.39550256318E+02  0.37158599048E+02  0.60811745658E+01  0.54607370768E+02  0.00000000000E+00 0.  1.
         -3    1    6    6    0  502 -0.18454627015E+02  0.23274172532E+02 -0.85329670120E+02  0.90351607446E+02  0.00000000000E+00 0.  1.
<mgrwt>
<rscale>  0 0.14692425E+04</rscale>
<asrwt>0</asrwt>
<pdfrwt beam="1">  1        2 0.28365898E+00 0.14692425E+04</pdfrwt>
<pdfrwt beam="2">  1       -2 0.45030184E-01 0.14692425E+04</pdfrwt>
<totfact> 0.36956285E+01</totfact>
</mgrwt>
</event>
<event>
12    1  0.1980523E-007  0.1091985E+04  0.7818608E-02  0.9213039E-01
         -1   -1    0    0    0  501 -0.00000000000E+00  0.00000000000E+00  0.22397721001E+03  0.22397721001E+03  0.00000000000E+00 0.  1.
          1   -1    0    0  501    0  0.00000000000E+00 -0.00000000000E+00 -0.13309748809E+04  0.13309748809E+04  0.00000000000E+00 0. -1.
         23    2    1    2    0    0  0.88817564924E+02  0.10348686483E+03 -0.28418123593E+03  0.32780980177E+03  0.90012222785E+02 0.  0.
        254    2    1    2    0    0 -0.88817564924E+02 -0.10348686483E+03 -0.82281643497E+03  0.12271422892E+04  0.90014066743E+03 0.  0.
        -24    2    4    4    0    0 -0.96096457030E+02 -0.39402993345E+03 -0.82861167659E+03  0.92597287339E+03  0.79588530405E+02 0.  0.
         24    2    4    4    0    0  0.72788921062E+01  0.29054306862E+03  0.57952416186E+01  0.30116941577E+03  0.78747540746E+02 0.  0.
         13    1    3    3    0    0  0.11368008052E+02 -0.13084816838E+02 -0.68808264668E+02  0.70957884166E+02  0.00000000000E+00 0. -1.
        -13    1    3    3    0    0  0.77449556872E+02  0.11657168167E+03 -0.21537297127E+03  0.25685191761E+03  0.00000000000E+00 0.  1.
          2    1    6    6  502    0  0.13162784894E+02  0.21479701180E+02  0.19251110930E+02  0.31705547480E+02  0.00000000000E+00 0. -1.
          3    1    5    5  503    0  0.58552421839E+01 -0.11986966199E+03 -0.26787464510E+03  0.29352997328E+03  0.00000000000E+00 0. -1.
         -4    1    5    5    0  503 -0.10195169921E+03 -0.27416027147E+03 -0.56073703149E+03  0.63244290012E+03  0.00000000000E+00 0.  1.
         -1    1    6    6    0  502 -0.58838927876E+01  0.26906336744E+03 -0.13455869312E+02  0.26946386829E+03  0.00000000000E+00 0.  1.
<mgrwt>
<rscale>  0 0.10919854E+04</rscale>
<asrwt>0</asrwt>
<pdfrwt beam="1">  1        1 0.20476537E+00 0.10919854E+04</pdfrwt>
<pdfrwt beam="2">  1       -1 0.34458032E-01 0.10919854E+04</pdfrwt>
<totfact> 0.68351576E+01</totfact>
</mgrwt>
</event>
<event>
12    1  0.1980523E-007  0.3378049E+04  0.7818608E-02  0.8143315E-01
         -2   -1    0    0    0  501 -0.00000000000E+00  0.00000000000E+00  0.17787165082E+04  0.17787165082E+04  0.00000000000E+00 0.  1.
          2   -1    0    0  501    0  0.00000000000E+00 -0.00000000000E+00 -0.16038551300E+04  0.16038551300E+04  0.00000000000E+00 0. -1.
         23    2    1    2    0    0 -0.14184119777E+04 -0.66970759202E+03  0.76055163774E+02  0.15730338046E+04  0.90830420143E+02 0.  0.
        254    2    1    2    0    0  0.14184119777E+04  0.66970759202E+03  0.98806214407E+02  0.18095378335E+04  0.89680750767E+03 0.  0.
        -24    2    4    4    0    0  0.43710546479E+03  0.64742527843E+03 -0.13738378263E+03  0.79691871235E+03  0.77359239086E+02 0.  0.
         24    2    4    4    0    0  0.98130651289E+03  0.22282313592E+02  0.23618999704E+03  0.10126191212E+04  0.78439761469E+02 0.  0.
         11    1    3    3    0    0 -0.96845775590E+03 -0.49487415179E+03  0.28148646677E+02  0.10879352910E+04  0.00000000000E+00 0. -1.
        -11    1    3    3    0    0 -0.44995422178E+03 -0.17483344023E+03  0.47906517098E+02  0.48509851360E+03  0.00000000000E+00 0.  1.
          4    1    6    6  502    0  0.88156918353E+03  0.26970319225E+02  0.18819965615E+03  0.90183742107E+03  0.00000000000E+00 0. -1.
          3    1    5    5  503    0  0.39704579469E+03  0.54268607427E+03 -0.12687709610E+03  0.68428892714E+03  0.00000000000E+00 0. -1.
         -4    1    5    5    0  503  0.40059670101E+02  0.10473920415E+03 -0.10506686533E+02  0.11262978521E+03  0.00000000000E+00 0.  1.
         -3    1    6    6    0  502  0.99737329357E+02 -0.46880056332E+01  0.47990340892E+02  0.11078170013E+03  0.00000000000E+00 0.  1.
<mgrwt>
<rscale>  0 0.33780489E+04</rscale>
<asrwt>0</asrwt>
<pdfrwt beam="1">  1        2 0.24674694E+00 0.33780489E+04</pdfrwt>
<pdfrwt beam="2">  1       -2 0.27364870E+00 0.33780489E+04</pdfrwt>
<totfact> 0.42401994E-01</totfact>
</mgrwt>
</event>
<event>
12    1  0.1980523E-007  0.2405701E+04  0.7818608E-02  0.8437372E-01
          2   -1    0    0  501    0  0.00000000000E+00  0.00000000000E+00  0.53854430215E+03  0.53854430215E+03  0.00000000000E+00 0. -1.
         -2   -1    0    0    0  501 -0.00000000000E+00 -0.00000000000E+00 -0.26865925798E+04  0.26865925798E+04  0.00000000000E+00 0.  1.
         23    2    1    2    0    0  0.28272226159E+03 -0.97502147960E+03 -0.67138152151E+03  0.12202431188E+04  0.87414865844E+02 0.  0.
        254    2    1    2    0    0 -0.28272226159E+03  0.97502147960E+03 -0.14766667561E+04  0.20048937631E+04  0.89914155158E+03 0.  0.
        -24    2    4    4    0    0 -0.12224311363E+03 -0.76910896120E+02 -0.60533751364E+03  0.62748120585E+03  0.80252685358E+02 0.  0.
         24    2    4    4    0    0 -0.16047914796E+03  0.10519323757E+04 -0.87132924247E+03  0.13774125572E+04  0.75732582295E+02 0.  0.
         13    1    3    3    0    0  0.16752110559E+03 -0.67884419770E+03 -0.42622121034E+03  0.81887562286E+03  0.00000000000E+00 0. -1.
        -13    1    3    3    0    0  0.11520115599E+03 -0.29617728190E+03 -0.24516031116E+03  0.40136749597E+03  0.00000000000E+00 0.  1.
          2    1    6    6  502    0 -0.21877971017E+02  0.38011218975E+03 -0.31934986627E+03  0.49693888910E+03  0.00000000000E+00 0. -1.
          1    1    5    5  503    0  0.10448509509E+02 -0.16191942906E+02 -0.66861681648E+02  0.69583294250E+02  0.00000000000E+00 0. -1.
         -2    1    5    5    0  503 -0.13269162314E+03 -0.60718953214E+02 -0.53847583199E+03  0.55789791160E+03  0.00000000000E+00 0.  1.
         -1    1    6    6    0  502 -0.13860117694E+03  0.67182018597E+03 -0.55197937620E+03  0.88047366813E+03  0.00000000000E+00 0.  1.
<mgrwt>
<rscale>  0 0.24057008E+04</rscale>
<asrwt>0</asrwt>
<pdfrwt beam="1">  1        2 0.82852969E-01 0.24057008E+04</pdfrwt>
<pdfrwt beam="2">  1       -2 0.41332194E+00 0.24057008E+04</pdfrwt>
<totfact> 0.30800551E-01</totfact>
</mgrwt>
</event>
<event>
12    1  0.1980523E-007  0.1996121E+04  0.7818608E-02  0.8608436E-01
          1   -1    0    0  501    0  0.00000000000E+00  0.00000000000E+00  0.28206787354E+04  0.28206787354E+04  0.00000000000E+00 0. -1.
         -1   -1    0    0    0  501 -0.00000000000E+00 -0.00000000000E+00 -0.35315076207E+03  0.35315076207E+03  0.00000000000E+00 0.  1.
         23    2    1    2    0    0 -0.13137067630E+03 -0.77639663797E+03  0.11115170356E+04  0.13651373887E+04  0.89888684659E+02 0.  0.
        254    2    1    2    0    0  0.13137067630E+03  0.77639663797E+03  0.13560109378E+04  0.18086921088E+04  0.90141637821E+03 0.  0.
        -24    2    4    4    0    0  0.15905238387E+01  0.71164611127E+03  0.14507106137E+04  0.16177798193E+04  0.78787952333E+02 0.  0.
         24    2    4    4    0    0  0.12978015247E+03  0.64750526708E+02 -0.94699675925E+02  0.19091228952E+03  0.80274248584E+02 0.  0.
         13    1    3    3    0    0 -0.99605420005E+02 -0.51587082004E+03  0.80901655409E+03  0.96465109104E+03  0.00000000000E+00 0.  1.
        -13    1    3    3    0    0 -0.31765256300E+02 -0.26052581793E+03  0.30250048147E+03  0.40048629766E+03  0.00000000000E+00 0. -1.
          2    1    6    6  502    0  0.40813846317E+02  0.20291763189E+02  0.98298762369E+01  0.46627804703E+02  0.00000000000E+00 0. -1.
          1    1    5    5  503    0 -0.14371111935E+02  0.17355782851E+03  0.28926904845E+03  0.33764690297E+03  0.00000000000E+00 0. -1.
         -2    1    5    5    0  503  0.15961635774E+02  0.53808828276E+03  0.11614415653E+04  0.12801329163E+04  0.00000000000E+00 0.  1.
         -1    1    6    6    0  502  0.88966306149E+02  0.44458763519E+02 -0.10452955216E+03  0.14428448482E+03  0.00000000000E+00 0.  1.
<mgrwt>
<rscale>  0 0.19961211E+04</rscale>
<asrwt>0</asrwt>
<pdfrwt beam="1">  1        1 0.43395056E+00 0.19961211E+04</pdfrwt>
<pdfrwt beam="2">  1       -1 0.54330888E-01 0.19961211E+04</pdfrwt>
<totfact> 0.25607941E+00</totfact>
</mgrwt>
</event>
<event>
12    1  0.1980523E-007  0.1075719E+04  0.7818608E-02  0.9229186E-01
         -2   -1    0    0    0  501 -0.00000000000E+00  0.00000000000E+00  0.56646374388E+03  0.56646374388E+03  0.00000000000E+00 0.  1.
          2   -1    0    0  501    0  0.00000000000E+00 -0.00000000000E+00 -0.51069998319E+03  0.51069998319E+03  0.00000000000E+00 0. -1.
         23    2    1    2    0    0  0.36401000186E+01 -0.14535020754E+03  0.30528095825E+02  0.16408249709E+03  0.69650327043E+02 0.  0.
        254    2    1    2    0    0 -0.36401000186E+01  0.14535020754E+03  0.25235664860E+02  0.91308122998E+03  0.90107744429E+03 0.  0.
        -24    2    4    4    0    0 -0.34343623266E+02  0.51974958469E+03  0.41057952398E+02  0.52874942215E+03  0.81062202805E+02 0.  0.
         24    2    4    4    0    0  0.30703523248E+02 -0.37439937715E+03 -0.15822287538E+02  0.38433180783E+03  0.79642914149E+02 0.  0.
         13    1    3    3    0    0  0.70190396013E+01 -0.11981487557E+03 -0.50881710487E+01  0.12012810166E+03  0.00000000000E+00 0. -1.
        -13    1    3    3    0    0 -0.33789395827E+01 -0.25535331973E+02  0.35616266874E+02  0.43954395431E+02  0.00000000000E+00 0.  1.
          2    1    6    6  502    0 -0.10974585908E+02 -0.21628116737E+02  0.13747407075E+02  0.27878453521E+02  0.00000000000E+00 0. -1.
          1    1    5    5  503    0  0.18058683305E+02  0.71881875081E+02 -0.10628971376E+02  0.74873860862E+02  0.00000000000E+00 0. -1.
         -2    1    5    5    0  503 -0.52402306571E+02  0.44786770961E+03  0.51686923774E+02  0.45387556129E+03  0.00000000000E+00 0.  1.
         -1    1    6    6    0  502  0.41678109156E+02 -0.35277126041E+03 -0.29569694612E+02  0.35645335431E+03  0.00000000000E+00 0.  1.
<mgrwt>
<rscale>  0 0.10757193E+04</rscale>
<asrwt>0</asrwt>
<pdfrwt beam="1">  1        2 0.78569228E-01 0.10757193E+04</pdfrwt>
<pdfrwt beam="2">  1       -2 0.87148268E-01 0.10757193E+04</pdfrwt>
<totfact> 0.68018046E+01</totfact>
</mgrwt>
</event>
<event>
12    1  0.1980523E-007  0.1522417E+04  0.7818608E-02  0.8869681E-01
          2   -1    0    0  501    0  0.00000000000E+00  0.00000000000E+00  0.23752218026E+04  0.23752218026E+04  0.00000000000E+00 0. -1.
         -2   -1    0    0    0  501 -0.00000000000E+00 -0.00000000000E+00 -0.24395127648E+03  0.24395127648E+03  0.00000000000E+00 0.  1.
         23    2    1    2    0    0 -0.81826647103E+02 -0.48215172983E+03  0.70437640391E+03  0.86251793718E+03  0.92871862305E+02 0.  0.
        254    2    1    2    0    0  0.81826647103E+02  0.48215172983E+03  0.14268941222E+04  0.17566551419E+04  0.90035801812E+03 0.  0.
        -24    2    4    4    0    0  0.10594931722E+03  0.68835788422E+03  0.67719369199E+03  0.97463515827E+03  0.79123704890E+02 0.  0.
         24    2    4    4    0    0 -0.24122670115E+02 -0.20620615439E+03  0.74970043020E+03  0.78201998361E+03  0.80010239344E+02 0.  0.
         11    1    3    3    0    0 -0.41146019645E+02 -0.33863740875E+03  0.41719384404E+03  0.53890536557E+03  0.00000000000E+00 0.  1.
        -11    1    3    3    0    0 -0.40680627457E+02 -0.14351432108E+03  0.28718255987E+03  0.32361257161E+03  0.00000000000E+00 0. -1.
          2    1    6    6  502    0 -0.28898282202E+02 -0.19435207089E+02  0.94959999177E+02  0.10114464609E+03  0.00000000000E+00 0. -1.
          3    1    5    5  503    0  0.37326359491E+01  0.23779083582E+03  0.20452153461E+03  0.31366777375E+03  0.00000000000E+00 0. -1.
         -4    1    5    5    0  503  0.10221668127E+03  0.45056704841E+03  0.47267215738E+03  0.66096738452E+03  0.00000000000E+00 0.  1.
         -1    1    6    6    0  502  0.47756120865E+01 -0.18677094730E+03  0.65474043102E+03  0.68087533752E+03  0.00000000000E+00 0.  1.
<mgrwt>
<rscale>  0 0.15224170E+04</rscale>
<asrwt>0</asrwt>
<pdfrwt beam="1">  1        2 0.36541872E+00 0.15224170E+04</pdfrwt>
<pdfrwt beam="2">  1       -2 0.37530967E-01 0.15224170E+04</pdfrwt>
<totfact> 0.26580509E+01</totfact>
</mgrwt>
</event>
<event>
12    1  0.1980523E-007  0.1499186E+04  0.7818608E-02  0.8884994E-01
         -2   -1    0    0    0  501 -0.00000000000E+00  0.00000000000E+00  0.30086322987E+03  0.30086322987E+03  0.00000000000E+00 0. -1.
          2   -1    0    0  501    0  0.00000000000E+00 -0.00000000000E+00 -0.18675927409E+04  0.18675927409E+04  0.00000000000E+00 0.  1.
         23    2    1    2    0    0 -0.96815869344E+02 -0.46241566139E+03 -0.52904625864E+03  0.71503191443E+03  0.90438589214E+02 0.  0.
        254    2    1    2    0    0  0.96815869344E+02  0.46241566139E+03 -0.10376832524E+04  0.14534240564E+04  0.90136196882E+03 0.  0.
        -24    2    4    4    0    0  0.41422885587E+03  0.42325438897E+03 -0.93272683013E+03  0.11078339738E+04  0.81160033675E+02 0.  0.
         24    2    4    4    0    0 -0.31741298653E+03  0.39161272419E+02 -0.10495642228E+03  0.34559008255E+03  0.78307377091E+02 0.  0.
         13    1    3    3    0    0 -0.70144611610E+02 -0.13401032134E+03 -0.15532643478E+03  0.21680713573E+03  0.00000000000E+00 0. -1.
        -13    1    3    3    0    0 -0.26671257734E+02 -0.32840534005E+03 -0.37371982386E+03  0.49822477870E+03  0.00000000000E+00 0.  1.
          2    1    6    6  502    0 -0.35689410260E+02  0.17262838892E+02 -0.38594493411E+02  0.55328785754E+02  0.00000000000E+00 0. -1.
          1    1    5    5  503    0  0.13825797515E+03  0.91198759962E+02 -0.24146693364E+03  0.29281181935E+03  0.00000000000E+00 0. -1.
         -2    1    5    5    0  503  0.27597088072E+03  0.33205562901E+03 -0.69125989649E+03  0.81502215446E+03  0.00000000000E+00 0.  1.
         -1    1    6    6    0  502 -0.28172357627E+03  0.21898433527E+02 -0.66361928871E+02  0.29026129680E+03  0.00000000000E+00 0.  1.
<mgrwt>
<rscale>  0 0.14991864E+04</rscale>
<asrwt>0</asrwt>
<pdfrwt beam="1">  1        2 0.28732196E+00 0.14991864E+04</pdfrwt>
<pdfrwt beam="2">  1       -2 0.46286651E-01 0.14991864E+04</pdfrwt>
<totfact> 0.33846131E+01</totfact>
</mgrwt>
</event>
<event>
12    1  0.1980523E-007  0.1992502E+04  0.7818608E-02  0.8610134E-01
         -1   -1    0    0    0  501 -0.00000000000E+00  0.00000000000E+00  0.18255717138E+04  0.18255717138E+04  0.00000000000E+00 0.  1.
          1   -1    0    0  501    0  0.00000000000E+00 -0.00000000000E+00 -0.54367406162E+03  0.54367406162E+03  0.00000000000E+00 0. -1.
         23    2    1    2    0    0  0.76556103525E+03 -0.89496268934E+02  0.34117518470E+03  0.84767664778E+03  0.89788148921E+02 0.  0.
        254    2    1    2    0    0 -0.76556103525E+03  0.89496268934E+02  0.94072246743E+03  0.15215691276E+04  0.91439628636E+03 0.  0.
        -24    2    4    4    0    0 -0.43080348410E+03  0.78914758212E+01  0.10609346684E+04  0.11479513247E+04  0.80968857588E+02 0.  0.
         24    2    4    4    0    0 -0.33475755114E+03  0.81604793113E+02 -0.12021220101E+03  0.37361780290E+03  0.80108233440E+02 0.  0.
         11    1    3    3    0    0  0.49212082416E+03 -0.30608477635E+02  0.25429901876E+03  0.55478624300E+03  0.00000000000E+00 0.  1.
        -11    1    3    3    0    0  0.27344021109E+03 -0.58887791299E+02  0.86876165941E+02  0.29289040478E+03  0.00000000000E+00 0. -1.
          2    1    6    6  502    0 -0.14781246980E+03  0.32901894001E+02 -0.95079503441E+02  0.17880484566E+03  0.00000000000E+00 0. -1.
          1    1    5    5  503    0 -0.35812211404E+03  0.31001944006E+01  0.94976824012E+03  0.10150471761E+04  0.00000000000E+00 0. -1.
         -2    1    5    5    0  503 -0.72681370062E+02  0.47912814206E+01  0.11116642831E+03  0.13290414860E+03  0.00000000000E+00 0.  1.
         -1    1    6    6    0  502 -0.18694508134E+03  0.48702899112E+02 -0.25132697564E+02  0.19481295724E+03  0.00000000000E+00 0.  1.
<mgrwt>
<rscale>  0 0.19925019E+04</rscale>
<asrwt>0</asrwt>
<pdfrwt beam="1">  1        1 0.83642164E-01 0.19925019E+04</pdfrwt>
<pdfrwt beam="2">  1       -1 0.28085718E+00 0.19925019E+04</pdfrwt>
<totfact> 0.16089255E+00</totfact>
</mgrwt>
</event>
<event>
12    1  0.1980523E-007  0.2082243E+04  0.7818608E-02  0.8569106E-01
         -2   -1    0    0    0  501 -0.00000000000E+00  0.00000000000E+00  0.11899709537E+04  0.11899709537E+04  0.00000000000E+00 0.  1.
          2   -1    0    0  501    0  0.00000000000E+00 -0.00000000000E+00 -0.91089146082E+03  0.91089146082E+03  0.00000000000E+00 0. -1.
         23    2    1    2    0    0  0.42024022899E+03 -0.50986194805E+03  0.64623211775E+03  0.92865274186E+03  0.90658197728E+02 0.  0.
        254    2    1    2    0    0 -0.42024022899E+03  0.50986194805E+03 -0.36715262492E+03  0.11722096726E+04  0.89594274954E+03 0.  0.
        -24    2    4    4    0    0 -0.55133866859E+03  0.47465792204E+03  0.42539065995E+02  0.73327699658E+03  0.81308739643E+02 0.  0.
         24    2    4    4    0    0  0.13109843959E+03  0.35204026013E+02 -0.40969169091E+03  0.43893267603E+03  0.79928018716E+02 0.  0.
         13    1    3    3    0    0  0.14370927825E+03 -0.15209460537E+03  0.15101992464E+03  0.25805453546E+03  0.00000000000E+00 0. -1.
        -13    1    3    3    0    0  0.27653095075E+03 -0.35776734268E+03  0.49521219312E+03  0.67059820640E+03  0.00000000000E+00 0.  1.
          4    1    6    6  502    0  0.38329973053E+02 -0.64493021158E+01 -0.22281275556E+03  0.22617759476E+03  0.00000000000E+00 0. -1.
          3    1    5    5  503    0 -0.12538357688E+03  0.11579901171E+03 -0.23958181009E+02  0.17234978069E+03  0.00000000000E+00 0. -1.
         -4    1    5    5    0  503 -0.42595509170E+03  0.35885891033E+03  0.66497247004E+02  0.56092721589E+03  0.00000000000E+00 0.  1.
         -3    1    6    6    0  502  0.92768466541E+02  0.41653328128E+02 -0.18687893535E+03  0.21275508127E+03  0.00000000000E+00 0.  1.
<mgrwt>
<rscale>  0 0.20822434E+04</rscale>
<asrwt>0</asrwt>
<pdfrwt beam="1">  1        2 0.14013715E+00 0.20822434E+04</pdfrwt>
<pdfrwt beam="2">  1       -2 0.18307246E+00 0.20822434E+04</pdfrwt>
<totfact> 0.45935033E+00</totfact>
</mgrwt>
</event>
<event>
12    1  0.1980523E-007  0.3165288E+04  0.7818608E-02  0.8198045E-01
         -2   -1    0    0    0  501 -0.00000000000E+00  0.00000000000E+00  0.14555860089E+04  0.14555860089E+04  0.00000000000E+00 0.  1.
          2   -1    0    0  501    0  0.00000000000E+00 -0.00000000000E+00 -0.17207933406E+04  0.17207933406E+04  0.00000000000E+00 0. -1.
         23    2    1    2    0    0 -0.13602218458E+04  0.36556927802E+02  0.39358061250E+03  0.14193459818E+04  0.89985769559E+02 0.  0.
        254    2    1    2    0    0  0.13602218458E+04 -0.36556927802E+02 -0.65878794429E+03  0.17570333677E+04  0.89533503275E+03 0.  0.
        -24    2    4    4    0    0  0.75639005398E+03 -0.34990722957E+03 -0.46353357993E+02  0.83868139654E+03  0.81712104608E+02 0.  0.
         24    2    4    4    0    0  0.60383179184E+03  0.31335030177E+03 -0.61243458630E+03  0.91835197116E+03  0.74114613894E+02 0.  0.
         11    1    3    3    0    0 -0.75100373179E+03  0.46654919116E+02  0.25497182285E+03  0.79447713440E+03  0.00000000000E+00 0.  1.
        -11    1    3    3    0    0 -0.60921811403E+03 -0.10097991314E+02  0.13860878965E+03  0.62486884741E+03  0.00000000000E+00 0. -1.
          2    1    6    6  502    0  0.64092900819E+02  0.53591582614E+02 -0.54390437937E+02  0.99690909322E+02  0.00000000000E+00 0. -1.
          1    1    5    5  503    0  0.34237899534E+03 -0.14799216889E+03  0.18819793502E+02  0.37346919971E+03  0.00000000000E+00 0. -1.
         -2    1    5    5    0  503  0.41401105864E+03 -0.20191506068E+03 -0.65173151495E+02  0.46521219683E+03  0.00000000000E+00 0.  1.
         -1    1    6    6    0  502  0.53973889102E+03  0.25975871915E+03 -0.55804414836E+03  0.81866106184E+03  0.00000000000E+00 0.  1.
<mgrwt>
<rscale>  0 0.31652884E+04</rscale>
<asrwt>0</asrwt>
<pdfrwt beam="1">  1        2 0.26473744E+00 0.31652884E+04</pdfrwt>
<pdfrwt beam="2">  1       -2 0.22393631E+00 0.31652884E+04</pdfrwt>
<totfact> 0.75268324E-01</totfact>
</mgrwt>
</event>
<event>
12    1  0.1980523E-007  0.2897516E+04  0.7818608E-02  0.8273617E-01
         -1   -1    0    0    0  501 -0.00000000000E+00  0.00000000000E+00  0.57956277083E+03  0.57956277083E+03  0.00000000000E+00 0.  1.
          1   -1    0    0  501    0  0.00000000000E+00 -0.00000000000E+00 -0.36215226082E+04  0.36215226082E+04  0.00000000000E+00 0. -1.
         23    2    1    2    0    0  0.48313039452E+03 -0.92114186460E+03 -0.25235317649E+04  0.27310164926E+04  0.91220621006E+02 0.  0.
        254    2    1    2    0    0 -0.48313039452E+03  0.92114186460E+03 -0.51842807252E+03  0.14700688865E+04  0.90023194329E+03 0.  0.
        -24    2    4    4    0    0 -0.23823202096E+03 -0.11130248000E+03 -0.25250432990E+03  0.37331251547E+03  0.80380717382E+02 0.  0.
         24    2    4    4    0    0 -0.24489837356E+03  0.10324443446E+04 -0.26592374262E+03  0.10967563710E+04  0.79009887501E+02 0.  0.
         11    1    3    3    0    0  0.36902392586E+03 -0.64505649825E+03 -0.18788199842E+04  0.20204556607E+04  0.00000000000E+00 0. -1.
        -11    1    3    3    0    0  0.11410646866E+03 -0.27608536635E+03 -0.64471178070E+03  0.71056083193E+03  0.00000000000E+00 0.  1.
          4    1    6    6  502    0 -0.24201104891E+03  0.97742488099E+03 -0.26668048381E+03  0.10416560019E+04  0.00000000000E+00 0. -1.
          3    1    5    5  503    0 -0.14716054217E+03 -0.10890405600E+03 -0.18163386932E+03  0.25788986228E+03  0.00000000000E+00 0. -1.
         -4    1    5    5    0  503 -0.91071478790E+02 -0.23984240033E+01 -0.70870460575E+02  0.11542265319E+03  0.00000000000E+00 0.  1.
         -3    1    6    6    0  502 -0.28873246585E+01  0.55019463611E+02  0.75674118796E+00  0.55100369118E+02  0.00000000000E+00 0.  1.
<mgrwt>
<rscale>  0 0.28975160E+04</rscale>
<asrwt>0</asrwt>
<pdfrwt beam="1">  1        1 0.55715733E+00 0.28975160E+04</pdfrwt>
<pdfrwt beam="2">  1       -1 0.89163503E-01 0.28975160E+04</pdfrwt>
<totfact> 0.21148827E-01</totfact>
</mgrwt>
</event>
<event>
12    1  0.1980523E-007  0.1631759E+04  0.7818608E-02  0.8801271E-01
          2   -1    0    0  501    0  0.00000000000E+00  0.00000000000E+00  0.18370435323E+04  0.18370435323E+04  0.00000000000E+00 0. -1.
         -2   -1    0    0    0  501 -0.00000000000E+00 -0.00000000000E+00 -0.36235355856E+03  0.36235355856E+03  0.00000000000E+00 0.  1.
         23    2    1    2    0    0 -0.49863023718E+03  0.15452960891E+03  0.80284771600E+03  0.96197535794E+03  0.91217436564E+02 0.  0.
        254    2    1    2    0    0  0.49863023718E+03 -0.15452960891E+03  0.67184225770E+03  0.12374217329E+04  0.89851489265E+03 0.  0.
        -24    2    4    4    0    0  0.28365372292E+03 -0.31329057704E+03 -0.78153095645E+02  0.43727041475E+03  0.80542467477E+02 0.  0.
         24    2    4    4    0    0  0.21497651426E+03  0.15876096813E+03  0.74999535334E+03  0.80015131813E+03  0.79555987739E+02 0.  0.
         11    1    3    3    0    0 -0.29287209382E+03  0.11621216625E+03  0.41266254442E+03  0.51920102705E+03  0.00000000000E+00 0.  1.
        -11    1    3    3    0    0 -0.20575814336E+03  0.38317442653E+02  0.39018517158E+03  0.44277433089E+03  0.00000000000E+00 0. -1.
          2    1    6    6  502    0  0.47562546160E+02  0.55923151608E+01  0.85729009146E+02  0.98198435808E+02  0.00000000000E+00 0. -1.
          1    1    5    5  503    0  0.15049568761E+03 -0.22411309323E+03 -0.50709663840E+02  0.27467635601E+03  0.00000000000E+00 0. -1.
         -2    1    5    5    0  503  0.13315803531E+03 -0.89177483808E+02 -0.27443431804E+02  0.16259405873E+03  0.00000000000E+00 0.  1.
         -1    1    6    6    0  502  0.16741396810E+03  0.15316865297E+03  0.66426634420E+03  0.70195288233E+03  0.00000000000E+00 0.  1.
<mgrwt>
<rscale>  0 0.16317589E+04</rscale>
<asrwt>0</asrwt>
<pdfrwt beam="1">  1        2 0.28262208E+00 0.16317589E+04</pdfrwt>
<pdfrwt beam="2">  1       -2 0.55746702E-01 0.16317589E+04</pdfrwt>
<totfact> 0.23796332E+01</totfact>
</mgrwt>
</event>
<event>
12    1  0.1980523E-007  0.2303404E+04  0.7818608E-02  0.8476580E-01
         -2   -1    0    0    0  501 -0.00000000000E+00  0.00000000000E+00  0.95522343641E+03  0.95522343641E+03  0.00000000000E+00 0.  1.
          2   -1    0    0  501    0  0.00000000000E+00 -0.00000000000E+00 -0.13885943671E+04  0.13885943671E+04  0.00000000000E+00 0. -1.
         23    2    1    2    0    0 -0.36696758120E+03  0.52566450830E+02 -0.10996070370E+04  0.11640306964E+04  0.91669999610E+02 0.  0.
        254    2    1    2    0    0  0.36696758120E+03 -0.52566450830E+02  0.66623610633E+03  0.11797871071E+04  0.90033251157E+03 0.  0.
        -24    2    4    4    0    0  0.45828322890E+03  0.22395836992E+03  0.70781571905E+03  0.87616337179E+03  0.80487841190E+02 0.  0.
         24    2    4    4    0    0 -0.91315647705E+02 -0.27652482075E+03 -0.41579612721E+02  0.30362373535E+03  0.75192981506E+02 0.  0.
         13    1    3    3    0    0 -0.10354097146E+03  0.11720685222E+02 -0.44892834486E+03  0.46086306649E+03  0.00000000000E+00 0. -1.
        -13    1    3    3    0    0 -0.26342660974E+03  0.40845765608E+02 -0.65067869217E+03  0.70316762990E+03  0.00000000000E+00 0.  1.
          2    1    6    6  502    0 -0.44322528719E+01  0.41917196068E+01  0.22829371023E+01  0.65136150175E+01  0.00000000000E+00 0. -1.
          3    1    5    5  503    0  0.10157507446E+03  0.15510416503E+02  0.15662975964E+03  0.18732578674E+03  0.00000000000E+00 0. -1.
         -4    1    5    5    0  503  0.35670815444E+03  0.20844795342E+03  0.55118595941E+03  0.68883758505E+03  0.00000000000E+00 0.  1.
         -1    1    6    6    0  502 -0.86883394833E+02 -0.28071654035E+03 -0.43862549823E+02  0.29711012033E+03  0.00000000000E+00 0.  1.
<mgrwt>
<rscale>  0 0.23034043E+04</rscale>
<asrwt>0</asrwt>
<pdfrwt beam="1">  1        2 0.21362990E+00 0.23034043E+04</pdfrwt>
<pdfrwt beam="2">  1       -2 0.14695745E+00 0.23034043E+04</pdfrwt>
<totfact> 0.42122710E+00</totfact>
</mgrwt>
</event>
<event>
12    1  0.1980523E-007  0.1721466E+04  0.7818608E-02  0.8749215E-01
          2   -1    0    0  501    0  0.00000000000E+00  0.00000000000E+00  0.12364918170E+04  0.12364918170E+04  0.00000000000E+00 0. -1.
         -2   -1    0    0    0  501 -0.00000000000E+00 -0.00000000000E+00 -0.59916415764E+03  0.59916415764E+03  0.00000000000E+00 0.  1.
         23    2    1    2    0    0 -0.30633545684E+02 -0.37258591148E+03 -0.29677336610E+03  0.48593878853E+03  0.91122992816E+02 0.  0.
        254    2    1    2    0    0  0.30633545684E+02  0.37258591148E+03  0.93410102550E+03  0.13497171861E+04  0.89968498998E+03 0.  0.
        -24    2    4    4    0    0  0.27200082443E+03 -0.11369664186E+03  0.67822458540E+03  0.74419516366E+03  0.83225467920E+02 0.  0.
         24    2    4    4    0    0 -0.24136727875E+03  0.48628255334E+03  0.25587644010E+03  0.60552202249E+03  0.80344770766E+02 0.  0.
         11    1    3    3    0    0 -0.82494415324E+01 -0.17763983738E+03 -0.19840358967E+03  0.26643563857E+03  0.00000000000E+00 0.  1.
        -11    1    3    3    0    0 -0.22384104152E+02 -0.19494607411E+03 -0.98369776434E+02  0.21950314996E+03  0.00000000000E+00 0. -1.
          2    1    6    6  502    0 -0.15749945259E+03  0.39264869007E+03  0.20035745540E+03  0.46810488281E+03  0.00000000000E+00 0. -1.
          3    1    5    5  503    0  0.23523989986E+03 -0.11977234267E+03  0.63136269586E+03  0.68432600293E+03  0.00000000000E+00 0. -1.
         -4    1    5    5    0  503  0.36760924571E+02  0.60757008115E+01  0.46861889536E+02  0.59869160730E+02  0.00000000000E+00 0.  1.
         -3    1    6    6    0  502 -0.83867826152E+02  0.93633863276E+02  0.55518984699E+02  0.13741713968E+03  0.00000000000E+00 0.  1.
<mgrwt>
<rscale>  0 0.17214663E+04</rscale>
<asrwt>0</asrwt>
<pdfrwt beam="1">  1        2 0.19022951E+00 0.17214663E+04</pdfrwt>
<pdfrwt beam="2">  1       -2 0.92179102E-01 0.17214663E+04</pdfrwt>
<totfact> 0.17114523E+01</totfact>
</mgrwt>
</event>
<event>
12    1  0.1980523E-007  0.1742961E+04  0.7818608E-02  0.8737234E-01
          1   -1    0    0  501    0  0.00000000000E+00  0.00000000000E+00  0.17516444252E+04  0.17516444252E+04  0.00000000000E+00 0. -1.
         -1   -1    0    0    0  501 -0.00000000000E+00 -0.00000000000E+00 -0.43358026901E+03  0.43358026901E+03  0.00000000000E+00 0.  1.
         23    2    1    2    0    0 -0.38463400349E+03  0.26217390426E+03  0.10242956750E+04  0.11287131419E+04  0.90184556390E+02 0.  0.
        254    2    1    2    0    0  0.38463400349E+03 -0.26217390426E+03  0.29376848125E+03  0.10565115523E+04  0.90179724271E+03 0.  0.
        -24    2    4    4    0    0  0.65042142054E+03 -0.32114331324E+03  0.23540427841E+03  0.76676523376E+03  0.79578247481E+02 0.  0.
         24    2    4    4    0    0 -0.26578741706E+03  0.58969408976E+02  0.58364202842E+02  0.28974631859E+03  0.80163624543E+02 0.  0.
         11    1    3    3    0    0 -0.24746241614E+02  0.26076841783E+02  0.14951381953E+03  0.15377503172E+03  0.00000000000E+00 0. -1.
        -11    1    3    3    0    0 -0.35988776187E+03  0.23609706248E+03  0.87478185543E+03  0.97493811016E+03  0.00000000000E+00 0.  1.
          4    1    6    6  502    0 -0.65283178760E+02  0.50830921665E+02  0.10085508696E+02  0.83351025861E+02  0.00000000000E+00 0. -1.
          1    1    5    5  503    0  0.42278757078E+03 -0.22280843572E+03  0.19199282565E+03  0.51502832362E+03  0.00000000000E+00 0. -1.
         -2    1    5    5    0  503  0.22763384977E+03 -0.98334877520E+02  0.43411452760E+02  0.25173691014E+03  0.00000000000E+00 0.  1.
         -3    1    6    6    0  502 -0.20050423830E+03  0.81384873112E+01  0.48278694146E+02  0.20639529273E+03  0.00000000000E+00 0.  1.
<mgrwt>
<rscale>  0 0.17429612E+04</rscale>
<asrwt>0</asrwt>
<pdfrwt beam="1">  1        1 0.26948376E+00 0.17429612E+04</pdfrwt>
<pdfrwt beam="2">  1       -1 0.66704657E-01 0.17429612E+04</pdfrwt>
<totfact> 0.94883155E+00</totfact>
</mgrwt>
</event>
<event>
12    1  0.1980523E-007  0.3733607E+04  0.7818608E-02  0.8060555E-01
         -2   -1    0    0    0  501 -0.00000000000E+00  0.00000000000E+00  0.95924889422E+03  0.95924889422E+03  0.00000000000E+00 0.  1.
          2   -1    0    0  501    0  0.00000000000E+00 -0.00000000000E+00 -0.36330051700E+04  0.36330051700E+04  0.00000000000E+00 0. -1.
         23    2    1    2    0    0 -0.15994905073E+04 -0.69461691499E+03 -0.15235087395E+04  0.23174485303E+04  0.92877713177E+02 0.  0.
        254    2    1    2    0    0  0.15994905073E+04  0.69461691499E+03 -0.11502475363E+04  0.22748055339E+04  0.90044893300E+03 0.  0.
        -24    2    4    4    0    0  0.12647033050E+03  0.36449560823E+03 -0.34877067907E+02  0.39619273262E+03  0.83069119432E+02 0.  0.
         24    2    4    4    0    0  0.14730201768E+04  0.33012130677E+03 -0.11153704684E+04  0.18786128013E+04  0.79788828125E+02 0.  0.
         13    1    3    3    0    0 -0.13945961268E+04 -0.62943376466E+03 -0.13066842418E+04  0.20120906860E+04  0.00000000000E+00 0.  1.
        -13    1    3    3    0    0 -0.20489438049E+03 -0.65183150331E+02 -0.21682449771E+03  0.30535784426E+03  0.00000000000E+00 0. -1.
          4    1    6    6  502    0  0.14290406478E+04  0.30997396595E+03 -0.10667505310E+04  0.18100269965E+04  0.00000000000E+00 0. -1.
          3    1    5    5  503    0  0.13638319574E+03  0.34276200079E+03 -0.41959901677E+02  0.37127725302E+03  0.00000000000E+00 0. -1.
         -4    1    5    5    0  503 -0.99128652349E+01  0.21733607442E+02  0.70828337697E+01  0.24915479602E+02  0.00000000000E+00 0.  1.
         -3    1    6    6    0  502  0.43979529012E+02  0.20147340813E+02 -0.48619937389E+02  0.68585804841E+02  0.00000000000E+00 0.  1.
<mgrwt>
<rscale>  0 0.37336075E+04</rscale>
<asrwt>0</asrwt>
<pdfrwt beam="1">  1        2 0.55892387E+00 0.37336075E+04</pdfrwt>
<pdfrwt beam="2">  1       -2 0.14757675E+00 0.37336075E+04</pdfrwt>
<totfact> 0.16446332E-01</totfact>
</mgrwt>
</event>
<event>
12    1  0.1980523E-007  0.2147237E+04  0.7818608E-02  0.8540716E-01
         -1   -1    0    0    0  501 -0.00000000000E+00  0.00000000000E+00  0.14116636157E+04  0.14116636157E+04  0.00000000000E+00 0.  1.
          1   -1    0    0  501    0  0.00000000000E+00 -0.00000000000E+00 -0.81652343759E+03  0.81652343759E+03  0.00000000000E+00 0. -1.
         23    2    1    2    0    0 -0.78912687248E+03 -0.21894563185E+03 -0.89788169553E+02  0.82875953660E+03  0.90122380907E+02 0.  0.
        254    2    1    2    0    0  0.78912687248E+03  0.21894563185E+03  0.68492834763E+03  0.13994275166E+04  0.90477186206E+03 0.  0.
        -24    2    4    4    0    0  0.79568055402E+03  0.24671368758E+03  0.86340890119E+03  0.12024736573E+04  0.80577776413E+02 0.  0.
         24    2    4    4    0    0 -0.65536815356E+01 -0.27768055727E+02 -0.17848055356E+03  0.19695385939E+03  0.78240009397E+02 0.  0.
         11    1    3    3    0    0 -0.71094041981E+03 -0.22412794065E+03 -0.77628678405E+02  0.74946369226E+03  0.00000000000E+00 0. -1.
        -11    1    3    3    0    0 -0.78186452669E+02  0.51823087973E+01 -0.12159491148E+02  0.79295844345E+02  0.00000000000E+00 0.  1.
          4    1    6    6  502    0  0.11999174951E+02  0.61129598525E+01 -0.14561463554E+03  0.14623600980E+03  0.00000000000E+00 0. -1.
          1    1    5    5  503    0  0.61412567259E+03  0.19189044449E+03  0.61607454351E+03  0.89079746721E+03  0.00000000000E+00 0. -1.
         -2    1    5    5    0  503  0.18155488143E+03  0.54823243089E+02  0.24733435768E+03  0.31167619005E+03  0.00000000000E+00 0.  1.
         -3    1    6    6    0  502 -0.18552856486E+02 -0.33881015580E+02 -0.32865918019E+02  0.50717849597E+02  0.00000000000E+00 0.  1.
<mgrwt>
<rscale>  0 0.21472368E+04</rscale>
<asrwt>0</asrwt>
<pdfrwt beam="1">  1        1 0.12561899E+00 0.21472368E+04</pdfrwt>
<pdfrwt beam="2">  1       -1 0.21717902E+00 0.21472368E+04</pdfrwt>
<totfact> 0.22520778E+00</totfact>
</mgrwt>
</event>
<event>
12    1  0.2136446E-007  0.3127279E+04  0.7818608E-02  0.8208291E-01
          2   -1    0    0  501    0  0.00000000000E+00  0.00000000000E+00  0.16016168148E+04  0.16016168148E+04  0.00000000000E+00 0. -1.
         -2   -1    0    0    0  501 -0.00000000000E+00 -0.00000000000E+00 -0.15265626216E+04  0.15265626216E+04  0.00000000000E+00 0.  1.
         23    2    1    2    0    0  0.84108827808E+02 -0.13992254046E+04 -0.25918861790E+03  0.14282663591E+04  0.88656781955E+02 0.  0.
        254    2    1    2    0    0 -0.84108827808E+02  0.13992254046E+04  0.33424281104E+03  0.16999130773E+04  0.90170959071E+03 0.  0.
        -24    2    4    4    0    0 -0.56494631256E+02 -0.10544091040E+03 -0.34392134826E+02  0.14844209967E+03  0.80887632370E+02 0.  0.
         24    2    4    4    0    0 -0.27614196551E+02  0.15046663150E+04  0.36863494587E+03  0.15514709777E+04  0.79920009335E+02 0.  0.
         13    1    3    3    0    0  0.11595972581E+01 -0.68236266358E+03 -0.14580782440E+03  0.69776792057E+03  0.00000000000E+00 0.  1.
        -13    1    3    3    0    0  0.82949230550E+02 -0.71686274103E+03 -0.11338079350E+03  0.73049843851E+03  0.00000000000E+00 0. -1.
          2    1    6    6  502    0  0.25129378303E+02  0.53592082641E+03  0.14730958604E+03  0.55636564594E+03  0.00000000000E+00 0. -1.
          1    1    5    5  503    0 -0.59735932172E+02 -0.26428039163E+02 -0.16017127866E+02  0.67256012605E+02  0.00000000000E+00 0. -1.
         -2    1    5    5    0  503  0.32413009153E+01 -0.79012871233E+02 -0.18375006960E+02  0.81186087064E+02  0.00000000000E+00 0.  1.
         -1    1    6    6    0  502 -0.52743574854E+02  0.96874548859E+03  0.22132535983E+03  0.99510533174E+03  0.00000000000E+00 0.  1.
<mgrwt>
<rscale>  0 0.31272789E+04</rscale>
<asrwt>0</asrwt>
<pdfrwt beam="1">  1        2 0.24640259E+00 0.31272789E+04</pdfrwt>
<pdfrwt beam="2">  1       -2 0.23485579E+00 0.31272789E+04</pdfrwt>
<totfact> 0.75169553E-01</totfact>
</mgrwt>
</event>
<event>
12    1  0.1980523E-007  0.4281015E+04  0.7818608E-02  0.7950138E-01
         -2   -1    0    0    0  501 -0.00000000000E+00  0.00000000000E+00  0.11686659663E+04  0.11686659663E+04  0.00000000000E+00 0.  1.
          2   -1    0    0  501    0  0.00000000000E+00 -0.00000000000E+00 -0.39205153741E+04  0.39205153741E+04  0.00000000000E+00 0. -1.
         23    2    1    2    0    0  0.54772577278E+03  0.13735906230E+04  0.36486459371E+03  0.15257721605E+04  0.89998845311E+02 0.  0.
        254    2    1    2    0    0 -0.54772577278E+03 -0.13735906230E+04 -0.31167140015E+04  0.35634091799E+04  0.89287406437E+03 0.  0.
        -24    2    4    4    0    0 -0.56324755907E+03 -0.92843616161E+03 -0.13231934306E+04  0.17136844607E+04  0.81437442781E+02 0.  0.
         24    2    4    4    0    0  0.15521786288E+02 -0.44515446141E+03 -0.17935205709E+04  0.18497247193E+04  0.79762637761E+02 0.  0.
         11    1    3    3    0    0  0.35582164493E+03  0.77513040448E+03  0.20008941956E+03  0.87605477156E+03  0.00000000000E+00 0.  1.
        -11    1    3    3    0    0  0.19190412786E+03  0.59846021854E+03  0.16477517415E+03  0.64971738893E+03  0.00000000000E+00 0. -1.
          4    1    6    6  502    0  0.48084047574E+02 -0.25950858065E+03 -0.10658422634E+04  0.10980330185E+04  0.00000000000E+00 0. -1.
          1    1    5    5  503    0 -0.17368456409E+03 -0.34692632192E+03 -0.50856496107E+03  0.63965812766E+03  0.00000000000E+00 0. -1.
         -2    1    5    5    0  503 -0.38956299498E+03 -0.58150983969E+03 -0.81462846948E+03  0.10740263330E+04  0.00000000000E+00 0.  1.
         -3    1    6    6    0  502 -0.32562261286E+02 -0.18564588075E+03 -0.72767830749E+03  0.75169170082E+03  0.00000000000E+00 0.  1.
<mgrwt>
<rscale>  0 0.42810152E+04</rscale>
<asrwt>0</asrwt>
<pdfrwt beam="1">  1        2 0.60315621E+00 0.42810152E+04</pdfrwt>
<pdfrwt beam="2">  1       -2 0.17979476E+00 0.42810152E+04</pdfrwt>
<totfact> 0.55369050E-02</totfact>
</mgrwt>
</event>
<event>
12    1  0.1980523E-007  0.3143094E+04  0.7818608E-02  0.8204010E-01
          2   -1    0    0  501    0  0.00000000000E+00  0.00000000000E+00  0.14540643851E+04  0.14540643851E+04  0.00000000000E+00 0. -1.
         -2   -1    0    0    0  501 -0.00000000000E+00 -0.00000000000E+00 -0.16985217304E+04  0.16985217304E+04  0.00000000000E+00 0.  1.
         23    2    1    2    0    0 -0.12311679667E+04 -0.42401143893E+03  0.50623203215E+03  0.13999948380E+04  0.90301790823E+02 0.  0.
        254    2    1    2    0    0  0.12311679667E+04  0.42401143893E+03 -0.75068937754E+03  0.17525912775E+04  0.90137749135E+03 0.  0.
        -24    2    4    4    0    0  0.42434715243E+03 -0.18950895230E+03  0.27176160569E+02  0.47245144043E+03  0.80546080544E+02 0.  0.
         24    2    4    4    0    0  0.80682081427E+03  0.61352039123E+03 -0.77786553811E+03  0.12801398371E+04  0.79473959962E+02 0.  0.
         13    1    3    3    0    0 -0.10114496892E+04 -0.38352436184E+03  0.42685003325E+03  0.11628939594E+04  0.00000000000E+00 0. -1.
        -13    1    3    3    0    0 -0.21971827746E+03 -0.40487077094E+02  0.79381998902E+02  0.23710087856E+03  0.00000000000E+00 0.  1.
          2    1    6    6  502    0  0.58497448905E+02  0.62380143804E+02 -0.87966982468E+02  0.12268424460E+03  0.00000000000E+00 0. -1.
          3    1    5    5  503    0  0.16367203792E+01 -0.50114637792E+01  0.95341337449E+01  0.10894646808E+02  0.00000000000E+00 0. -1.
         -4    1    5    5    0  503  0.42271043205E+03 -0.18449748852E+03  0.17642026824E+02  0.46155679363E+03  0.00000000000E+00 0.  1.
         -1    1    6    6    0  502  0.74832336537E+03  0.55114024743E+03 -0.68989855564E+03  0.11574555925E+04  0.00000000000E+00 0.  1.
<mgrwt>
<rscale>  0 0.31430940E+04</rscale>
<asrwt>0</asrwt>
<pdfrwt beam="1">  1        2 0.22370221E+00 0.31430940E+04</pdfrwt>
<pdfrwt beam="2">  1       -2 0.26131104E+00 0.31430940E+04</pdfrwt>
<totfact> 0.62454768E-01</totfact>
</mgrwt>
</event>
<event>
12    1  0.1980523E-007  0.2236116E+04  0.7818608E-02  0.8503544E-01
         -2   -1    0    0    0  501 -0.00000000000E+00  0.00000000000E+00  0.16698887067E+04  0.16698887067E+04  0.00000000000E+00 0.  1.
          2   -1    0    0  501    0  0.00000000000E+00 -0.00000000000E+00 -0.74858532837E+03  0.74858532837E+03  0.00000000000E+00 0. -1.
         23    2    1    2    0    0  0.47440072849E+03  0.26209246562E+03 -0.43648725958E+03  0.70188693209E+03  0.91518445880E+02 0.  0.
        254    2    1    2    0    0 -0.47440072849E+03 -0.26209246562E+03  0.13577906379E+04  0.17165871030E+04  0.89962623018E+03 0.  0.
        -24    2    4    4    0    0 -0.24288601288E+03 -0.58626487384E+03  0.75300256851E+03  0.98810270850E+03  0.81449228439E+02 0.  0.
         24    2    4    4    0    0 -0.23151471561E+03  0.32417240822E+03  0.60478806939E+03  0.72848439448E+03  0.78956255821E+02 0.  0.
         11    1    3    3    0    0  0.17791372596E+03  0.49175199081E+02 -0.14190596736E+03  0.23282782836E+03  0.00000000000E+00 0. -1.
        -11    1    3    3    0    0  0.29648700253E+03  0.21291726654E+03 -0.29458129222E+03  0.46905910372E+03  0.00000000000E+00 0.  1.
          4    1    6    6  502    0 -0.15470949151E+03  0.16540154407E+03  0.38506596605E+03  0.44673089859E+03  0.00000000000E+00 0. -1.
          3    1    5    5  503    0 -0.94520891764E+02 -0.13528400146E+03  0.19391297087E+03  0.25463346265E+03  0.00000000000E+00 0. -1.
         -2    1    5    5    0  503 -0.14836512112E+03 -0.45098087238E+03  0.55908959764E+03  0.73346924585E+03  0.00000000000E+00 0.  1.
         -3    1    6    6    0  502 -0.76805224093E+02  0.15877086415E+03  0.21972210334E+03  0.28175349589E+03  0.00000000000E+00 0.  1.
<mgrwt>
<rscale>  0 0.22361164E+04</rscale>
<asrwt>0</asrwt>
<pdfrwt beam="1">  1        2 0.11516697E+00 0.22361164E+04</pdfrwt>
<pdfrwt beam="2">  1       -2 0.25690595E+00 0.22361164E+04</pdfrwt>
<totfact> 0.19964266E+00</totfact>
</mgrwt>
</event>
<event>
12    1  0.1980523E-007  0.2333729E+04  0.7818608E-02  0.8464740E-01
         -1   -1    0    0    0  501 -0.00000000000E+00  0.00000000000E+00  0.93519699494E+03  0.93519699494E+03  0.00000000000E+00 0.  1.
          1   -1    0    0  501    0  0.00000000000E+00 -0.00000000000E+00 -0.14559213623E+04  0.14559213623E+04  0.00000000000E+00 0. -1.
         23    2    1    2    0    0 -0.94698257289E+03 -0.25039947562E+03 -0.37181201691E+03  0.10516903126E+04  0.91282238319E+02 0.  0.
        254    2    1    2    0    0  0.94698257289E+03  0.25039947562E+03 -0.14891235041E+03  0.13394280446E+04  0.90134161543E+03 0.  0.
        -24    2    4    4    0    0  0.10714414430E+04  0.20345210318E+03  0.40945533560E+02  0.10942428063E+04  0.79443428428E+02 0.  0.
         24    2    4    4    0    0 -0.12445887014E+03  0.46947372441E+02 -0.18985788397E+03  0.24518523825E+03  0.79848098358E+02 0.  0.
         13    1    3    3    0    0 -0.63548109654E+03 -0.17243113094E+03 -0.29499074487E+03  0.72151802371E+03  0.00000000000E+00 0.  1.
        -13    1    3    3    0    0 -0.31150147634E+03 -0.77968344685E+02 -0.76821272039E+02  0.33017228893E+03  0.00000000000E+00 0. -1.
          4    1    6    6  502    0 -0.12687762280E+03  0.51220755601E+02 -0.19490895006E+03  0.23814070585E+03  0.00000000000E+00 0. -1.
          1    1    5    5  503    0  0.72726768737E+03  0.13448727404E+03 -0.92558866002E+01  0.73965585741E+03  0.00000000000E+00 0. -1.
         -2    1    5    5    0  503  0.34417375567E+03  0.68964829145E+02  0.50201420160E+02  0.35458694891E+03  0.00000000000E+00 0.  1.
         -3    1    6    6    0  502  0.24187526584E+01 -0.42733831595E+01  0.50510660848E+01  0.70445323935E+01  0.00000000000E+00 0.  1.
<mgrwt>
<rscale>  0 0.23337294E+04</rscale>
<asrwt>0</asrwt>
<pdfrwt beam="1">  1        1 0.22398790E+00 0.23337294E+04</pdfrwt>
<pdfrwt beam="2">  1       -1 0.14387646E+00 0.23337294E+04</pdfrwt>
<totfact> 0.24680349E+00</totfact>
</mgrwt>
</event>
<event>
12    1  0.1980523E-007  0.2204495E+04  0.7818608E-02  0.8516559E-01
         -2   -1    0    0    0  501 -0.00000000000E+00  0.00000000000E+00  0.38506631910E+03  0.38506631910E+03  0.00000000000E+00 0.  1.
          2   -1    0    0  501    0  0.00000000000E+00 -0.00000000000E+00 -0.31551706064E+04  0.31551706064E+04  0.00000000000E+00 0. -1.
         23    2    1    2    0    0 -0.85174924495E+03 -0.33633760645E+03 -0.11855064099E+04  0.15008269023E+04  0.91957495079E+02 0.  0.
        254    2    1    2    0    0  0.85174924495E+03  0.33633760645E+03 -0.15845978773E+04  0.20394100232E+04  0.89980167145E+03 0.  0.
        -24    2    4    4    0    0  0.12225710428E+02 -0.19120363557E+03 -0.62066191321E+03  0.65426687802E+03  0.78330319267E+02 0.  0.
         24    2    4    4    0    0  0.83952353452E+03  0.52754124202E+03 -0.96393596413E+03  0.13851431451E+04  0.79683514976E+02 0.  0.
         11    1    3    3    0    0 -0.74548977250E+03 -0.31152174257E+03 -0.10824071215E+04  0.13507057317E+04  0.00000000000E+00 0. -1.
        -11    1    3    3    0    0 -0.10625947245E+03 -0.24815863880E+02 -0.10309928843E+03  0.15012117059E+03  0.00000000000E+00 0.  1.
          4    1    6    6  502    0  0.28167698883E+03  0.19888551624E+03 -0.38180242967E+03  0.51446133957E+03  0.00000000000E+00 0. -1.
          3    1    5    5  503    0 -0.30346017734E+02 -0.63432192356E+02 -0.17172043526E+03  0.18555977933E+03  0.00000000000E+00 0. -1.
         -4    1    5    5    0  503  0.42571728162E+02 -0.12777144321E+03 -0.44894147795E+03  0.46870709869E+03  0.00000000000E+00 0.  1.
         -3    1    6    6    0  502  0.55784654569E+03  0.32865572577E+03 -0.58213353446E+03  0.87068180558E+03  0.00000000000E+00 0.  1.
<mgrwt>
<rscale>  0 0.22044953E+04</rscale>
<asrwt>0</asrwt>
<pdfrwt beam="1">  1        2 0.48541085E+00 0.22044953E+04</pdfrwt>
<pdfrwt beam="2">  1       -2 0.59240973E-01 0.22044953E+04</pdfrwt>
<totfact> 0.33772374E+00</totfact>
</mgrwt>
</event>
<event>
12    1  0.1980523E-007  0.2328072E+04  0.7818608E-02  0.8466934E-01
         -1   -1    0    0    0  501 -0.00000000000E+00  0.00000000000E+00  0.86582849044E+03  0.86582849044E+03  0.00000000000E+00 0.  1.
          1   -1    0    0  501    0  0.00000000000E+00 -0.00000000000E+00 -0.15649513547E+04  0.15649513547E+04  0.00000000000E+00 0. -1.
         23    2    1    2    0    0  0.27923337353E+03 -0.94229891961E+03 -0.29080222895E+03  0.10289640146E+04  0.91117925067E+02 0.  0.
        254    2    1    2    0    0 -0.27923337353E+03  0.94229891961E+03 -0.40832063528E+03  0.14018158305E+04  0.91239429556E+03 0.  0.
        -24    2    4    4    0    0 -0.22725691127E+03  0.11154199963E+04 -0.32268729943E+03  0.11862138674E+04  0.84668613609E+02 0.  0.
         24    2    4    4    0    0 -0.51976462257E+02 -0.17312107666E+03 -0.85633335857E+02  0.21560196310E+03  0.80490238360E+02 0.  0.
         11    1    3    3    0    0  0.37274804560E+02 -0.21362277491E+03 -0.34879852763E+02  0.21963766787E+03  0.00000000000E+00 0.  1.
        -11    1    3    3    0    0  0.24195856897E+03 -0.72867614469E+03 -0.25592237619E+03  0.80932634677E+03  0.00000000000E+00 0. -1.
          4    1    6    6  502    0  0.13809303487E+02 -0.34283991880E+01  0.52891777521E+00  0.14238347439E+02  0.00000000000E+00 0. -1.
          1    1    5    5  503    0 -0.10521130584E+03  0.61508440868E+03 -0.21543013678E+03  0.66015785424E+03  0.00000000000E+00 0. -1.
         -2    1    5    5    0  503 -0.12204560544E+03  0.50033558758E+03 -0.10725716265E+03  0.52605601313E+03  0.00000000000E+00 0.  1.
         -1    1    6    6    0  502 -0.65785765744E+02 -0.16969267747E+03 -0.86162253632E+02  0.20136361566E+03  0.00000000000E+00 0.  1.
<mgrwt>
<rscale>  0 0.23280717E+04</rscale>
<asrwt>0</asrwt>
<pdfrwt beam="1">  1        1 0.24076175E+00 0.23280717E+04</pdfrwt>
<pdfrwt beam="2">  1       -1 0.13320438E+00 0.23280717E+04</pdfrwt>
<totfact> 0.25356229E+00</totfact>
</mgrwt>
</event>
<event>
12    1  0.1980523E-007  0.2424791E+04  0.7818608E-02  0.8430280E-01
         -2   -1    0    0    0  501 -0.00000000000E+00  0.00000000000E+00  0.58610939830E+03  0.58610939830E+03  0.00000000000E+00 0. -1.
          2   -1    0    0  501    0  0.00000000000E+00 -0.00000000000E+00 -0.25078981126E+04  0.25078981126E+04  0.00000000000E+00 0.  1.
         23    2    1    2    0    0 -0.20183727801E+03  0.61979673995E+03 -0.18691417947E+04  0.19817227841E+04  0.92993863348E+02 0.  0.
        254    2    1    2    0    0  0.20183727801E+03 -0.61979673995E+03 -0.52646919539E+02  0.11122847268E+04  0.89973292126E+03 0.  0.
        -24    2    4    4    0    0  0.33378859892E+03 -0.46851791819E+03 -0.39921484756E+03  0.70488425841E+03  0.81027494122E+02 0.  0.
         24    2    4    4    0    0 -0.13195132091E+03 -0.15127882176E+03  0.34656792802E+03  0.40740046835E+03  0.74628278025E+02 0.  0.
         11    1    3    3    0    0 -0.35314776752E+02  0.14354590875E+03 -0.54590499751E+03  0.56556593575E+03  0.00000000000E+00 0.  1.
        -11    1    3    3    0    0 -0.16652250126E+03  0.47625083120E+03 -0.13232367972E+04  0.14161568484E+04  0.00000000000E+00 0. -1.
          2    1    6    6  502    0 -0.82196370655E+00 -0.32994060544E+02  0.28546179775E+02  0.43636773887E+02  0.00000000000E+00 0. -1.
          3    1    5    5  503    0  0.16585059329E+03 -0.18610610338E+03 -0.20843366424E+03  0.32494075367E+03  0.00000000000E+00 0. -1.
         -2    1    5    5    0  503  0.16793800563E+03 -0.28241181481E+03 -0.19078118332E+03  0.37994350473E+03  0.00000000000E+00 0.  1.
         -1    1    6    6    0  502 -0.13112935720E+03 -0.11828476122E+03  0.31802174824E+03  0.36376369447E+03  0.00000000000E+00 0.  1.
<mgrwt>
<rscale>  0 0.24247908E+04</rscale>
<asrwt>0</asrwt>
<pdfrwt beam="1">  1        2 0.38583047E+00 0.24247908E+04</pdfrwt>
<pdfrwt beam="2">  1       -2 0.90170678E-01 0.24247908E+04</pdfrwt>
<totfact> 0.32521066E+00</totfact>
</mgrwt>
</event>
<event>
12    1  0.1980523E-007  0.7321741E+04  0.7818608E-02  0.7545135E-01
          2   -1    0    0  501    0  0.00000000000E+00  0.00000000000E+00  0.31354777755E+04  0.31354777755E+04  0.00000000000E+00 0. -1.
         -2   -1    0    0    0  501 -0.00000000000E+00 -0.00000000000E+00 -0.42742995856E+04  0.42742995856E+04  0.00000000000E+00 0.  1.
         23    2    1    2    0    0  0.33977682512E+04 -0.29269241070E+03 -0.17428402033E+04  0.38310499759E+04  0.94625618103E+02 0.  0.
        254    2    1    2    0    0 -0.33977682512E+04  0.29269241070E+03  0.60401839315E+03  0.35787273853E+04  0.90108464791E+03 0.  0.
        -24    2    4    4    0    0 -0.19177962169E+04 -0.19249476244E+03  0.59604940319E+03  0.20190523135E+04  0.79377518543E+02 0.  0.
         24    2    4    4    0    0 -0.14799720343E+04  0.48518717314E+03  0.79689899663E+01  0.15596750718E+04  0.82456106241E+02 0.  0.
         13    1    3    3    0    0  0.48365782460E+03 -0.19913932049E+02 -0.27559428558E+03  0.55702214160E+03  0.00000000000E+00 0. -1.
        -13    1    3    3    0    0  0.29141104266E+04 -0.27277847866E+03 -0.14672459177E+04  0.32740278343E+04  0.00000000000E+00 0.  1.
          2    1    6    6  502    0 -0.13782422142E+04  0.46189780251E+03 -0.10890845042E+02  0.14536229881E+04  0.00000000000E+00 0. -1.
          3    1    5    5  503    0 -0.13143411028E+04 -0.12767208008E+03  0.44651638929E+03  0.13939761764E+04  0.00000000000E+00 0. -1.
         -4    1    5    5    0  503 -0.60345511409E+03 -0.64822682354E+02  0.14953301390E+03  0.62507613706E+03  0.00000000000E+00 0.  1.
         -1    1    6    6    0  502 -0.10172982003E+03  0.23289370629E+02  0.18859835008E+02  0.10605208364E+03  0.00000000000E+00 0.  1.
<mgrwt>
<rscale>  0 0.73217406E+04</rscale>
<asrwt>0</asrwt>
<pdfrwt beam="1">  1        2 0.48238120E+00 0.73217406E+04</pdfrwt>
<pdfrwt beam="2">  1       -2 0.65758455E+00 0.73217406E+04</pdfrwt>
<totfact> 0.28422359E-04</totfact>
</mgrwt>
</event>
<event>
12    1  0.1980523E-007  0.2728514E+04  0.7818608E-02  0.8325812E-01
         -2   -1    0    0    0  501 -0.00000000000E+00  0.00000000000E+00  0.73964071387E+03  0.73964071387E+03  0.00000000000E+00 0.  1.
          2   -1    0    0  501    0  0.00000000000E+00 -0.00000000000E+00 -0.25163526892E+04  0.25163526892E+04  0.00000000000E+00 0. -1.
         23    2    1    2    0    0  0.98061952208E+03 -0.71025949209E+03 -0.68817780299E+03  0.13956987802E+04  0.91121914393E+02 0.  0.
        254    2    1    2    0    0 -0.98061952208E+03  0.71025949209E+03 -0.10885341724E+04  0.18602946229E+04  0.89983678875E+03 0.  0.
        -24    2    4    4    0    0 -0.67080925341E+03  0.89717770832E+03 -0.92509709645E+03  0.14549711583E+04  0.78889409742E+02 0.  0.
         24    2    4    4    0    0 -0.30981026867E+03 -0.18691821622E+03 -0.16343707590E+03  0.40532346455E+03  0.81575799142E+02 0.  0.
         13    1    3    3    0    0  0.39004243856E+03 -0.24568962249E+03 -0.22435610054E+03  0.51267158525E+03  0.00000000000E+00 0.  1.
        -13    1    3    3    0    0  0.59057708353E+03 -0.46456986960E+03 -0.46382170244E+03  0.88302719493E+03  0.00000000000E+00 0. -1.
          4    1    6    6  502    0 -0.67870722148E+02 -0.97255882351E+01 -0.49311204237E+02  0.84454821383E+02  0.00000000000E+00 0. -1.
          3    1    5    5  503    0 -0.34177520659E+03  0.48199612024E+03 -0.44043399818E+03  0.73696177548E+03  0.00000000000E+00 0. -1.
         -4    1    5    5    0  503 -0.32903404682E+03  0.41518158808E+03 -0.48466309828E+03  0.71800938286E+03  0.00000000000E+00 0.  1.
         -3    1    6    6    0  502 -0.24193954653E+03 -0.17719262799E+03 -0.11412587166E+03  0.32086864317E+03  0.00000000000E+00 0.  1.
<mgrwt>
<rscale>  0 0.27285138E+04</rscale>
<asrwt>0</asrwt>
<pdfrwt beam="1">  1        2 0.38713118E+00 0.27285138E+04</pdfrwt>
<pdfrwt beam="2">  1       -2 0.11379088E+00 0.27285138E+04</pdfrwt>
<totfact> 0.18032322E+00</totfact>
</mgrwt>
</event>
<event>
12    1  0.1980523E-007  0.2394380E+04  0.7818608E-02  0.8441611E-01
          2   -1    0    0  501    0  0.00000000000E+00  0.00000000000E+00  0.17439452078E+04  0.17439452078E+04  0.00000000000E+00 0. -1.
         -2   -1    0    0    0  501 -0.00000000000E+00 -0.00000000000E+00 -0.82185153330E+03  0.82185153330E+03  0.00000000000E+00 0.  1.
         23    2    1    2    0    0 -0.85841480095E+03 -0.55357879679E+03  0.26467943968E+03  0.10592680140E+04  0.93102443705E+02 0.  0.
        254    2    1    2    0    0  0.85841480095E+03  0.55357879679E+03  0.65741423486E+03  0.15065287271E+04  0.89112842768E+03 0.  0.
        -24    2    4    4    0    0  0.74733357238E+03  0.29482170667E+03  0.22568266753E+02  0.80757373922E+03  0.78985507994E+02 0.  0.
         24    2    4    4    0    0  0.11108122856E+03  0.25875709013E+03  0.63484596811E+03  0.69895498788E+03  0.78831471055E+02 0.  0.
         11    1    3    3    0    0 -0.52269377368E+03 -0.38799567845E+03  0.18176106717E+03  0.67585983242E+03  0.00000000000E+00 0. -1.
        -11    1    3    3    0    0 -0.33572102726E+03 -0.16558311834E+03  0.82918372509E+02  0.38340818161E+03  0.00000000000E+00 0.  1.
          4    1    6    6  502    0  0.33929430085E+02  0.17941713324E+02  0.10670182263E+03  0.11339484228E+03  0.00000000000E+00 0. -1.
          1    1    5    5  503    0  0.38566305868E+03  0.19403049885E+03  0.17884832582E+02  0.43209223154E+03  0.00000000000E+00 0. -1.
         -2    1    5    5    0  503  0.36167051370E+03  0.10079120781E+03  0.46834341714E+01  0.37548150768E+03  0.00000000000E+00 0.  1.
         -3    1    6    6    0  502  0.77151798479E+02  0.24081537680E+03  0.52814414548E+03  0.58556014560E+03  0.00000000000E+00 0.  1.
<mgrwt>
<rscale>  0 0.23943801E+04</rscale>
<asrwt>0</asrwt>
<pdfrwt beam="1">  1        2 0.26829926E+00 0.23943801E+04</pdfrwt>
<pdfrwt beam="2">  1       -2 0.12643870E+00 0.23943801E+04</pdfrwt>
<totfact> 0.38857895E+00</totfact>
</mgrwt>
</event>
<event>
12    1  0.1980523E-007  0.1721301E+04  0.7818608E-02  0.8749308E-01
         -2   -1    0    0    0  501 -0.00000000000E+00  0.00000000000E+00  0.78314443909E+03  0.78314443909E+03  0.00000000000E+00 0.  1.
          2   -1    0    0  501    0  0.00000000000E+00 -0.00000000000E+00 -0.94582726438E+03  0.94582726438E+03  0.00000000000E+00 0. -1.
         23    2    1    2    0    0 -0.44502453587E+02  0.18502909841E+03  0.51726207719E+03  0.55863868674E+03  0.91109221203E+02 0.  0.
        254    2    1    2    0    0  0.44502453587E+02 -0.18502909841E+03 -0.67994490248E+03  0.11703330167E+04  0.93334777225E+03 0.  0.
        -24    2    4    4    0    0 -0.24809605871E+02  0.13698564882E+03 -0.79613697661E+03  0.81206591075E+03  0.78970711956E+02 0.  0.
         24    2    4    4    0    0  0.69312059458E+02 -0.32201474724E+03  0.11619207412E+03  0.35826710597E+03  0.79731186551E+02 0.  0.
         11    1    3    3    0    0 -0.37368028854E+02  0.14960381160E+03  0.28929308302E+03  0.32782336388E+03  0.00000000000E+00 0. -1.
        -11    1    3    3    0    0 -0.71344247333E+01  0.35425286818E+02  0.22796899417E+03  0.23081532286E+03  0.00000000000E+00 0.  1.
          4    1    6    6  502    0  0.16025447982E+02 -0.57800634844E+02 -0.97371885945E+01  0.60766283522E+02  0.00000000000E+00 0. -1.
          1    1    5    5  503    0  0.22322337691E+02  0.37469044943E+02 -0.13641365679E+03  0.14321627648E+03  0.00000000000E+00 0. -1.
         -2    1    5    5    0  503 -0.47131943562E+02  0.99516603879E+02 -0.65972331981E+03  0.66884963427E+03  0.00000000000E+00 0.  1.
         -3    1    6    6    0  502  0.53286611475E+02 -0.26421411239E+03  0.12592926272E+03  0.29750082245E+03  0.00000000000E+00 0.  1.
<mgrwt>
<rscale>  0 0.17213011E+04</rscale>
<asrwt>0</asrwt>
<pdfrwt beam="1">  1        2 0.14551189E+00 0.17213011E+04</pdfrwt>
<pdfrwt beam="2">  1       -2 0.12048376E+00 0.17213011E+04</pdfrwt>
<totfact> 0.13645488E+01</totfact>
</mgrwt>
</event>
<event>
12    1  0.1980523E-007  0.2277952E+04  0.7818608E-02  0.8486665E-01
          1   -1    0    0  501    0  0.00000000000E+00  0.00000000000E+00  0.21265987077E+04  0.21265987077E+04  0.00000000000E+00 0. -1.
         -1   -1    0    0    0  501 -0.00000000000E+00 -0.00000000000E+00 -0.61001935461E+03  0.61001935461E+03  0.00000000000E+00 0.  1.
         23    2    1    2    0    0 -0.71376723897E+03 -0.57318489584E+03  0.99337120773E+03  0.13536063751E+04  0.86367043005E+02 0.  0.
        254    2    1    2    0    0  0.71376723897E+03  0.57318489584E+03  0.52320814533E+03  0.13830116872E+04  0.89496925493E+03 0.  0.
        -24    2    4    4    0    0  0.72710088898E+03  0.55798811478E+02  0.43251248039E+03  0.85160840422E+03  0.79878772727E+02 0.  0.
         24    2    4    4    0    0 -0.13333650008E+02  0.51738608436E+03  0.90695664939E+02  0.53140328295E+03  0.79357412874E+02 0.  0.
         11    1    3    3    0    0 -0.67245471671E+03 -0.51439197318E+03  0.93172144807E+03  0.12589278394E+04  0.00000000000E+00 0. -1.
        -11    1    3    3    0    0 -0.41312522261E+02 -0.58792922664E+02  0.61649759663E+02  0.94678535674E+02  0.00000000000E+00 0.  1.
          4    1    6    6  502    0  0.14046618123E+01  0.19283644614E+03 -0.43863106578E+01  0.19289144034E+03  0.00000000000E+00 0. -1.
          1    1    5    5  503    0  0.54684642042E+02  0.63096076966E+01  0.59541881660E+02  0.81089190994E+02  0.00000000000E+00 0. -1.
         -2    1    5    5    0  503  0.67241624694E+03  0.49489203782E+02  0.37297059873E+03  0.77051921323E+03  0.00000000000E+00 0.  1.
         -1    1    6    6    0  502 -0.14738311821E+02  0.32454963823E+03  0.95081975596E+02  0.33851184262E+03  0.00000000000E+00 0.  1.
<mgrwt>
<rscale>  0 0.22779520E+04</rscale>
<asrwt>0</asrwt>
<pdfrwt beam="1">  1        1 0.32716903E+00 0.22779520E+04</pdfrwt>
<pdfrwt beam="2">  1       -1 0.93849133E-01 0.22779520E+04</pdfrwt>
<totfact> 0.24356034E+00</totfact>
</mgrwt>
</event>
<event>
12    1  0.1980523E-007  0.4042440E+04  0.7818608E-02  0.7996039E-01
          2   -1    0    0  501    0  0.00000000000E+00  0.00000000000E+00  0.16122338138E+04  0.16122338138E+04  0.00000000000E+00 0. -1.
         -2   -1    0    0    0  501 -0.00000000000E+00 -0.00000000000E+00 -0.25339561804E+04  0.25339561804E+04  0.00000000000E+00 0.  1.
         23    2    1    2    0    0  0.54380908639E+03  0.15226595304E+04  0.62346647417E+03  0.17354618250E+04  0.94323557073E+02 0.  0.
        254    2    1    2    0    0 -0.54380908639E+03 -0.15226595304E+04 -0.15451888408E+04  0.24107281692E+04  0.89987853840E+03 0.  0.
        -24    2    4    4    0    0 -0.40298687400E+03 -0.24861688595E+03 -0.77930697141E+03  0.91538671026E+03  0.80029351023E+02 0.  0.
         24    2    4    4    0    0 -0.14082221239E+03 -0.12740426445E+04 -0.76588186940E+03  0.14953414589E+04  0.80346035720E+02 0.  0.
         13    1    3    3    0    0  0.37803088157E+03  0.10759629046E+04  0.48497939646E+03  0.12392774244E+04  0.00000000000E+00 0.  1.
        -13    1    3    3    0    0  0.16577820482E+03  0.44669662580E+03  0.13848707771E+03  0.49618440059E+03  0.00000000000E+00 0. -1.
          2    1    6    6  502    0 -0.96283850637E+01 -0.50119174798E+02 -0.49620948386E+02  0.71181992105E+02  0.00000000000E+00 0. -1.
          3    1    5    5  503    0 -0.18199470116E+03 -0.12522387524E+03 -0.43701720308E+03  0.48968063670E+03  0.00000000000E+00 0. -1.
         -4    1    5    5    0  503 -0.22099217285E+03 -0.12339301071E+03 -0.34228976834E+03  0.42570607355E+03  0.00000000000E+00 0.  1.
         -1    1    6    6    0  502 -0.13119382733E+03 -0.12239234697E+04 -0.71626092102E+03  0.14241594668E+04  0.00000000000E+00 0.  1.
<mgrwt>
<rscale>  0 0.40424398E+04</rscale>
<asrwt>0</asrwt>
<pdfrwt beam="1">  1        2 0.24803597E+00 0.40424398E+04</pdfrwt>
<pdfrwt beam="2">  1       -2 0.38983941E+00 0.40424398E+04</pdfrwt>
<totfact> 0.74583980E-02</totfact>
</mgrwt>
</event>
<event>
12    1  0.1980523E-007  0.1460193E+04  0.7818608E-02  0.8911365E-01
          1   -1    0    0  501    0  0.00000000000E+00  0.00000000000E+00  0.12161763339E+04  0.12161763339E+04  0.00000000000E+00 0. -1.
         -1   -1    0    0    0  501 -0.00000000000E+00 -0.00000000000E+00 -0.43829215101E+03  0.43829215101E+03  0.00000000000E+00 0.  1.
         23    2    1    2    0    0  0.74284514441E+02  0.39569955023E+03  0.36750995686E+02  0.41374663283E+03  0.87973390037E+02 0.  0.
        254    2    1    2    0    0 -0.74284514441E+02 -0.39569955023E+03  0.74113318717E+03  0.12407218520E+04  0.90995383942E+03 0.  0.
        -24    2    4    4    0    0 -0.32168035553E+03 -0.31957286525E+03  0.88735194360E+01  0.46028370354E+03  0.78595680899E+02 0.  0.
         24    2    4    4    0    0  0.24739584109E+03 -0.76126684985E+02  0.73225966773E+03  0.78043814850E+03  0.76677951805E+02 0.  0.
         11    1    3    3    0    0  0.20191317783E+02  0.16537965936E+03 -0.26856508895E+02  0.16875838679E+03  0.00000000000E+00 0.  1.
        -11    1    3    3    0    0  0.54093196658E+02  0.23031989087E+03  0.63607504581E+02  0.24498824604E+03  0.00000000000E+00 0. -1.
          4    1    6    6  502    0  0.14669983591E+03 -0.26373688214E+02  0.31760031424E+03  0.35083667552E+03  0.00000000000E+00 0. -1.
          1    1    5    5  503    0 -0.16777903044E+03 -0.16180927855E+03  0.43695265472E+02  0.23715252878E+03  0.00000000000E+00 0. -1.
         -2    1    5    5    0  503 -0.15390132509E+03 -0.15776358669E+03 -0.34821746036E+02  0.22313117476E+03  0.00000000000E+00 0.  1.
         -3    1    6    6    0  502  0.10069600518E+03 -0.49752996771E+02  0.41465935350E+03  0.42960147299E+03  0.00000000000E+00 0.  1.
<mgrwt>
<rscale>  0 0.14601925E+04</rscale>
<asrwt>0</asrwt>
<pdfrwt beam="1">  1        1 0.18710405E+00 0.14601925E+04</pdfrwt>
<pdfrwt beam="2">  1       -1 0.67429562E-01 0.14601925E+04</pdfrwt>
<totfact> 0.22479220E+01</totfact>
</mgrwt>
</event>
<event>
12    1  0.3076098E-007  0.3300166E+04  0.7818608E-02  0.8162853E-01
         -2   -1    0    0    0  501 -0.00000000000E+00  0.00000000000E+00  0.15698237654E+04  0.15698237654E+04  0.00000000000E+00 0.  1.
          2   -1    0    0  501    0  0.00000000000E+00 -0.00000000000E+00 -0.17344455375E+04  0.17344455375E+04  0.00000000000E+00 0. -1.
         23    2    1    2    0    0  0.13921745370E+04 -0.62365706916E+03 -0.10934765241E+03  0.15322134300E+04  0.92860135498E+02 0.  0.
        254    2    1    2    0    0 -0.13921745370E+04  0.62365706916E+03 -0.55274119696E+02  0.17720558729E+04  0.90001594812E+03 0.  0.
        -24    2    4    4    0    0 -0.33552824441E+03  0.62139416695E+03 -0.15195159147E+02  0.71171505208E+03  0.87163690663E+02 0.  0.
         24    2    4    4    0    0 -0.10566462926E+04  0.22629022138E+01 -0.40078960549E+02  0.10603408208E+04  0.78802441630E+02 0.  0.
         13    1    3    3    0    0  0.56429419907E+03 -0.29455022118E+03 -0.20150333435E+02  0.63686247482E+03  0.00000000000E+00 0. -1.
        -13    1    3    3    0    0  0.82788033792E+03 -0.32910684798E+03 -0.89197318970E+02  0.89535095522E+03  0.00000000000E+00 0.  1.
          2    1    6    6  502    0 -0.16075745320E+03 -0.57844456624E+01  0.21550578842E+02  0.16229863222E+03  0.00000000000E+00 0. -1.
          3    1    5    5  503    0 -0.38063391798E+02  0.45534616078E+02  0.19950852536E+02  0.62611976277E+02  0.00000000000E+00 0. -1.
         -4    1    5    5    0  503 -0.29746485262E+03  0.57585955087E+03 -0.35146011683E+02  0.64910307580E+03  0.00000000000E+00 0.  1.
         -1    1    6    6    0  502 -0.89588883937E+03  0.80473478762E+01 -0.61629539390E+02  0.89804218857E+03  0.00000000000E+00 0.  1.
<mgrwt>
<rscale>  0 0.33001660E+04</rscale>
<asrwt>0</asrwt>
<pdfrwt beam="1">  1        2 0.26683777E+00 0.33001660E+04</pdfrwt>
<pdfrwt beam="2">  1       -2 0.24151135E+00 0.33001660E+04</pdfrwt>
<totfact> 0.56819711E-01</totfact>
</mgrwt>
</event>
<event>
12    1  0.1980523E-007  0.1690976E+04  0.7818608E-02  0.8766528E-01
          2   -1    0    0  501    0  0.00000000000E+00  0.00000000000E+00  0.32160058538E+04  0.32160058538E+04  0.00000000000E+00 0.  1.
         -2   -1    0    0    0  501 -0.00000000000E+00 -0.00000000000E+00 -0.22227875384E+03  0.22227875384E+03  0.00000000000E+00 0. -1.
         23    2    1    2    0    0  0.54125213876E+03  0.26260285460E+03  0.11162673540E+04  0.12713760668E+04  0.91815906385E+02 0.  0.
        254    2    1    2    0    0 -0.54125213876E+03 -0.26260285460E+03  0.18774597459E+04  0.21669085408E+04  0.89929049238E+03 0.  0.
        -24    2    4    4    0    0 -0.23823860872E+03 -0.58043207504E+03  0.10216325994E+04  0.12016247359E+04  0.80683389475E+02 0.  0.
         24    2    4    4    0    0 -0.30301353004E+03  0.31782922044E+03  0.85582714654E+03  0.96528380492E+03  0.80623238162E+02 0.  0.
         13    1    3    3    0    0  0.23457496395E+03  0.90016239559E+02  0.38330256367E+03  0.45831123967E+03  0.00000000000E+00 0. -1.
        -13    1    3    3    0    0  0.30667717480E+03  0.17258661504E+03  0.73296479034E+03  0.81306482713E+03  0.00000000000E+00 0.  1.
          2    1    6    6  502    0 -0.84648095167E+02  0.13365750601E+03  0.35629008957E+03  0.38983619233E+03  0.00000000000E+00 0. -1.
          3    1    5    5  503    0 -0.10730661769E+03 -0.16425807365E+03  0.30699029795E+03  0.36433290820E+03  0.00000000000E+00 0. -1.
         -4    1    5    5    0  503 -0.13093199102E+03 -0.41617400139E+03  0.71464230143E+03  0.83729182768E+03  0.00000000000E+00 0.  1.
         -1    1    6    6    0  502 -0.21836543487E+03  0.18417171444E+03  0.49953705698E+03  0.57544761259E+03  0.00000000000E+00 0.  1.
<mgrwt>
<rscale>  0 0.16909758E+04</rscale>
<asrwt>0</asrwt>
<pdfrwt beam="1">  1        2 0.49477010E+00 0.16909758E+04</pdfrwt>
<pdfrwt beam="2">  1       -2 0.34196734E-01 0.16909758E+04</pdfrwt>
<totfact> 0.97205377E+00</totfact>
</mgrwt>
</event>
<event>
12    1  0.1980523E-007  0.2346293E+04  0.7818608E-02  0.8459889E-01
         -2   -1    0    0    0  501 -0.00000000000E+00  0.00000000000E+00  0.14598084302E+04  0.14598084302E+04  0.00000000000E+00 0.  1.
          2   -1    0    0  501    0  0.00000000000E+00 -0.00000000000E+00 -0.94277589232E+03  0.94277589232E+03  0.00000000000E+00 0. -1.
         23    2    1    2    0    0 -0.96779948517E+03 -0.59053599939E+02 -0.62744352618E+02  0.97607779550E+03  0.93101224120E+02 0.  0.
        254    2    1    2    0    0  0.96779948517E+03  0.59053599939E+02  0.57977689052E+03  0.14265065270E+04  0.87100887352E+03 0.  0.
        -24    2    4    4    0    0  0.10079799988E+04  0.47866118048E+02  0.19490120391E+03  0.10310506032E+04  0.82243686329E+02 0.  0.
         24    2    4    4    0    0 -0.40180513615E+02  0.11187481891E+02  0.38487568661E+03  0.39545592380E+03  0.80724594165E+02 0.  0.
         13    1    3    3    0    0 -0.54742682188E+03  0.12099233532E+01 -0.66020418664E+02  0.55139485391E+03  0.00000000000E+00 0. -1.
        -13    1    3    3    0    0 -0.42037266328E+03 -0.60263523292E+02  0.32760660458E+01  0.42468294160E+03  0.00000000000E+00 0.  1.
          2    1    6    6  502    0 -0.12915199980E+02  0.28479073470E+02  0.33223141236E+03  0.33369982226E+03  0.00000000000E+00 0. -1.
          1    1    5    5  503    0  0.87690543951E+03  0.14950891977E+02  0.16051918665E+03  0.89160141784E+03  0.00000000000E+00 0. -1.
         -2    1    5    5    0  503  0.13107455927E+03  0.32915226071E+02  0.34382017265E+02  0.13944918539E+03  0.00000000000E+00 0.  1.
         -1    1    6    6    0  502 -0.27265313635E+02 -0.17291591579E+02  0.52644274251E+02  0.61756101547E+02  0.00000000000E+00 0.  1.
<mgrwt>
<rscale>  0 0.23462926E+04</rscale>
<asrwt>0</asrwt>
<pdfrwt beam="1">  1        2 0.14504245E+00 0.23462926E+04</pdfrwt>
<pdfrwt beam="2">  1       -2 0.22458591E+00 0.23462926E+04</pdfrwt>
<totfact> 0.22916959E+00</totfact>
</mgrwt>
</event>
<event>
12    1  0.1980523E-007  0.1650698E+04  0.7818608E-02  0.8789994E-01
         -2   -1    0    0    0  501 -0.00000000000E+00  0.00000000000E+00  0.98993299868E+03  0.98993299868E+03  0.00000000000E+00 0. -1.
          2   -1    0    0  501    0  0.00000000000E+00 -0.00000000000E+00 -0.68812805201E+03  0.68812805201E+03  0.00000000000E+00 0.  1.
         23    2    1    2    0    0  0.23987179475E+03  0.52418656855E+03  0.13107319930E+03  0.59835325128E+03  0.92392603497E+02 0.  0.
        254    2    1    2    0    0 -0.23987179475E+03 -0.52418656855E+03  0.17073174737E+03  0.10797077994E+04  0.89683307587E+03 0.  0.
        -24    2    4    4    0    0 -0.57706959336E+02 -0.74396600663E+03  0.28287741288E+02  0.75079119235E+03  0.77921152587E+02 0.  0.
         24    2    4    4    0    0 -0.18216483541E+03  0.21977943808E+03  0.14244400609E+03  0.32891660706E+03  0.80055048993E+02 0.  0.
         13    1    3    3    0    0  0.83311585431E+02  0.29218854448E+03  0.73875520772E+02  0.31268603800E+03  0.00000000000E+00 0. -1.
        -13    1    3    3    0    0  0.15656020932E+03  0.23199802407E+03  0.57197678532E+02  0.28566721328E+03  0.00000000000E+00 0.  1.
          4    1    6    6  502    0  0.27824074963E+01 -0.12519717403E+01  0.12334871626E+02  0.12706623578E+02  0.00000000000E+00 0. -1.
          3    1    5    5  503    0 -0.25235431752E+02 -0.10696551335E+03 -0.17655353939E+02  0.11131109372E+03  0.00000000000E+00 0. -1.
         -4    1    5    5    0  503 -0.32471527584E+02 -0.63700049328E+03  0.45943095227E+02  0.63948009863E+03  0.00000000000E+00 0.  1.
         -3    1    6    6    0  502 -0.18494724291E+03  0.22103140982E+03  0.13010913446E+03  0.31620998349E+03  0.00000000000E+00 0.  1.
<mgrwt>
<rscale>  0 0.16506976E+04</rscale>
<asrwt>0</asrwt>
<pdfrwt beam="1">  1        2 0.10586585E+00 0.16506976E+04</pdfrwt>
<pdfrwt beam="2">  1       -2 0.15229739E+00 0.16506976E+04</pdfrwt>
<totfact> 0.11501080E+01</totfact>
</mgrwt>
</event>
<event>
12    1  0.1980523E-007  0.1710864E+04  0.7818608E-02  0.8755193E-01
          1   -1    0    0  501    0  0.00000000000E+00  0.00000000000E+00  0.15559034596E+04  0.15559034596E+04  0.00000000000E+00 0. -1.
         -1   -1    0    0    0  501 -0.00000000000E+00 -0.00000000000E+00 -0.47031423908E+03  0.47031423908E+03  0.00000000000E+00 0.  1.
         23    2    1    2    0    0  0.52591312589E+03  0.30505501758E+03  0.28912414955E+03  0.67912733859E+03  0.89319585911E+02 0.  0.
        254    2    1    2    0    0 -0.52591312589E+03 -0.30505501758E+03  0.79646507096E+03  0.13470903601E+04  0.90036250991E+03 0.  0.
        -24    2    4    4    0    0 -0.72008483261E+03 -0.33341149324E+03  0.80713717276E+03  0.11350134294E+04  0.84259594792E+02 0.  0.
         24    2    4    4    0    0  0.19417170672E+03  0.28356475666E+02 -0.10672101806E+02  0.21207693067E+03  0.79724458997E+02 0.  0.
         13    1    3    3    0    0  0.34877134584E+03  0.23125681719E+03  0.16095125300E+03  0.44835975847E+03  0.00000000000E+00 0.  1.
        -13    1    3    3    0    0  0.17714178005E+03  0.73798200384E+02  0.12817289655E+03  0.23076758011E+03  0.00000000000E+00 0. -1.
          2    1    6    6  502    0  0.13373738071E+03  0.20179981273E+02  0.30303747508E+02  0.13860460222E+03  0.00000000000E+00 0. -1.
          3    1    5    5  503    0 -0.24953831923E+03 -0.88392743828E+02  0.22530879610E+03  0.34763012459E+03  0.00000000000E+00 0. -1.
         -4    1    5    5    0  503 -0.47054651338E+03 -0.24501874942E+03  0.58182837666E+03  0.78738330482E+03  0.00000000000E+00 0.  1.
         -1    1    6    6    0  502  0.60434326011E+02  0.81764943931E+01 -0.40975849314E+02  0.73472328450E+02  0.00000000000E+00 0.  1.
<mgrwt>
<rscale>  0 0.17108636E+04</rscale>
<asrwt>0</asrwt>
<pdfrwt beam="1">  1        1 0.23936976E+00 0.17108636E+04</pdfrwt>
<pdfrwt beam="2">  1       -1 0.72356038E-01 0.17108636E+04</pdfrwt>
<totfact> 0.10962121E+01</totfact>
</mgrwt>
</event>
<event>
12    1  0.1980523E-007  0.1478893E+04  0.7818608E-02  0.8898612E-01
         -1   -1    0    0    0  501 -0.00000000000E+00  0.00000000000E+00  0.11126055188E+04  0.11126055188E+04  0.00000000000E+00 0.  1.
          1   -1    0    0  501    0  0.00000000000E+00 -0.00000000000E+00 -0.49144186975E+03  0.49144186975E+03  0.00000000000E+00 0. -1.
         23    2    1    2    0    0 -0.29095138132E+03  0.34245655621E+03  0.29003014217E+03  0.54510314678E+03  0.10531266820E+03 0.  0.
        254    2    1    2    0    0  0.29095138132E+03 -0.34245655621E+03  0.33113350693E+03  0.10589442418E+04  0.89988016351E+03 0.  0.
        -24    2    4    4    0    0 -0.20911931089E+03  0.17335332240E+03  0.11450941296E+03  0.30450449000E+03  0.76343422776E+02 0.  0.
         24    2    4    4    0    0  0.50007069220E+03 -0.51580987861E+03  0.21662409397E+03  0.75443975182E+03  0.78248405534E+02 0.  0.
         13    1    3    3    0    0 -0.20683171405E+03  0.16389363232E+03  0.17496999357E+03  0.31663066703E+03  0.00000000000E+00 0.  1.
        -13    1    3    3    0    0 -0.84119667262E+02  0.17856292389E+03  0.11506014860E+03  0.22847247975E+03  0.00000000000E+00 0. -1.
          4    1    6    6  502    0  0.10286599655E+03 -0.64438042116E+02  0.39096280388E+02  0.12752330633E+03  0.00000000000E+00 0. -1.
          3    1    5    5  503    0 -0.25001723050E+02 -0.36636821614E+01  0.18046470764E+01  0.25333090485E+02  0.00000000000E+00 0. -1.
         -4    1    5    5    0  503 -0.18411758784E+03  0.17701700456E+03  0.11270476588E+03  0.27917139951E+03  0.00000000000E+00 0.  1.
         -3    1    6    6    0  502  0.39720469565E+03 -0.45137183649E+03  0.17752781358E+03  0.62691644549E+03  0.00000000000E+00 0.  1.
<mgrwt>
<rscale>  0 0.14788927E+04</rscale>
<asrwt>0</asrwt>
<pdfrwt beam="1">  1        1 0.75606442E-01 0.14788927E+04</pdfrwt>
<pdfrwt beam="2">  1       -1 0.17117008E+00 0.14788927E+04</pdfrwt>
<totfact> 0.10609809E+01</totfact>
</mgrwt>
</event>
<event>
12    1  0.1980523E-007  0.1965858E+04  0.7818608E-02  0.8622751E-01
          2   -1    0    0  501    0  0.00000000000E+00  0.00000000000E+00  0.13409255541E+04  0.13409255541E+04  0.00000000000E+00 0.  1.
         -2   -1    0    0    0  501 -0.00000000000E+00 -0.00000000000E+00 -0.72050953375E+03  0.72050953375E+03  0.00000000000E+00 0. -1.
         23    2    1    2    0    0  0.72807968617E+03  0.25662165084E+03  0.27746505396E+03  0.82576153997E+03  0.94554553721E+02 0.  0.
        254    2    1    2    0    0 -0.72807968617E+03 -0.25662165084E+03  0.34295096640E+03  0.12356735479E+04  0.90184203190E+03 0.  0.
        -24    2    4    4    0    0 -0.89549757395E+03 -0.35753020007E+03  0.22368424883E+03  0.99306629873E+03  0.80014258645E+02 0.  0.
         24    2    4    4    0    0  0.16741788777E+03  0.10090854923E+03  0.11926671758E+03  0.24260724917E+03  0.80140145831E+02 0.  0.
         11    1    3    3    0    0  0.27564329949E+03  0.56895908652E+02  0.12732503647E+03  0.30891428890E+03  0.00000000000E+00 0.  1.
        -11    1    3    3    0    0  0.45243638669E+03  0.19972574219E+03  0.15014001749E+03  0.51684725107E+03  0.00000000000E+00 0. -1.
          2    1    6    6  502    0  0.16397187668E+02 -0.12801704211E+02  0.39682553380E+01  0.21177781861E+02  0.00000000000E+00 0. -1.
          3    1    5    5  503    0 -0.46370458530E+03 -0.14210899956E+03  0.11012199610E+03  0.49733667089E+03  0.00000000000E+00 0. -1.
         -4    1    5    5    0  503 -0.43179298864E+03 -0.21542120051E+03  0.11356225273E+03  0.49572962784E+03  0.00000000000E+00 0.  1.
         -1    1    6    6    0  502  0.15102070010E+03  0.11371025344E+03  0.11529846224E+03  0.22142946731E+03  0.00000000000E+00 0.  1.
<mgrwt>
<rscale>  0 0.19658582E+04</rscale>
<asrwt>0</asrwt>
<pdfrwt beam="1">  1        2 0.20629624E+00 0.19658582E+04</pdfrwt>
<pdfrwt beam="2">  1       -2 0.11084762E+00 0.19658582E+04</pdfrwt>
<totfact> 0.94041936E+00</totfact>
</mgrwt>
</event>
<event>
12    1  0.1980523E-007  0.2165941E+04  0.7818608E-02  0.8532739E-01
         -2   -1    0    0    0  501 -0.00000000000E+00  0.00000000000E+00  0.91355261773E+03  0.91355261773E+03  0.00000000000E+00 0.  1.
          2   -1    0    0  501    0  0.00000000000E+00 -0.00000000000E+00 -0.12838074013E+04  0.12838074013E+04  0.00000000000E+00 0. -1.
         23    2    1    2    0    0  0.44071876923E+03  0.38247501754E+03  0.53266436948E+03  0.79531489426E+03  0.90963057950E+02 0.  0.
        254    2    1    2    0    0 -0.44071876923E+03 -0.38247501754E+03 -0.90291915304E+03  0.14020451248E+04  0.89997075639E+03 0.  0.
        -24    2    4    4    0    0 -0.44172709742E+03 -0.64394317881E+03 -0.76665111183E+03  0.10971661372E+04  0.78955425698E+02 0.  0.
         24    2    4    4    0    0  0.10083281859E+01  0.26146816127E+03 -0.13626804121E+03  0.30487898756E+03  0.77560311469E+02 0.  0.
         11    1    3    3    0    0  0.31043105503E+03  0.22369355160E+03  0.38122142232E+03  0.54012592771E+03  0.00000000000E+00 0.  1.
        -11    1    3    3    0    0  0.13028771420E+03  0.15878146594E+03  0.15144294716E+03  0.25518896654E+03  0.00000000000E+00 0. -1.
          2    1    6    6  502    0  0.16797926077E+02  0.85556127765E+02 -0.99892778674E+01  0.87759939556E+02  0.00000000000E+00 0. -1.
          1    1    5    5  503    0 -0.12434554684E+03 -0.13187797420E+03 -0.20315748239E+03  0.27226196530E+03  0.00000000000E+00 0. -1.
         -2    1    5    5    0  503 -0.31738155058E+03 -0.51206520461E+03 -0.56349362944E+03  0.82490417191E+03  0.00000000000E+00 0.  1.
         -1    1    6    6    0  502 -0.15789597891E+02  0.17591203350E+03 -0.12627876334E+03  0.21711904800E+03  0.00000000000E+00 0.  1.
<mgrwt>
<rscale>  0 0.21659415E+04</rscale>
<asrwt>0</asrwt>
<pdfrwt beam="1">  1        2 0.19750883E+00 0.21659415E+04</pdfrwt>
<pdfrwt beam="2">  1       -2 0.14054656E+00 0.21659415E+04</pdfrwt>
<totfact> 0.55069331E+00</totfact>
</mgrwt>
</event>
<event>
12    1  0.1980523E-007  0.1918120E+04  0.7818608E-02  0.8645889E-01
         -2   -1    0    0    0  501 -0.00000000000E+00  0.00000000000E+00  0.20499267127E+03  0.20499267127E+03  0.00000000000E+00 0. -1.
          2   -1    0    0  501    0  0.00000000000E+00 -0.00000000000E+00 -0.44869715379E+04  0.44869715379E+04  0.00000000000E+00 0.  1.
         23    2    1    2    0    0  0.77867553833E+02 -0.52820358335E+03 -0.40499468881E+03  0.67609581610E+03  0.89568259871E+02 0.  0.
        254    2    1    2    0    0 -0.77867553833E+02  0.52820358335E+03 -0.38769841779E+04  0.40158683931E+04  0.90062770002E+03 0.  0.
        -24    2    4    4    0    0 -0.69700861730E+02 -0.94138732388E+02 -0.24848691879E+04  0.24889574803E+04  0.81327403195E+02 0.  0.
         24    2    4    4    0    0 -0.81666921023E+01  0.62234231574E+03 -0.13921149900E+04  0.15269109129E+04  0.78077767033E+02 0.  0.
         11    1    3    3    0    0  0.97146875876E+02 -0.44192897939E+03 -0.32791336971E+03  0.55880758437E+03  0.00000000000E+00 0. -1.
        -11    1    3    3    0    0 -0.19279322044E+02 -0.86274603957E+02 -0.77081319105E+02  0.11728823173E+03  0.00000000000E+00 0.  1.
          2    1    6    6  502    0  0.23917372645E+02  0.15747436192E+03 -0.30342608992E+03  0.34269170901E+03  0.00000000000E+00 0. -1.
          1    1    5    5  503    0 -0.62935393168E+02 -0.38242929219E+02 -0.87144846768E+03  0.87455463933E+03  0.00000000000E+00 0. -1.
         -2    1    5    5    0  503 -0.67654685623E+01 -0.55895803169E+02 -0.16134207202E+04  0.16144028409E+04  0.00000000000E+00 0.  1.
         -1    1    6    6    0  502 -0.32084064748E+02  0.46486795382E+03 -0.10886889000E+04  0.11842192038E+04  0.00000000000E+00 0.  1.
<mgrwt>
<rscale>  0 0.19181202E+04</rscale>
<asrwt>0</asrwt>
<pdfrwt beam="1">  1        2 0.69030331E+00 0.19181202E+04</pdfrwt>
<pdfrwt beam="2">  1       -2 0.31537334E-01 0.19181202E+04</pdfrwt>
<totfact> 0.11275485E+00</totfact>
</mgrwt>
</event>
<event>
12    1  0.1980523E-007  0.1598019E+04  0.7818608E-02  0.8821766E-01
         -2   -1    0    0    0  501 -0.00000000000E+00  0.00000000000E+00  0.76964555558E+03  0.76964555558E+03  0.00000000000E+00 0. -1.
          2   -1    0    0  501    0  0.00000000000E+00 -0.00000000000E+00 -0.82949350539E+03  0.82949350539E+03  0.00000000000E+00 0.  1.
         23    2    1    2    0    0 -0.14089655511E+03 -0.23577790800E+03  0.44562693353E+03  0.53121941437E+03  0.90375003053E+02 0.  0.
        254    2    1    2    0    0  0.14089655511E+03  0.23577790800E+03 -0.50547488335E+03  0.10679196466E+04  0.89972465384E+03 0.  0.
        -24    2    4    4    0    0  0.19245658096E+03 -0.54031951763E+02  0.20340237994E+03  0.29599158205E+03  0.79243303280E+02 0.  0.
         24    2    4    4    0    0 -0.51560025855E+02  0.28980985976E+03 -0.70887726329E+03  0.77192806453E+03  0.81962011518E+02 0.  0.
         13    1    3    3    0    0 -0.57985401081E+02 -0.78460349807E+02  0.24169771282E+03  0.26064557854E+03  0.00000000000E+00 0. -1.
        -13    1    3    3    0    0 -0.82911154025E+02 -0.15731755819E+03  0.20392922071E+03  0.27057383583E+03  0.00000000000E+00 0.  1.
          2    1    6    6  502    0 -0.49769275774E+01  0.16542988707E+03 -0.47448036833E+03  0.50251710148E+03  0.00000000000E+00 0. -1.
          1    1    5    5  503    0  0.81665150377E+02 -0.15059748660E+02  0.13934319791E+03  0.16221134245E+03  0.00000000000E+00 0. -1.
         -2    1    5    5    0  503  0.11079143058E+03 -0.38972203103E+02  0.64059182027E+02  0.13378023960E+03  0.00000000000E+00 0.  1.
         -1    1    6    6    0  502 -0.46583098278E+02  0.12437997269E+03 -0.23439689495E+03  0.26941096306E+03  0.00000000000E+00 0.  1.
<mgrwt>
<rscale>  0 0.15980188E+04</rscale>
<asrwt>0</asrwt>
<pdfrwt beam="1">  1        2 0.12761439E+00 0.15980188E+04</pdfrwt>
<pdfrwt beam="2">  1       -2 0.11840701E+00 0.15980188E+04</pdfrwt>
<totfact> 0.17273347E+01</totfact>
</mgrwt>
</event>
<event>
12    1  0.1980523E-007  0.1496083E+04  0.7818608E-02  0.8887062E-01
         -1   -1    0    0    0  501 -0.00000000000E+00  0.00000000000E+00  0.45727438613E+03  0.45727438613E+03  0.00000000000E+00 0.  1.
          1   -1    0    0  501    0  0.00000000000E+00 -0.00000000000E+00 -0.12236989138E+04  0.12236989138E+04  0.00000000000E+00 0. -1.
         23    2    1    2    0    0 -0.39372762183E+03 -0.26055623056E+03 -0.26813469040E+03  0.55030273403E+03  0.89587373080E+02 0.  0.
        254    2    1    2    0    0  0.39372762183E+03  0.26055623056E+03 -0.49828983727E+03  0.11306705659E+04  0.89844987462E+03 0.  0.
        -24    2    4    4    0    0  0.42238974138E+03 -0.10612680684E+02  0.12342848271E+03  0.44720794990E+03  0.78959720751E+02 0.  0.
         24    2    4    4    0    0 -0.28662119551E+02  0.27116891124E+03 -0.62171831999E+03  0.68346261600E+03  0.78951773492E+02 0.  0.
         13    1    3    3    0    0 -0.31200659181E+03 -0.18914431640E+03 -0.16445554656E+03  0.40021158473E+03  0.00000000000E+00 0.  1.
        -13    1    3    3    0    0 -0.81721030017E+02 -0.71411914158E+02 -0.10367914384E+03  0.15009114930E+03  0.00000000000E+00 0. -1.
          2    1    6    6  502    0 -0.14293604371E+02  0.22285329732E+03 -0.56528436550E+03  0.60779463071E+03  0.00000000000E+00 0. -1.
          1    1    5    5  503    0  0.34505347392E+02  0.18920522975E+02  0.22461405162E+02  0.45311366236E+02  0.00000000000E+00 0. -1.
         -2    1    5    5    0  503  0.38788439399E+03 -0.29533203659E+02  0.10096707755E+03  0.40189658367E+03  0.00000000000E+00 0.  1.
         -1    1    6    6    0  502 -0.14368515179E+02  0.48315613924E+02 -0.56433954492E+02  0.75667985284E+02  0.00000000000E+00 0.  1.
<mgrwt>
<rscale>  0 0.14960831E+04</rscale>
<asrwt>0</asrwt>
<pdfrwt beam="1">  1        1 0.18826137E+00 0.14960831E+04</pdfrwt>
<pdfrwt beam="2">  1       -1 0.70349907E-01 0.14960831E+04</pdfrwt>
<totfact> 0.20292135E+01</totfact>
</mgrwt>
</event>
<event>
12    1  0.1980523E-007  0.1506985E+04  0.7818608E-02  0.8879821E-01
         -1   -1    0    0    0  501 -0.00000000000E+00  0.00000000000E+00  0.32571241403E+03  0.32571241403E+03  0.00000000000E+00 0.  1.
          1   -1    0    0  501    0  0.00000000000E+00 -0.00000000000E+00 -0.17431049418E+04  0.17431049418E+04  0.00000000000E+00 0. -1.
         23    2    1    2    0    0 -0.36948715701E+03 -0.18230054529E+03 -0.12755248761E+03  0.44056306822E+03  0.89843931215E+02 0.  0.
        254    2    1    2    0    0  0.36948715701E+03  0.18230054529E+03 -0.12898400401E+04  0.16282542876E+04  0.90430661168E+03 0.  0.
        -24    2    4    4    0    0  0.65385717874E+03  0.54399666989E+02 -0.97689671831E+03  0.11795830515E+04  0.81243111551E+02 0.  0.
         24    2    4    4    0    0 -0.28437002172E+03  0.12790087830E+03 -0.31294332182E+03  0.44867123610E+03  0.78405430319E+02 0.  0.
         13    1    3    3    0    0 -0.16150434529E+03 -0.12794257947E+03 -0.74969891588E+02  0.21925656623E+03  0.00000000000E+00 0. -1.
        -13    1    3    3    0    0 -0.20798281172E+03 -0.54357965812E+02 -0.52582596025E+02  0.22130650199E+03  0.00000000000E+00 0.  1.
          2    1    6    6  502    0 -0.28035022463E+03  0.13304300586E+03 -0.31464567047E+03  0.44192599811E+03  0.00000000000E+00 0. -1.
          1    1    5    5  503    0  0.64817232157E+03  0.61805772370E+02 -0.96852844128E+03  0.11670452663E+04  0.00000000000E+00 0. -1.
         -2    1    5    5    0  503  0.56848571657E+01 -0.74061053816E+01 -0.83682770217E+01  0.12537785220E+02  0.00000000000E+00 0.  1.
         -1    1    6    6    0  502 -0.40197970949E+01 -0.51421275664E+01  0.17023486487E+01  0.67452379880E+01  0.00000000000E+00 0.  1.
<mgrwt>
<rscale>  0 0.15069850E+04</rscale>
<asrwt>0</asrwt>
<pdfrwt beam="1">  1        1 0.26816999E+00 0.15069850E+04</pdfrwt>
<pdfrwt beam="2">  1       -1 0.50109602E-01 0.15069850E+04</pdfrwt>
<totfact> 0.17214328E+01</totfact>
</mgrwt>
</event>
<event>
12    1  0.1980523E-007  0.2063906E+04  0.7818608E-02  0.8577312E-01
         -2   -1    0    0    0  501 -0.00000000000E+00  0.00000000000E+00  0.11234970928E+04  0.11234970928E+04  0.00000000000E+00 0.  1.
          2   -1    0    0  501    0  0.00000000000E+00 -0.00000000000E+00 -0.94786784138E+03  0.94786784138E+03  0.00000000000E+00 0. -1.
         23    2    1    2    0    0  0.69497656680E+03 -0.14673169821E+03  0.50537491654E+03  0.87643381107E+03  0.90607942543E+02 0.  0.
        254    2    1    2    0    0 -0.69497656680E+03  0.14673169821E+03 -0.32974566514E+03  0.11949311231E+04  0.90255502082E+03 0.  0.
        -24    2    4    4    0    0 -0.42948993829E+03  0.44823582112E+03 -0.44701912694E+03  0.76897270845E+03  0.78204654959E+02 0.  0.
         24    2    4    4    0    0 -0.26548662851E+03 -0.30150412291E+03  0.11727346179E+03  0.42595841465E+03  0.79370146297E+02 0.  0.
         11    1    3    3    0    0  0.43029814631E+03 -0.53655529168E+02  0.33736308300E+03  0.54940809996E+03  0.00000000000E+00 0.  1.
        -11    1    3    3    0    0  0.26467842049E+03 -0.93076169042E+02  0.16801183354E+03  0.32702571111E+03  0.00000000000E+00 0. -1.
          2    1    6    6  502    0 -0.24022063064E+03 -0.29965956728E+03  0.10767830591E+03  0.39886893237E+03  0.00000000000E+00 0. -1.
          3    1    5    5  503    0 -0.30130349563E+03  0.35339921603E+03 -0.30645742868E+03  0.55640898444E+03  0.00000000000E+00 0. -1.
         -4    1    5    5    0  503 -0.12818644267E+03  0.94836605092E+02 -0.14056169826E+03  0.21256372401E+03  0.00000000000E+00 0.  1.
         -1    1    6    6    0  502 -0.25265997868E+02 -0.18445556292E+01  0.95951558824E+01  0.27089482279E+02  0.00000000000E+00 0.  1.
<mgrwt>
<rscale>  0 0.20639058E+04</rscale>
<asrwt>0</asrwt>
<pdfrwt beam="1">  1        2 0.14582582E+00 0.20639058E+04</pdfrwt>
<pdfrwt beam="2">  1       -2 0.17284571E+00 0.20639058E+04</pdfrwt>
<totfact> 0.51208634E+00</totfact>
</mgrwt>
</event>
<event>
12    1  0.1980523E-007  0.1681644E+04  0.7818608E-02  0.8771903E-01
         -2   -1    0    0    0  501 -0.00000000000E+00  0.00000000000E+00  0.15770926288E+04  0.15770926288E+04  0.00000000000E+00 0.  1.
          2   -1    0    0  501    0  0.00000000000E+00 -0.00000000000E+00 -0.44828152462E+03  0.44828152462E+03  0.00000000000E+00 0. -1.
         23    2    1    2    0    0 -0.29544194182E+03  0.48774825912E+03  0.19399318364E+03  0.60939670623E+03  0.92448282888E+02 0.  0.
        254    2    1    2    0    0  0.29544194182E+03 -0.48774825912E+03  0.93481792055E+03  0.14159774472E+04  0.89773229926E+03 0.  0.
        -24    2    4    4    0    0  0.54932884209E+03 -0.49076308407E+03  0.86864719676E+03  0.11416933952E+04  0.79405760344E+02 0.  0.
         24    2    4    4    0    0 -0.25388690027E+03  0.30148249481E+01  0.66170723787E+02  0.27428405199E+03  0.79909506258E+02 0.  0.
         11    1    3    3    0    0 -0.15721823086E+03  0.23387059737E+03  0.14248425814E+03  0.31577649096E+03  0.00000000000E+00 0.  1.
        -11    1    3    3    0    0 -0.13822371096E+03  0.25387766175E+03  0.51508925496E+02  0.29362021527E+03  0.00000000000E+00 0. -1.
          4    1    6    6  502    0 -0.34331854473E+02  0.20085825270E+02  0.32793637067E+02  0.51551326272E+02  0.00000000000E+00 0. -1.
          1    1    5    5  503    0  0.10654085388E+03 -0.87982500420E+02  0.11872473695E+03  0.18217419436E+03  0.00000000000E+00 0. -1.
         -2    1    5    5    0  503  0.44278798821E+03 -0.40278058365E+03  0.74992245981E+03  0.95951920085E+03  0.00000000000E+00 0.  1.
         -3    1    6    6    0  502 -0.21955504580E+03 -0.17071000322E+02  0.33377086721E+02  0.22273272572E+03  0.00000000000E+00 0.  1.
<mgrwt>
<rscale>  0 0.16816438E+04</rscale>
<asrwt>0</asrwt>
<pdfrwt beam="1">  1        2 0.68966389E-01 0.16816438E+04</pdfrwt>
<pdfrwt beam="2">  1       -2 0.24262963E+00 0.16816438E+04</pdfrwt>
<totfact> 0.47487991E+00</totfact>
</mgrwt>
</event>
<event>
12    1  0.1980523E-007  0.2012833E+04  0.7818608E-02  0.8600644E-01
          2   -1    0    0  501    0  0.00000000000E+00  0.00000000000E+00  0.14779390123E+04  0.14779390123E+04  0.00000000000E+00 0. -1.
         -2   -1    0    0    0  501 -0.00000000000E+00 -0.00000000000E+00 -0.68532857308E+03  0.68532857308E+03  0.00000000000E+00 0.  1.
         23    2    1    2    0    0 -0.57219654701E+02 -0.32725699930E+02  0.11788164889E+04  0.11841816927E+04  0.91284755223E+02 0.  0.
        254    2    1    2    0    0  0.57219654701E+02  0.32725699930E+02 -0.38620604966E+03  0.97908589269E+03  0.89727867029E+03 0.  0.
        -24    2    4    4    0    0  0.21523660532E+02 -0.14431777708E+03 -0.63763418230E+03  0.65904651416E+03  0.80461597363E+02 0.  0.
         24    2    4    4    0    0  0.35695994168E+02  0.17704347701E+03  0.25142813264E+03  0.32003937853E+03  0.81181901778E+02 0.  0.
         13    1    3    3    0    0 -0.80847797115E+02 -0.16530767222E+02  0.95045609923E+03  0.95403167092E+03  0.00000000000E+00 0. -1.
        -13    1    3    3    0    0  0.23628142414E+02 -0.16194932708E+02  0.22836038963E+03  0.23015002175E+03  0.00000000000E+00 0.  1.
          4    1    6    6  502    0 -0.20117357814E+02  0.11193097150E+02  0.28855038717E+02  0.36913503878E+02  0.00000000000E+00 0. -1.
          3    1    5    5  503    0  0.20183043224E+02 -0.51895490618E+02 -0.40355879636E+03  0.40738212933E+03  0.00000000000E+00 0. -1.
         -4    1    5    5    0  503  0.13406173085E+01 -0.92422286458E+02 -0.23407538594E+03  0.25166438483E+03  0.00000000000E+00 0.  1.
         -3    1    6    6    0  502  0.55813351983E+02  0.16585037986E+03  0.22257309392E+03  0.28312587465E+03  0.00000000000E+00 0.  1.
<mgrwt>
<rscale>  0 0.20128327E+04</rscale>
<asrwt>0</asrwt>
<pdfrwt beam="1">  1        2 0.22737523E+00 0.20128327E+04</pdfrwt>
<pdfrwt beam="2">  1       -2 0.10543517E+00 0.20128327E+04</pdfrwt>
<totfact> 0.88257188E+00</totfact>
</mgrwt>
</event>
<event>
12    1  0.1980523E-007  0.3574555E+04  0.7818608E-02  0.8096345E-01
         -2   -1    0    0    0  501 -0.00000000000E+00  0.00000000000E+00  0.26051048747E+04  0.26051048747E+04  0.00000000000E+00 0.  1.
          2   -1    0    0  501    0  0.00000000000E+00 -0.00000000000E+00 -0.12261926210E+04  0.12261926210E+04  0.00000000000E+00 0. -1.
         23    2    1    2    0    0 -0.11923228826E+04  0.11666588590E+04  0.77080649371E+03  0.18407114026E+04  0.10653200130E+03 0.  0.
        254    2    1    2    0    0  0.11923228826E+04 -0.11666588590E+04  0.60810575991E+03  0.19905860931E+04  0.89995201506E+03 0.  0.
        -24    2    4    4    0    0 -0.75198879624E+02 -0.34849658615E+03  0.23502642852E+03  0.43450812257E+03  0.80343913448E+02 0.  0.
         24    2    4    4    0    0  0.12675217622E+04 -0.81816227282E+03  0.37307933139E+03  0.15560779706E+04  0.78673633615E+02 0.  0.
         11    1    3    3    0    0 -0.83823579430E+03  0.81631252926E+03  0.48639168693E+03  0.12671157269E+04  0.00000000000E+00 0. -1.
        -11    1    3    3    0    0 -0.35408708827E+03  0.35034632971E+03  0.28441480678E+03  0.57359567566E+03  0.00000000000E+00 0.  1.
          4    1    6    6  502    0  0.11431600606E+04 -0.74504631171E+03  0.36009131595E+03  0.14112316205E+04  0.00000000000E+00 0. -1.
          3    1    5    5  503    0 -0.51336610269E+02 -0.76102992582E+02  0.65718567983E+02  0.11289837559E+03  0.00000000000E+00 0. -1.
         -4    1    5    5    0  503 -0.23862269354E+02 -0.27239359357E+03  0.16930786053E+03  0.32160974698E+03  0.00000000000E+00 0.  1.
         -3    1    6    6    0  502  0.12436170158E+03 -0.73115961113E+02  0.12988015444E+02  0.14484635009E+03  0.00000000000E+00 0.  1.
<mgrwt>
<rscale>  0 0.35745547E+04</rscale>
<asrwt>0</asrwt>
<pdfrwt beam="1">  1        2 0.18864502E+00 0.35745547E+04</pdfrwt>
<pdfrwt beam="2">  1       -2 0.40078536E+00 0.35745547E+04</pdfrwt>
<totfact> 0.10936973E-01</totfact>
</mgrwt>
</event>
<event>
12    1  0.1980523E-007  0.2058555E+04  0.7818608E-02  0.8579723E-01
         -3   -1    0    0    0  501 -0.00000000000E+00  0.00000000000E+00  0.15847014197E+04  0.15847014197E+04  0.00000000000E+00 0.  1.
          3   -1    0    0  501    0  0.00000000000E+00 -0.00000000000E+00 -0.66852488410E+03  0.66852488410E+03  0.00000000000E+00 0. -1.
         23    2    1    2    0    0  0.60541247367E+03 -0.50429072012E+03  0.85769626806E+02  0.79826782599E+03  0.95087851235E+02 0.  0.
        254    2    1    2    0    0 -0.60541247367E+03  0.50429072012E+03  0.83040690879E+03  0.14549584778E+04  0.89805074705E+03 0.  0.
        -24    2    4    4    0    0 -0.75624789390E+03  0.61893335417E+03  0.61590477531E+03  0.11578676437E+04  0.79557615275E+02 0.  0.
         24    2    4    4    0    0  0.15083542023E+03 -0.11464263405E+03  0.21450213348E+03  0.29709083410E+03  0.79734189033E+02 0.  0.
         11    1    3    3    0    0  0.21372071480E+03 -0.12171881559E+03  0.18942625623E+02  0.24667962435E+03  0.00000000000E+00 0.  1.
        -11    1    3    3    0    0  0.39169175887E+03 -0.38257190453E+03  0.66827001182E+02  0.55158820164E+03  0.00000000000E+00 0. -1.
          4    1    6    6  502    0  0.13880004575E+03 -0.97460793032E+02  0.14069804553E+03  0.22036333383E+03  0.00000000000E+00 0. -1.
          3    1    5    5  503    0 -0.75816101635E+03  0.61621907424E+03  0.61255710761E+03  0.11531523248E+04  0.00000000000E+00 0. -1.
         -4    1    5    5    0  503  0.19131224502E+01  0.27142799322E+01  0.33476677042E+01  0.47153188776E+01  0.00000000000E+00 0.  1.
         -3    1    6    6    0  502  0.12035374473E+02 -0.17181841018E+02  0.73804087955E+02  0.76727500274E+02  0.00000000000E+00 0.  1.
<mgrwt>
<rscale>  0 0.20585552E+04</rscale>
<asrwt>0</asrwt>
<pdfrwt beam="1">  1        3 0.10284998E+00 0.20585552E+04</pdfrwt>
<pdfrwt beam="2">  1       -3 0.24380022E+00 0.20585552E+04</pdfrwt>
<totfact> 0.15720409E-01</totfact>
</mgrwt>
</event>
<event>
12    1  0.1980523E-007  0.1746576E+04  0.7818608E-02  0.8735237E-01
          1   -1    0    0  501    0  0.00000000000E+00  0.00000000000E+00  0.54847442134E+03  0.54847442134E+03  0.00000000000E+00 0. -1.
         -1   -1    0    0    0  501 -0.00000000000E+00 -0.00000000000E+00 -0.13904602220E+04  0.13904602220E+04  0.00000000000E+00 0.  1.
         23    2    1    2    0    0  0.54786896424E+03 -0.21532619389E+03 -0.57977634044E+03  0.83124793294E+03  0.91141370026E+02 0.  0.
        254    2    1    2    0    0 -0.54786896424E+03  0.21532619389E+03 -0.26220946018E+03  0.11076867104E+04  0.90093855259E+03 0.  0.
        -24    2    4    4    0    0 -0.26654922187E+03  0.25129044971E+03 -0.56955572996E+03  0.68185987060E+03  0.79647823640E+02 0.  0.
         24    2    4    4    0    0 -0.28131974237E+03 -0.35964255824E+02  0.30734626978E+03  0.42582683976E+03  0.80203134419E+02 0.  0.
         13    1    3    3    0    0  0.83401425806E+02  0.57079598621E+00 -0.86029004334E+02  0.11982117184E+03  0.00000000000E+00 0. -1.
        -13    1    3    3    0    0  0.46446753843E+03 -0.21589698987E+03 -0.49374733611E+03  0.71142676110E+03  0.00000000000E+00 0.  1.
          4    1    6    6  502    0 -0.59354712754E+01 -0.16845452582E+02  0.27104277888E+02  0.32459836287E+02  0.00000000000E+00 0. -1.
          3    1    5    5  503    0 -0.14043175366E+03  0.14858617890E+03 -0.24715652846E+03  0.32075735308E+03  0.00000000000E+00 0. -1.
         -4    1    5    5    0  503 -0.12611746821E+03  0.10270427081E+03 -0.32239920150E+03  0.36110251751E+03  0.00000000000E+00 0.  1.
         -3    1    6    6    0  502 -0.27538427110E+03 -0.19118803242E+02  0.28024199189E+03  0.39336700347E+03  0.00000000000E+00 0.  1.
<mgrwt>
<rscale>  0 0.17465759E+04</rscale>
<asrwt>0</asrwt>
<pdfrwt beam="1">  1        1 0.84380681E-01 0.17465759E+04</pdfrwt>
<pdfrwt beam="2">  1       -1 0.21391695E+00 0.17465759E+04</pdfrwt>
<totfact> 0.44634621E+00</totfact>
</mgrwt>
</event>
<event>
12    1  0.1980523E-007  0.1608394E+04  0.7818608E-02  0.8815408E-01
         -1   -1    0    0    0  501 -0.00000000000E+00  0.00000000000E+00  0.14188815031E+03  0.14188815031E+03  0.00000000000E+00 0.  1.
          1   -1    0    0  501    0  0.00000000000E+00 -0.00000000000E+00 -0.45580455671E+04  0.45580455671E+04  0.00000000000E+00 0. -1.
         23    2    1    2    0    0 -0.35196548142E+02 -0.53625514994E+03 -0.12076153955E+04  0.13248313452E+04  0.89636860653E+02 0.  0.
        254    2    1    2    0    0  0.35196548142E+02  0.53625514994E+03 -0.32085420213E+04  0.33751023723E+04  0.89875788627E+03 0.  0.
        -24    2    4    4    0    0 -0.10431117240E+03  0.73694978944E+03 -0.19077983090E+04  0.20493355087E+04  0.78139788399E+02 0.  0.
         24    2    4    4    0    0  0.13950772054E+03 -0.20069463951E+03 -0.13007437123E+04  0.13257668636E+04  0.77348749716E+02 0.  0.
         11    1    3    3    0    0  0.15249087188E+02 -0.38650101033E+03 -0.85387749634E+03  0.93740191188E+03  0.00000000000E+00 0.  1.
        -11    1    3    3    0    0 -0.50445635330E+02 -0.14975413960E+03 -0.35373789918E+03  0.38742943327E+03  0.00000000000E+00 0. -1.
          4    1    6    6  502    0  0.94021060784E+02 -0.70212743716E+02 -0.65106526136E+03  0.66155556365E+03  0.00000000000E+00 0. -1.
          3    1    5    5  503    0 -0.39851070764E+02  0.26918616973E+03 -0.80327020795E+03  0.84811103565E+03  0.00000000000E+00 0. -1.
         -4    1    5    5    0  503 -0.64460101637E+02  0.46776361971E+03 -0.11045281010E+04  0.12012244730E+04  0.00000000000E+00 0.  1.
         -3    1    6    6    0  502  0.45486659760E+02 -0.13048189579E+03 -0.64967845095E+03  0.66421129995E+03  0.00000000000E+00 0.  1.
<mgrwt>
<rscale>  0 0.16083938E+04</rscale>
<asrwt>0</asrwt>
<pdfrwt beam="1">  1        1 0.70123785E+00 0.16083938E+04</pdfrwt>
<pdfrwt beam="2">  1       -1 0.21828944E-01 0.16083938E+04</pdfrwt>
<totfact> 0.48734170E-01</totfact>
</mgrwt>
</event>
<event>
12    1  0.1980523E-007  0.1904200E+04  0.7818608E-02  0.8652769E-01
         -1   -1    0    0    0  501 -0.00000000000E+00  0.00000000000E+00  0.97682554976E+03  0.97682554976E+03  0.00000000000E+00 0.  1.
          1   -1    0    0  501    0  0.00000000000E+00 -0.00000000000E+00 -0.92799983602E+03  0.92799983602E+03  0.00000000000E+00 0. -1.
         23    2    1    2    0    0  0.44290347830E+03 -0.46043861539E+03 -0.35476396929E+03  0.73618526109E+03  0.89129429003E+02 0.  0.
        254    2    1    2    0    0 -0.44290347830E+03  0.46043861539E+03  0.40358968303E+03  0.11686401247E+04  0.89144147266E+03 0.  0.
        -24    2    4    4    0    0  0.35243237006E+02  0.28639940858E+03 -0.21194051274E+03  0.36602540109E+03  0.76086176871E+02 0.  0.
         24    2    4    4    0    0 -0.47814671530E+03  0.17403920681E+03  0.61553019577E+03  0.80261472361E+03  0.79994035899E+02 0.  0.
         13    1    3    3    0    0  0.25700622834E+03 -0.24399440441E+03 -0.24333662602E+03  0.42988159340E+03  0.00000000000E+00 0. -1.
        -13    1    3    3    0    0  0.18589724996E+03 -0.21644421099E+03 -0.11142734327E+03  0.30630366769E+03  0.00000000000E+00 0.  1.
          4    1    6    6  502    0 -0.30824731968E+03  0.13493335337E+03  0.45271516937E+03  0.56406953873E+03  0.00000000000E+00 0. -1.
          3    1    5    5  503    0 -0.25845225445E+01  0.18199723205E+03 -0.16426775621E+03  0.24518068431E+03  0.00000000000E+00 0. -1.
         -4    1    5    5    0  503  0.37827759551E+02  0.10440217653E+03 -0.47672756534E+02  0.12084471678E+03  0.00000000000E+00 0.  1.
         -3    1    6    6    0  502 -0.16989939563E+03  0.39105853439E+02  0.16281502640E+03  0.23854518488E+03  0.00000000000E+00 0.  1.
<mgrwt>
<rscale>  0 0.19041995E+04</rscale>
<asrwt>0</asrwt>
<pdfrwt beam="1">  1        1 0.14276921E+00 0.19041995E+04</pdfrwt>
<pdfrwt beam="2">  1       -1 0.15028085E+00 0.19041995E+04</pdfrwt>
<totfact> 0.56058934E+00</totfact>
</mgrwt>
</event>
<event>
12    1  0.1980523E-007  0.1894997E+04  0.7818608E-02  0.8657351E-01
         -2   -1    0    0    0  501 -0.00000000000E+00  0.00000000000E+00  0.51261832209E+03  0.51261832209E+03  0.00000000000E+00 0.  1.
          2   -1    0    0  501    0  0.00000000000E+00 -0.00000000000E+00 -0.17513087858E+04  0.17513087858E+04  0.00000000000E+00 0. -1.
         23    2    1    2    0    0  0.17540139911E+03 -0.47729277872E+03  0.14508843019E+03  0.53691487514E+03  0.93020874788E+02 0.  0.
        254    2    1    2    0    0 -0.17540139911E+03  0.47729277872E+03 -0.13837788939E+04  0.17270122327E+04  0.89952941999E+03 0.  0.
        -24    2    4    4    0    0 -0.81987216993E+02 -0.15954245893E+03 -0.89144137427E+03  0.91271418651E+03  0.78763967285E+02 0.  0.
         24    2    4    4    0    0 -0.93414182116E+02  0.63683523765E+03 -0.49233751959E+03  0.81429804621E+03  0.79998409569E+02 0.  0.
         13    1    3    3    0    0  0.40044967419E+02 -0.39235211587E+02  0.16430436049E+00  0.56062717021E+02  0.00000000000E+00 0. -1.
        -13    1    3    3    0    0  0.13535643169E+03 -0.43805756713E+03  0.14492412583E+03  0.48085215812E+03  0.00000000000E+00 0.  1.
          4    1    6    6  502    0 -0.97197778064E+02  0.40862321436E+03 -0.30642373071E+03  0.51991907266E+03  0.00000000000E+00 0. -1.
          3    1    5    5  503    0 -0.18819181835E+02 -0.73189597907E+02 -0.54251496161E+03  0.54775301224E+03  0.00000000000E+00 0. -1.
         -2    1    5    5    0  503 -0.63168035158E+02 -0.86352861020E+02 -0.34892641267E+03  0.36496117427E+03  0.00000000000E+00 0.  1.
         -3    1    6    6    0  502  0.37835959488E+01  0.22821202329E+03 -0.18591378888E+03  0.29437897355E+03  0.00000000000E+00 0.  1.
<mgrwt>
<rscale>  0 0.18949965E+04</rscale>
<asrwt>0</asrwt>
<pdfrwt beam="1">  1        2 0.26943212E+00 0.18949965E+04</pdfrwt>
<pdfrwt beam="2">  1       -2 0.78864358E-01 0.18949965E+04</pdfrwt>
<totfact> 0.12280871E+01</totfact>
</mgrwt>
</event>
<event>
12    1  0.1980523E-007  0.3391636E+04  0.7818608E-02  0.8139962E-01
          1   -1    0    0  501    0  0.00000000000E+00  0.00000000000E+00  0.20438916165E+04  0.20438916165E+04  0.00000000000E+00 0. -1.
         -1   -1    0    0    0  501 -0.00000000000E+00 -0.00000000000E+00 -0.14070213952E+04  0.14070213952E+04  0.00000000000E+00 0.  1.
         23    2    1    2    0    0 -0.13559899791E+04 -0.31318161680E+03  0.10471916311E+04  0.17440313612E+04  0.90793875907E+02 0.  0.
        254    2    1    2    0    0  0.13559899791E+04  0.31318161680E+03 -0.41032140983E+03  0.17068816506E+04  0.89904936520E+03 0.  0.
        -24    2    4    4    0    0  0.13928765480E+04  0.69610821444E+02 -0.33523032683E+03  0.14366796230E+04  0.81964763465E+02 0.  0.
         24    2    4    4    0    0 -0.36886568896E+02  0.24357079535E+03 -0.75091082997E+02  0.27020202762E+03  0.81750312966E+02 0.  0.
         11    1    3    3    0    0 -0.98634346825E+03 -0.26367796167E+03  0.74197416527E+03  0.12621113924E+04  0.00000000000E+00 0. -1.
        -11    1    3    3    0    0 -0.36964651089E+03 -0.49503655120E+02  0.30521746587E+03  0.48191996883E+03  0.00000000000E+00 0.  1.
          2    1    6    6  502    0 -0.36940435736E+02  0.22697436407E+03 -0.90906125083E+02  0.24727693244E+03  0.00000000000E+00 0. -1.
          1    1    5    5  503    0  0.76835089222E+03  0.21833758272E+00 -0.16955772349E+03  0.78683731663E+03  0.00000000000E+00 0. -1.
         -2    1    5    5    0  503  0.62452565581E+03  0.69392483861E+02 -0.16567260334E+03  0.64984230632E+03  0.00000000000E+00 0.  1.
         -1    1    6    6    0  502  0.53866839517E-01  0.16596431282E+02  0.15815042086E+02  0.22925095182E+02  0.00000000000E+00 0.  1.
<mgrwt>
<rscale>  0 0.33916363E+04</rscale>
<asrwt>0</asrwt>
<pdfrwt beam="1">  1        1 0.31444486E+00 0.33916363E+04</pdfrwt>
<pdfrwt beam="2">  1       -1 0.21646483E+00 0.33916363E+04</pdfrwt>
<totfact> 0.26627773E-01</totfact>
</mgrwt>
</event>
<event>
12    1  0.2460435E-007  0.3246204E+04  0.7818608E-02  0.8176720E-01
          2   -1    0    0  501    0  0.00000000000E+00  0.00000000000E+00  0.26292826778E+04  0.26292826778E+04  0.00000000000E+00 0.  1.
         -2   -1    0    0    0  501 -0.00000000000E+00 -0.00000000000E+00 -0.10019688429E+04  0.10019688429E+04  0.00000000000E+00 0. -1.
         23    2    1    2    0    0 -0.94545853926E+03  0.37421304927E+03  0.19806973491E+04  0.22283747695E+04  0.92546575195E+02 0.  0.
        254    2    1    2    0    0  0.94545853926E+03 -0.37421304927E+03 -0.35338351428E+03  0.14028767512E+04  0.89958658022E+03 0.  0.
        -24    2    4    4    0    0  0.62220599768E+03 -0.27109080731E+03 -0.65097957222E+03  0.94450305965E+03  0.87641867201E+02 0.  0.
         24    2    4    4    0    0  0.32325254159E+03 -0.10312224196E+03  0.29759605794E+03  0.45837369159E+03  0.80103838938E+02 0.  0.
         13    1    3    3    0    0 -0.50652320130E+03  0.24988246973E+03  0.11014326294E+04  0.12378048470E+04  0.00000000000E+00 0.  1.
        -13    1    3    3    0    0 -0.43893533796E+03  0.12433057954E+03  0.87926471973E+03  0.99056992246E+03  0.00000000000E+00 0. -1.
          4    1    6    6  502    0  0.13160973072E+03 -0.50412222110E+02  0.73906031781E+02  0.15913709464E+03  0.00000000000E+00 0. -1.
          1    1    5    5  503    0  0.55130599054E+02 -0.65415737543E+01 -0.80179612610E+02  0.97524076091E+02  0.00000000000E+00 0. -1.
         -2    1    5    5    0  503  0.56707539862E+03 -0.26454923355E+03 -0.57079995961E+03  0.84697898356E+03  0.00000000000E+00 0.  1.
         -3    1    6    6    0  502  0.19164281087E+03 -0.52710019853E+02  0.22369002616E+03  0.29923659695E+03  0.00000000000E+00 0.  1.
<mgrwt>
<rscale>  0 0.32462035E+04</rscale>
<asrwt>0</asrwt>
<pdfrwt beam="1">  1        2 0.40450503E+00 0.32462035E+04</pdfrwt>
<pdfrwt beam="2">  1       -2 0.15414905E+00 0.32462035E+04</pdfrwt>
<totfact> 0.68334804E-01</totfact>
</mgrwt>
</event>
<event>
12    1  0.1980523E-007  0.1856262E+04  0.7818608E-02  0.8676939E-01
         -2   -1    0    0    0  501 -0.00000000000E+00  0.00000000000E+00  0.49202726009E+03  0.49202726009E+03  0.00000000000E+00 0. -1.
          2   -1    0    0  501    0  0.00000000000E+00 -0.00000000000E+00 -0.17507711322E+04  0.17507711322E+04  0.00000000000E+00 0.  1.
         23    2    1    2    0    0  0.64580178237E+03  0.19027599510E+03 -0.22157591796E+03  0.71471342967E+03  0.91948369815E+02 0.  0.
        254    2    1    2    0    0 -0.64580178237E+03 -0.19027599510E+03 -0.10371679542E+04  0.15280849626E+04  0.89780921775E+03 0.  0.
        -24    2    4    4    0    0 -0.84024654749E+03 -0.10349879694E+02 -0.75672952996E+03  0.11336423489E+04  0.79900018846E+02 0.  0.
         24    2    4    4    0    0  0.19444476513E+03 -0.17992611541E+03 -0.28043842419E+03  0.39444261378E+03  0.82201533513E+02 0.  0.
         11    1    3    3    0    0  0.22927727236E+03  0.90567813333E+02 -0.40968749937E+02  0.24989804902E+03  0.00000000000E+00 0. -1.
        -11    1    3    3    0    0  0.41652451000E+03  0.99708181769E+02 -0.18060716802E+03  0.46481538065E+03  0.00000000000E+00 0.  1.
          4    1    6    6  502    0  0.17030079107E+03 -0.11391216727E+03 -0.22940720563E+03  0.30758089551E+03  0.00000000000E+00 0. -1.
          1    1    5    5  503    0 -0.73543925168E+03 -0.34548836378E+02 -0.65024117329E+03  0.98228208701E+03  0.00000000000E+00 0. -1.
         -2    1    5    5    0  503 -0.10480729581E+03  0.24198956684E+02 -0.10648835667E+03  0.15136026185E+03  0.00000000000E+00 0.  1.
         -3    1    6    6    0  502  0.24143974058E+02 -0.66013948141E+02 -0.51031218567E+02  0.86861718270E+02  0.00000000000E+00 0.  1.
<mgrwt>
<rscale>  0 0.18562620E+04</rscale>
<asrwt>0</asrwt>
<pdfrwt beam="1">  1        2 0.26934941E+00 0.18562620E+04</pdfrwt>
<pdfrwt beam="2">  1       -2 0.75696500E-01 0.18562620E+04</pdfrwt>
<totfact> 0.13509489E+01</totfact>
</mgrwt>
</event>
<event>
12    1  0.1980523E-007  0.1852013E+04  0.7818608E-02  0.8679118E-01
          2   -1    0    0  501    0  0.00000000000E+00  0.00000000000E+00  0.14488832877E+04  0.14488832877E+04  0.00000000000E+00 0. -1.
         -2   -1    0    0    0  501 -0.00000000000E+00 -0.00000000000E+00 -0.59182709513E+03  0.59182709513E+03  0.00000000000E+00 0.  1.
         23    2    1    2    0    0 -0.45849868298E+03  0.11493513228E+03 -0.24660551398E+03  0.54117574047E+03  0.92875053820E+02 0.  0.
        254    2    1    2    0    0  0.45849868298E+03 -0.11493513228E+03  0.11036617065E+04  0.14995346423E+04  0.89838958929E+03 0.  0.
        -24    2    4    4    0    0  0.43534023672E+02  0.36290718256E+03  0.34924663094E+03  0.51170573318E+03  0.79200465803E+02 0.  0.
         24    2    4    4    0    0  0.41496465931E+03 -0.47784231484E+03  0.75441507558E+03  0.98782890913E+03  0.78325609660E+02 0.  0.
         11    1    3    3    0    0 -0.33604370666E+03  0.11898638724E+03 -0.20792242351E+03  0.41269221865E+03  0.00000000000E+00 0.  1.
        -11    1    3    3    0    0 -0.12245497631E+03 -0.40512549571E+01 -0.38683090474E+02  0.12848352182E+03  0.00000000000E+00 0. -1.
          2    1    6    6  502    0  0.34080808158E+03 -0.43016223581E+03  0.63300850664E+03  0.83778843813E+03  0.00000000000E+00 0. -1.
          1    1    5    5  503    0  0.21585052133E+02  0.22762491113E+03  0.26839442983E+03  0.35258273441E+03  0.00000000000E+00 0. -1.
         -2    1    5    5    0  503  0.21948971540E+02  0.13528227143E+03  0.80852201112E+02  0.15912299877E+03  0.00000000000E+00 0.  1.
         -1    1    6    6    0  502  0.74156577724E+02 -0.47680079031E+02  0.12140656894E+03  0.15004047100E+03  0.00000000000E+00 0.  1.
<mgrwt>
<rscale>  0 0.18520134E+04</rscale>
<asrwt>0</asrwt>
<pdfrwt beam="1">  1        2 0.22290512E+00 0.18520134E+04</pdfrwt>
<pdfrwt beam="2">  1       -2 0.91050323E-01 0.18520134E+04</pdfrwt>
<totfact> 0.13126625E+01</totfact>
</mgrwt>
</event>
<event>
12    1  0.1980523E-007  0.2207091E+04  0.7818608E-02  0.8515482E-01
         -2   -1    0    0    0  501 -0.00000000000E+00  0.00000000000E+00  0.11389316724E+04  0.11389316724E+04  0.00000000000E+00 0.  1.
          2   -1    0    0  501    0  0.00000000000E+00 -0.00000000000E+00 -0.10692592011E+04  0.10692592011E+04  0.00000000000E+00 0. -1.
         23    2    1    2    0    0  0.59127108733E+03 -0.68137145743E+03  0.19571386893E+03  0.92761822038E+03  0.91121252073E+02 0.  0.
        254    2    1    2    0    0 -0.59127108733E+03  0.68137145743E+03 -0.12604139766E+03  0.12805726531E+04  0.90006184462E+03 0.  0.
        -24    2    4    4    0    0 -0.29162317984E+03 -0.76580061017E+01  0.28885486677E+03  0.41843270657E+03  0.80907798129E+02 0.  0.
         24    2    4    4    0    0 -0.29964790749E+03  0.68902946353E+03 -0.41489626442E+03  0.86213994649E+03  0.81215189601E+02 0.  0.
         11    1    3    3    0    0  0.44742813877E+02 -0.95470550801E+02  0.19086324248E+02  0.10714865019E+03  0.00000000000E+00 0. -1.
        -11    1    3    3    0    0  0.54652827346E+03 -0.58590090663E+03  0.17662754468E+03  0.82046957019E+03  0.00000000000E+00 0.  1.
          4    1    6    6  502    0 -0.20675559502E+02  0.12221148605E+03 -0.64618191721E+02  0.13978067386E+03  0.00000000000E+00 0. -1.
          1    1    5    5  503    0 -0.73322824598E+02 -0.17334892299E+02  0.33814834288E+02  0.82584369683E+02  0.00000000000E+00 0. -1.
         -2    1    5    5    0  503 -0.21830035525E+03  0.96768861977E+01  0.25504003248E+03  0.33584833689E+03  0.00000000000E+00 0.  1.
         -3    1    6    6    0  502 -0.27897234799E+03  0.56681797748E+03 -0.35027807270E+03  0.72235927263E+03  0.00000000000E+00 0.  1.
<mgrwt>
<rscale>  0 0.22070915E+04</rscale>
<asrwt>0</asrwt>
<pdfrwt beam="1">  1        2 0.16450141E+00 0.22070915E+04</pdfrwt>
<pdfrwt beam="2">  1       -2 0.17522026E+00 0.22070915E+04</pdfrwt>
<totfact> 0.40711755E+00</totfact>
</mgrwt>
</event>
<event>
12    1  0.1980523E-007  0.3421864E+04  0.7818608E-02  0.8132561E-01
          2   -1    0    0  501    0  0.00000000000E+00  0.00000000000E+00  0.17224751039E+04  0.17224751039E+04  0.00000000000E+00 0. -1.
         -2   -1    0    0    0  501 -0.00000000000E+00 -0.00000000000E+00 -0.16994666218E+04  0.16994666218E+04  0.00000000000E+00 0.  1.
         23    2    1    2    0    0 -0.40385413919E+03  0.15265970550E+04 -0.18317762118E+03  0.15923183787E+04  0.91252639264E+02 0.  0.
        254    2    1    2    0    0  0.40385413919E+03 -0.15265970550E+04  0.20618610331E+03  0.18296233470E+04  0.90078418533E+03 0.  0.
        -24    2    4    4    0    0  0.26338566330E+03 -0.46602433886E+02 -0.12220473395E+03  0.30508755794E+03  0.81244240032E+02 0.  0.
         24    2    4    4    0    0  0.14046847589E+03 -0.14799946211E+04  0.32839083726E+03  0.15245357890E+04  0.79078181686E+02 0.  0.
         11    1    3    3    0    0 -0.19337110920E+03  0.90524797644E+03 -0.10131696450E+03  0.93119891109E+03  0.00000000000E+00 0. -1.
        -11    1    3    3    0    0 -0.21048302999E+03  0.62134907856E+03 -0.81860656677E+02  0.66111946761E+03  0.00000000000E+00 0.  1.
          2    1    6    6  502    0  0.14004293729E+02 -0.32423983944E+03  0.10061628955E+03  0.33978115228E+03  0.00000000000E+00 0. -1.
          3    1    5    5  503    0 -0.38730443664E+01  0.65879249515E+00  0.41467876283E+01  0.57122961977E+01  0.00000000000E+00 0. -1.
         -2    1    5    5    0  503  0.26725870766E+03 -0.47261226381E+02 -0.12635152157E+03  0.29937526174E+03  0.00000000000E+00 0.  1.
         -1    1    6    6    0  502  0.12646418216E+03 -0.11557547817E+04  0.22777454770E+03  0.11847546368E+04  0.00000000000E+00 0.  1.
<mgrwt>
<rscale>  0 0.34218644E+04</rscale>
<asrwt>0</asrwt>
<pdfrwt beam="1">  1        2 0.26499617E+00 0.34218644E+04</pdfrwt>
<pdfrwt beam="2">  1       -2 0.26145640E+00 0.34218644E+04</pdfrwt>
<totfact> 0.43071471E-01</totfact>
</mgrwt>
</event>
<event>
12    1  0.1980523E-007  0.2132652E+04  0.7818608E-02  0.8546995E-01
          2   -1    0    0  501    0  0.00000000000E+00  0.00000000000E+00  0.82675347338E+03  0.82675347338E+03  0.00000000000E+00 0. -1.
         -2   -1    0    0    0  501 -0.00000000000E+00 -0.00000000000E+00 -0.13753209860E+04  0.13753209860E+04  0.00000000000E+00 0.  1.
         23    2    1    2    0    0  0.59166835387E+03  0.53652203291E+03 -0.59097594397E+03  0.99817045934E+03  0.95730699239E+02 0.  0.
        254    2    1    2    0    0 -0.59166835387E+03 -0.53652203291E+03  0.42408431329E+02  0.12039040001E+04  0.89981055425E+03 0.  0.
        -24    2    4    4    0    0 -0.70974469925E+03 -0.60363225186E+03 -0.15835598045E+03  0.94839416892E+03  0.79154592430E+02 0.  0.
         24    2    4    4    0    0  0.11807634538E+03  0.67110218947E+02  0.20076441178E+03  0.25550983114E+03  0.80827717691E+02 0.  0.
         13    1    3    3    0    0  0.48124719491E+03  0.47619664330E+03 -0.47486200617E+03  0.82695588189E+03  0.00000000000E+00 0.  1.
        -13    1    3    3    0    0  0.11042115896E+03  0.60325389613E+02 -0.11611393780E+03  0.17121457745E+03  0.00000000000E+00 0. -1.
          2    1    6    6  502    0  0.33004221593E+02 -0.18096847309E+02  0.47332946710E+02  0.60474642370E+02  0.00000000000E+00 0. -1.
          1    1    5    5  503    0 -0.42803514583E+03 -0.31364147183E+03 -0.97966472070E+02  0.53961327686E+03  0.00000000000E+00 0. -1.
         -2    1    5    5    0  503 -0.28170955342E+03 -0.28999078003E+03 -0.60389508377E+02  0.40878089206E+03  0.00000000000E+00 0.  1.
         -1    1    6    6    0  502  0.85072123789E+02  0.85207066256E+02  0.15343146507E+03  0.19503518877E+03  0.00000000000E+00 0.  1.
<mgrwt>
<rscale>  0 0.21326522E+04</rscale>
<asrwt>0</asrwt>
<pdfrwt beam="1">  1        2 0.12719284E+00 0.21326522E+04</pdfrwt>
<pdfrwt beam="2">  1       -2 0.21158784E+00 0.21326522E+04</pdfrwt>
<totfact> 0.33865665E+00</totfact>
</mgrwt>
</event>
<event>
12    1  0.1980523E-007  0.1202103E+04  0.7818608E-02  0.9111018E-01
         -1   -1    0    0    0  501 -0.00000000000E+00  0.00000000000E+00  0.22748112561E+03  0.22748112561E+03  0.00000000000E+00 0.  1.
          1   -1    0    0  501    0  0.00000000000E+00 -0.00000000000E+00 -0.15880998837E+04  0.15880998837E+04  0.00000000000E+00 0. -1.
         23    2    1    2    0    0 -0.14892320215E+03  0.14768425270E+03 -0.92658649413E+02  0.24675563411E+03  0.91180913673E+02 0.  0.
        254    2    1    2    0    0  0.14892320215E+03 -0.14768425270E+03 -0.12679601087E+04  0.15688253752E+04  0.89972299183E+03 0.  0.
        -24    2    4    4    0    0 -0.17205205026E+03  0.17027927547E+03 -0.10104273831E+04  0.10422264246E+04  0.81703634415E+02 0.  0.
         24    2    4    4    0    0  0.32097525242E+03 -0.31796352817E+03 -0.25753272560E+03  0.52659895065E+03  0.82809613973E+02 0.  0.
         11    1    3    3    0    0  0.60973638152E+00  0.44713230606E+02 -0.33253836159E+02  0.55726675739E+02  0.00000000000E+00 0. -1.
        -11    1    3    3    0    0 -0.14953293854E+03  0.10297102209E+03 -0.59404813254E+02  0.19102895837E+03  0.00000000000E+00 0.  1.
          2    1    6    6  502    0  0.30083538673E+03 -0.27262232684E+03 -0.24898659432E+03  0.47625538018E+03  0.00000000000E+00 0. -1.
          3    1    5    5  503    0 -0.84519395293E+02  0.10656212308E+03 -0.70941011121E+03  0.72233075536E+03  0.00000000000E+00 0. -1.
         -4    1    5    5    0  503 -0.87532654969E+02  0.63717152392E+02 -0.30101727190E+03  0.31989566921E+03  0.00000000000E+00 0.  1.
         -1    1    6    6    0  502  0.20139865687E+02 -0.45341201334E+02 -0.85461312740E+01  0.50343570473E+02  0.00000000000E+00 0.  1.
<mgrwt>
<rscale>  0 0.12021027E+04</rscale>
<asrwt>0</asrwt>
<pdfrwt beam="1">  1        1 0.24432306E+00 0.12021027E+04</pdfrwt>
<pdfrwt beam="2">  1       -1 0.34997096E-01 0.12021027E+04</pdfrwt>
<totfact> 0.43669647E+01</totfact>
</mgrwt>
</event>
<event>
12    1  0.1980523E-007  0.1028141E+04  0.7818608E-02  0.9278208E-01
          2   -1    0    0  501    0  0.00000000000E+00  0.00000000000E+00  0.11655599664E+04  0.11655599664E+04  0.00000000000E+00 0. -1.
         -2   -1    0    0    0  501 -0.00000000000E+00 -0.00000000000E+00 -0.22673088791E+03  0.22673088791E+03  0.00000000000E+00 0.  1.
         23    2    1    2    0    0  0.32711735222E+01 -0.86463234368E+02  0.10392008049E+03  0.16172750664E+03  0.88711959733E+02 0.  0.
        254    2    1    2    0    0 -0.32711735222E+01  0.86463234368E+02  0.83490899803E+03  0.12305633477E+04  0.89984805730E+03 0.  0.
        -24    2    4    4    0    0 -0.41303899901E+03 -0.10596558352E+03  0.49932186781E+03  0.66153158554E+03  0.80447444897E+02 0.  0.
         24    2    4    4    0    0  0.40976782549E+03  0.19242881789E+03  0.33558713022E+03  0.56903176216E+03  0.78993060569E+02 0.  0.
         13    1    3    3    0    0  0.17956667138E+02 -0.94332013030E+01 -0.10635532115E+02  0.22902875909E+02  0.00000000000E+00 0.  1.
        -13    1    3    3    0    0 -0.14685493616E+02 -0.77030033065E+02  0.11455561261E+03  0.13882463073E+03  0.00000000000E+00 0. -1.
          4    1    6    6  502    0  0.30744335332E+03  0.13593579962E+03  0.20480695826E+03  0.39363161366E+03  0.00000000000E+00 0. -1.
          1    1    5    5  503    0 -0.38856267731E+03 -0.10658376627E+03  0.49209738321E+03  0.63600384275E+03  0.00000000000E+00 0. -1.
         -2    1    5    5    0  503 -0.24476321706E+02  0.61818274770E+00  0.72244846042E+01  0.25527742790E+02  0.00000000000E+00 0.  1.
         -3    1    6    6    0  502  0.10232447217E+03  0.56493018271E+02  0.13078017195E+03  0.17540014850E+03  0.00000000000E+00 0.  1.
<mgrwt>
<rscale>  0 0.10281409E+04</rscale>
<asrwt>0</asrwt>
<pdfrwt beam="1">  1        2 0.17931691E+00 0.10281409E+04</pdfrwt>
<pdfrwt beam="2">  1       -2 0.34881676E-01 0.10281409E+04</pdfrwt>
<totfact> 0.15252334E+02</totfact>
</mgrwt>
</event>
<event>
12    1  0.1980523E-007  0.2471219E+04  0.7818608E-02  0.8413311E-01
         -1   -1    0    0    0  501 -0.00000000000E+00  0.00000000000E+00  0.66657143435E+03  0.66657143435E+03  0.00000000000E+00 0.  1.
          1   -1    0    0  501    0  0.00000000000E+00 -0.00000000000E+00 -0.22904234514E+04  0.22904234514E+04  0.00000000000E+00 0. -1.
         23    2    1    2    0    0 -0.26434551113E+03 -0.10227556240E+04 -0.50003561207E+03  0.11724017401E+04  0.92642384043E+02 0.  0.
        254    2    1    2    0    0  0.26434551113E+03  0.10227556240E+04 -0.11238164050E+04  0.17845931456E+04  0.89772031703E+03 0.  0.
        -24    2    4    4    0    0  0.16965885935E+03  0.66554828572E+03 -0.10655805637E+03  0.69934411741E+03  0.77388151523E+02 0.  0.
         24    2    4    4    0    0  0.94686651788E+02  0.35720733826E+03 -0.10172583486E+04  0.10852490282E+04  0.79926596652E+02 0.  0.
         13    1    3    3    0    0 -0.13778227336E+03 -0.45048324408E+03 -0.26847573779E+03  0.54221612834E+03  0.00000000000E+00 0. -1.
        -13    1    3    3    0    0 -0.12656323777E+03 -0.57227237990E+03 -0.23155987428E+03  0.63018561180E+03  0.00000000000E+00 0.  1.
          2    1    6    6  502    0  0.79413899358E+00  0.99679511248E+02 -0.20427912703E+03  0.22730287583E+03  0.00000000000E+00 0. -1.
          3    1    5    5  503    0  0.88160548950E+02  0.26875093642E+03 -0.10531880546E+02  0.28303757476E+03  0.00000000000E+00 0. -1.
         -4    1    5    5    0  503  0.81498310397E+02  0.39679734929E+03 -0.96026175820E+02  0.41630654264E+03  0.00000000000E+00 0.  1.
         -1    1    6    6    0  502  0.93892512794E+02  0.25752782701E+03 -0.81297922159E+03  0.85794615237E+03  0.00000000000E+00 0.  1.
<mgrwt>
<rscale>  0 0.24712190E+04</rscale>
<asrwt>0</asrwt>
<pdfrwt beam="1">  1        1 0.35237284E+00 0.24712190E+04</pdfrwt>
<pdfrwt beam="2">  1       -1 0.10254945E+00 0.24712190E+04</pdfrwt>
<totfact> 0.15130766E+00</totfact>
</mgrwt>
</event>
<event>
12    1  0.1980523E-007  0.1754901E+04  0.7818608E-02  0.8730657E-01
         -2   -1    0    0    0  501 -0.00000000000E+00  0.00000000000E+00  0.45747941697E+03  0.45747941697E+03  0.00000000000E+00 0.  1.
          2   -1    0    0  501    0  0.00000000000E+00 -0.00000000000E+00 -0.16829597552E+04  0.16829597552E+04  0.00000000000E+00 0. -1.
         23    2    1    2    0    0 -0.15063494404E+03  0.47067052326E+03 -0.95504197709E+03  0.10791716444E+04  0.91019954718E+02 0.  0.
        254    2    1    2    0    0  0.15063494404E+03 -0.47067052326E+03 -0.27043836110E+03  0.10612675278E+04  0.89940548725E+03 0.  0.
        -24    2    4    4    0    0  0.45770465940E+03 -0.30034563630E+02 -0.26797008152E+02  0.46613879218E+03  0.78559936892E+02 0.  0.
         24    2    4    4    0    0 -0.30706971536E+03 -0.44063595963E+03 -0.24364135295E+03  0.59512873558E+03  0.79782479534E+02 0.  0.
         13    1    3    3    0    0 -0.70734665860E+02  0.26403025606E+03 -0.43294439585E+03  0.51201193244E+03  0.00000000000E+00 0.  1.
        -13    1    3    3    0    0 -0.79900278181E+02  0.20664026720E+03 -0.52209758124E+03  0.56715971191E+03  0.00000000000E+00 0. -1.
          4    1    6    6  502    0 -0.56742447500E+02 -0.78768171379E+02 -0.11855644266E+02  0.97799215087E+02  0.00000000000E+00 0. -1.
          1    1    5    5  503    0  0.27576473461E+03 -0.13526841011E+02 -0.54322309187E+02  0.28138954771E+03  0.00000000000E+00 0. -1.
         -2    1    5    5    0  503  0.18193992478E+03 -0.16507722619E+02  0.27525301035E+02  0.18474924447E+03  0.00000000000E+00 0.  1.
         -3    1    6    6    0  502 -0.25032726786E+03 -0.36186778825E+03 -0.23178570868E+03  0.49732952050E+03  0.00000000000E+00 0.  1.
<mgrwt>
<rscale>  0 0.17549011E+04</rscale>
<asrwt>0</asrwt>
<pdfrwt beam="1">  1        2 0.25891688E+00 0.17549011E+04</pdfrwt>
<pdfrwt beam="2">  1       -2 0.70381449E-01 0.17549011E+04</pdfrwt>
<totfact> 0.17443469E+01</totfact>
</mgrwt>
</event>
<event>
12    1  0.1980523E-007  0.1454670E+04  0.7818608E-02  0.8915169E-01
         -2   -1    0    0    0  501 -0.00000000000E+00  0.00000000000E+00  0.89163719652E+03  0.89163719652E+03  0.00000000000E+00 0.  1.
          2   -1    0    0  501    0  0.00000000000E+00 -0.00000000000E+00 -0.59330905372E+03  0.59330905372E+03  0.00000000000E+00 0. -1.
         23    2    1    2    0    0 -0.30648331820E+03 -0.19871122641E+02  0.41746328627E+03  0.52657675276E+03  0.93169712423E+02 0.  0.
        254    2    1    2    0    0  0.30648331820E+03  0.19871122641E+02 -0.11913514346E+03  0.95836949748E+03  0.89997334707E+03 0.  0.
        -24    2    4    4    0    0  0.51191875393E+03 -0.26697656162E+03 -0.13070013581E+03  0.59651342353E+03  0.73542123070E+02 0.  0.
         24    2    4    4    0    0 -0.20543543573E+03  0.28684768426E+03  0.11564992347E+02  0.36185607395E+03  0.79503188543E+02 0.  0.
         11    1    3    3    0    0 -0.18783972893E+03 -0.10259646296E+02  0.17715881537E+03  0.25840717863E+03  0.00000000000E+00 0. -1.
        -11    1    3    3    0    0 -0.11864358928E+03 -0.96114763453E+01  0.24030447090E+03  0.26816957413E+03  0.00000000000E+00 0.  1.
          4    1    6    6  502    0 -0.90187994464E+02  0.15236285981E+03  0.42451273499E+02  0.18207258447E+03  0.00000000000E+00 0. -1.
          1    1    5    5  503    0  0.16834971953E+03 -0.94043258810E+02 -0.79107720929E+02  0.20843174927E+03  0.00000000000E+00 0. -1.
         -2    1    5    5    0  503  0.34356903440E+03 -0.17293330281E+03 -0.51592414883E+02  0.38808167426E+03  0.00000000000E+00 0.  1.
         -3    1    6    6    0  502 -0.11524744127E+03  0.13448482445E+03 -0.30886281152E+02  0.17978348948E+03  0.00000000000E+00 0.  1.
<mgrwt>
<rscale>  0 0.14546703E+04</rscale>
<asrwt>0</asrwt>
<pdfrwt beam="1">  1        2 0.91278315E-01 0.14546703E+04</pdfrwt>
<pdfrwt beam="2">  1       -2 0.13717495E+00 0.14546703E+04</pdfrwt>
<totfact> 0.18444822E+01</totfact>
</mgrwt>
</event>
<event>
12    1  0.1980523E-007  0.1290991E+04  0.7818608E-02  0.9036740E-01
         -2   -1    0    0    0  501 -0.00000000000E+00  0.00000000000E+00  0.43508401758E+03  0.43508401758E+03  0.00000000000E+00 0.  1.
          2   -1    0    0  501    0  0.00000000000E+00 -0.00000000000E+00 -0.95766372364E+03  0.95766372364E+03  0.00000000000E+00 0. -1.
         23    2    1    2    0    0 -0.29278818701E+03 -0.13445237012E+03 -0.12919006909E+03  0.35887028490E+03  0.91079334364E+02 0.  0.
        254    2    1    2    0    0  0.29278818701E+03  0.13445237012E+03 -0.39338963697E+03  0.10338774563E+04  0.90019154957E+03 0.  0.
        -24    2    4    4    0    0  0.16473328163E+03  0.35638983184E+03 -0.58185376236E+03  0.70664621615E+03  0.81512622982E+02 0.  0.
         24    2    4    4    0    0  0.12805490538E+03 -0.22193746171E+03  0.18846412539E+03  0.32723124017E+03  0.76858716376E+02 0.  0.
         11    1    3    3    0    0 -0.16390946303E+03 -0.95077362708E+02 -0.11893309182E+03  0.22372102561E+03  0.00000000000E+00 0. -1.
        -11    1    3    3    0    0 -0.12887872398E+03 -0.39375007417E+02 -0.10256977266E+02  0.13514925929E+03  0.00000000000E+00 0.  1.
          2    1    6    6  502    0  0.51367870398E+01  0.47334735073E+01  0.14751808230E+02  0.16322015764E+02  0.00000000000E+00 0. -1.
          3    1    5    5  503    0  0.15604158644E+02  0.12295702222E+03 -0.18488873792E+03  0.22258877890E+03  0.00000000000E+00 0. -1.
         -4    1    5    5    0  503  0.14912912298E+03  0.23343280962E+03 -0.39696502444E+03  0.48405743725E+03  0.00000000000E+00 0.  1.
         -1    1    6    6    0  502  0.12291811834E+03 -0.22667093522E+03  0.17371231716E+03  0.31090922441E+03  0.00000000000E+00 0.  1.
<mgrwt>
<rscale>  0 0.12909906E+04</rscale>
<asrwt>0</asrwt>
<pdfrwt beam="1">  1        2 0.14733288E+00 0.12909906E+04</pdfrwt>
<pdfrwt beam="2">  1       -2 0.66936003E-01 0.12909906E+04</pdfrwt>
<totfact> 0.53947233E+01</totfact>
</mgrwt>
</event>
<event>
12    1  0.1980523E-007  0.1546446E+04  0.7818608E-02  0.8854141E-01
         -1   -1    0    0    0  501 -0.00000000000E+00  0.00000000000E+00  0.46622141470E+03  0.46622141470E+03  0.00000000000E+00 0.  1.
          1   -1    0    0  501    0  0.00000000000E+00 -0.00000000000E+00 -0.12823815664E+04  0.12823815664E+04  0.00000000000E+00 0. -1.
         23    2    1    2    0    0  0.39612964570E+03 -0.30040025803E+03 -0.37335252444E+03  0.62826535832E+03  0.90367260286E+02 0.  0.
        254    2    1    2    0    0 -0.39612964570E+03  0.30040025803E+03 -0.44280762723E+03  0.11203376227E+04  0.90106535999E+03 0.  0.
        -24    2    4    4    0    0 -0.18212838412E+03 -0.30045926651E+03 -0.28017227900E+03  0.45727901037E+03  0.84623095369E+02 0.  0.
         24    2    4    4    0    0 -0.21400126159E+03  0.60085952454E+03 -0.16263534824E+03  0.66305861238E+03  0.79798237875E+02 0.  0.
         11    1    3    3    0    0  0.26417127372E+02 -0.31741163950E+02 -0.64800202120E+02  0.76840303893E+02  0.00000000000E+00 0. -1.
        -11    1    3    3    0    0  0.36971251833E+03 -0.26865909408E+03 -0.30855232232E+03  0.55142505443E+03  0.00000000000E+00 0.  1.
          4    1    6    6  502    0 -0.16440418980E+03  0.35140090491E+03 -0.85362713482E+02  0.39723812311E+03  0.00000000000E+00 0. -1.
          1    1    5    5  503    0 -0.13611832757E+03 -0.27265948142E+03 -0.21582771382E+03  0.37343405570E+03  0.00000000000E+00 0. -1.
         -2    1    5    5    0  503 -0.46010056542E+02 -0.27799785096E+02 -0.64344565176E+02  0.83844954661E+02  0.00000000000E+00 0.  1.
         -3    1    6    6    0  502 -0.49597071785E+02  0.24945861963E+03 -0.77272634756E+02  0.26582048927E+03  0.00000000000E+00 0.  1.
<mgrwt>
<rscale>  0 0.15464459E+04</rscale>
<asrwt>0</asrwt>
<pdfrwt beam="1">  1        1 0.19728947E+00 0.15464459E+04</pdfrwt>
<pdfrwt beam="2">  1       -1 0.71726372E-01 0.15464459E+04</pdfrwt>
<totfact> 0.17609330E+01</totfact>
</mgrwt>
</event>
<event>
12    1  0.1980523E-007  0.2308916E+04  0.7818608E-02  0.8474414E-01
         -2   -1    0    0    0  501 -0.00000000000E+00  0.00000000000E+00  0.11726137763E+04  0.11726137763E+04  0.00000000000E+00 0.  1.
          2   -1    0    0  501    0  0.00000000000E+00 -0.00000000000E+00 -0.11365833723E+04  0.11365833723E+04  0.00000000000E+00 0. -1.
         23    2    1    2    0    0 -0.43112286843E+03  0.70229891718E+03 -0.51442803482E+03  0.97565091860E+03  0.90375965864E+02 0.  0.
        254    2    1    2    0    0  0.43112286843E+03 -0.70229891718E+03  0.55045843881E+03  0.13335462300E+04  0.89232861550E+03 0.  0.
        -24    2    4    4    0    0  0.97409228717E+02  0.11263647551E+03 -0.13356981298E+03  0.21572078682E+03  0.80740507017E+02 0.  0.
         24    2    4    4    0    0  0.33371363972E+03 -0.81493539269E+03  0.68402825179E+03  0.11178254432E+04  0.78451161026E+02 0.  0.
         11    1    3    3    0    0 -0.18893036586E+03  0.23554585675E+03 -0.16249639664E+03  0.34290175371E+03  0.00000000000E+00 0.  1.
        -11    1    3    3    0    0 -0.24219250258E+03  0.46675306043E+03 -0.35193163818E+03  0.63274916489E+03  0.00000000000E+00 0. -1.
          2    1    6    6  502    0  0.28526686415E+02 -0.57267054347E+02  0.26564396640E+02  0.69274486791E+02  0.00000000000E+00 0. -1.
          3    1    5    5  503    0  0.70242366903E+01  0.25055449474E+02 -0.70083579191E+02  0.74758434452E+02  0.00000000000E+00 0. -1.
         -4    1    5    5    0  503  0.90384992027E+02  0.87581026037E+02 -0.63486233787E+02  0.14096235237E+03  0.00000000000E+00 0.  1.
         -1    1    6    6    0  502  0.30518695330E+03 -0.75766833835E+03  0.65746385515E+03  0.10485509564E+04  0.00000000000E+00 0.  1.
<mgrwt>
<rscale>  0 0.23089160E+04</rscale>
<asrwt>0</asrwt>
<pdfrwt beam="1">  1        2 0.17485898E+00 0.23089160E+04</pdfrwt>
<pdfrwt beam="2">  1       -2 0.18040212E+00 0.23089160E+04</pdfrwt>
<totfact> 0.33766374E+00</totfact>
</mgrwt>
</event>
<event>
12    1  0.1980523E-007  0.1463199E+04  0.7818608E-02  0.8909301E-01
         -2   -1    0    0    0  501 -0.00000000000E+00  0.00000000000E+00  0.57931018301E+03  0.57931018301E+03  0.00000000000E+00 0.  1.
          2   -1    0    0  501    0  0.00000000000E+00 -0.00000000000E+00 -0.92392294599E+03  0.92392294599E+03  0.00000000000E+00 0. -1.
         23    2    1    2    0    0  0.30546464836E+03 -0.10120960860E+02  0.23056699839E+03  0.39377913165E+03  0.92139994213E+02 0.  0.
        254    2    1    2    0    0 -0.30546464836E+03  0.10120960860E+02 -0.57517976138E+03  0.11094539973E+04  0.89813436027E+03 0.  0.
        -24    2    4    4    0    0 -0.56175116429E+03  0.15417756075E+03 -0.18830817901E+03  0.61771991218E+03  0.82357931031E+02 0.  0.
         24    2    4    4    0    0  0.25628651593E+03 -0.14405659989E+03 -0.38687158237E+03  0.49173408517E+03  0.75483157369E+02 0.  0.
         11    1    3    3    0    0  0.13444780775E+03 -0.36861301502E+02  0.63426753607E+02  0.15315979117E+03  0.00000000000E+00 0.  1.
        -11    1    3    3    0    0  0.17101684060E+03  0.26740340642E+02  0.16714024479E+03  0.24061934048E+03  0.00000000000E+00 0. -1.
          2    1    6    6  502    0  0.21655719034E+03 -0.14365823234E+03 -0.35905705961E+03  0.44323433584E+03  0.00000000000E+00 0. -1.
          1    1    5    5  503    0 -0.99677411900E+02  0.59007642203E+02 -0.25169459755E+02  0.11853687184E+03  0.00000000000E+00 0. -1.
         -2    1    5    5    0  503 -0.46207375239E+03  0.95169918551E+02 -0.16313871925E+03  0.49918304034E+03  0.00000000000E+00 0.  1.
         -1    1    6    6    0  502  0.39729325592E+02 -0.39836754977E+00 -0.27814522762E+02  0.48499749331E+02  0.00000000000E+00 0.  1.
<mgrwt>
<rscale>  0 0.14631992E+04</rscale>
<asrwt>0</asrwt>
<pdfrwt beam="1">  1        2 0.14214199E+00 0.14631992E+04</pdfrwt>
<pdfrwt beam="2">  1       -2 0.89124644E-01 0.14631992E+04</pdfrwt>
<totfact> 0.29596713E+01</totfact>
</mgrwt>
</event>
<event>
12    1  0.1980523E-007  0.3264144E+04  0.7818608E-02  0.8172079E-01
          2   -1    0    0  501    0  0.00000000000E+00  0.00000000000E+00  0.92986367824E+03  0.92986367824E+03  0.00000000000E+00 0. -1.
         -2   -1    0    0    0  501 -0.00000000000E+00 -0.00000000000E+00 -0.28645697403E+04  0.28645697403E+04  0.00000000000E+00 0.  1.
         23    2    1    2    0    0 -0.66590967473E+03 -0.13336603632E+04 -0.64084268668E+03  0.16250669622E+04  0.89875598940E+02 0.  0.
        254    2    1    2    0    0  0.66590967473E+03  0.13336603632E+04 -0.12938633754E+04  0.21693664563E+04  0.89999040460E+03 0.  0.
        -24    2    4    4    0    0 -0.16805012549E+03  0.38759494512E+02 -0.21778926627E+03  0.28877492506E+03  0.78839392126E+02 0.  0.
         24    2    4    4    0    0  0.83395980022E+03  0.12949008687E+04 -0.10760741091E+04  0.18805915313E+04  0.80198572391E+02 0.  0.
         11    1    3    3    0    0 -0.49499083286E+03 -0.10586247765E+04 -0.47802312415E+03  0.12626196772E+04  0.00000000000E+00 0. -1.
        -11    1    3    3    0    0 -0.17091884187E+03 -0.27503558670E+03 -0.16281956254E+03  0.36244728500E+03  0.00000000000E+00 0.  1.
          4    1    6    6  502    0  0.23099476966E+03  0.39514609232E+03 -0.35772076900E+03  0.58091579980E+03  0.00000000000E+00 0. -1.
          1    1    5    5  503    0 -0.83953479129E+02  0.46387460563E+01 -0.49489639298E+02  0.97564998953E+02  0.00000000000E+00 0. -1.
         -2    1    5    5    0  503 -0.84096646362E+02  0.34120748456E+02 -0.16829962697E+03  0.19120992611E+03  0.00000000000E+00 0.  1.
         -1    1    6    6    0  502  0.60296503056E+03  0.89975477638E+03 -0.71835334010E+03  0.12996757315E+04  0.00000000000E+00 0.  1.
<mgrwt>
<rscale>  0 0.32641442E+04</rscale>
<asrwt>0</asrwt>
<pdfrwt beam="1">  1        2 0.14305595E+00 0.32641442E+04</pdfrwt>
<pdfrwt beam="2">  1       -2 0.44070303E+00 0.32641442E+04</pdfrwt>
<totfact> 0.93664209E-02</totfact>
</mgrwt>
</event>
<event>
12    1  0.1980523E-007  0.2428068E+04  0.7818608E-02  0.8429069E-01
         -2   -1    0    0    0  501 -0.00000000000E+00  0.00000000000E+00  0.90674934962E+03  0.90674934962E+03  0.00000000000E+00 0.  1.
          2   -1    0    0  501    0  0.00000000000E+00 -0.00000000000E+00 -0.16254536774E+04  0.16254536774E+04  0.00000000000E+00 0. -1.
         23    2    1    2    0    0 -0.79495550779E+03 -0.64584029841E+03 -0.93439897170E+02  0.10325403018E+04  0.91348290229E+02 0.  0.
        254    2    1    2    0    0  0.79495550779E+03  0.64584029841E+03 -0.62526443058E+03  0.14996627251E+04  0.89942689009E+03 0.  0.
        -24    2    4    4    0    0 -0.19117684351E+03  0.96629241020E+02 -0.63112916023E+02  0.23631551280E+03  0.77304499919E+02 0.  0.
         24    2    4    4    0    0  0.98613235130E+03  0.54921105739E+03 -0.56215151456E+03  0.12633472123E+04  0.77084718143E+02 0.  0.
         13    1    3    3    0    0 -0.59300386682E+03 -0.42904770441E+03 -0.72393438688E+02  0.73551093036E+03  0.00000000000E+00 0.  1.
        -13    1    3    3    0    0 -0.20195164097E+03 -0.21679259401E+03 -0.21046458482E+02  0.29702937148E+03  0.00000000000E+00 0. -1.
          2    1    6    6  502    0  0.24801676316E+03  0.13433819183E+03 -0.10400729131E+03  0.30062698023E+03  0.00000000000E+00 0. -1.
          3    1    5    5  503    0 -0.55230024447E+02  0.67207216751E+02 -0.10575128927E+02  0.87629897499E+02  0.00000000000E+00 0. -1.
         -4    1    5    5    0  503 -0.13594681906E+03  0.29422024269E+02 -0.52537787095E+02  0.14868561530E+03  0.00000000000E+00 0.  1.
         -1    1    6    6    0  502  0.73811558813E+03  0.41487286556E+03 -0.45814422325E+03  0.96272023212E+03  0.00000000000E+00 0.  1.
<mgrwt>
<rscale>  0 0.24280684E+04</rscale>
<asrwt>0</asrwt>
<pdfrwt beam="1">  1        2 0.25006979E+00 0.24280684E+04</pdfrwt>
<pdfrwt beam="2">  1       -2 0.13949990E+00 0.24280684E+04</pdfrwt>
<totfact> 0.35106034E+00</totfact>
</mgrwt>
</event>
<event>
12    1  0.1980523E-007  0.1139390E+04  0.7818608E-02  0.9167628E-01
          2   -1    0    0  501    0  0.00000000000E+00  0.00000000000E+00  0.25220838811E+04  0.25220838811E+04  0.00000000000E+00 0. -1.
         -2   -1    0    0    0  501 -0.00000000000E+00 -0.00000000000E+00 -0.12868426313E+03  0.12868426313E+03  0.00000000000E+00 0.  1.
         23    2    1    2    0    0  0.16131170306E+03  0.91914374070E+02  0.57281694816E+03  0.60901398949E+03  0.91154076121E+02 0.  0.
        254    2    1    2    0    0 -0.16131170306E+03 -0.91914374070E+02  0.18205826698E+04  0.20417541547E+04  0.90541098574E+03 0.  0.
        -24    2    4    4    0    0  0.21826209150E+03  0.29113028896E+03  0.61739520185E+03  0.72108939949E+03  0.79986880521E+02 0.  0.
         24    2    4    4    0    0 -0.37957379456E+03 -0.38304466303E+03  0.12031874680E+04  0.13206647553E+04  0.75470744819E+02 0.  0.
         13    1    3    3    0    0  0.78609114790E+02  0.95607059590E+02  0.35836623141E+03  0.37913910189E+03  0.00000000000E+00 0. -1.
        -13    1    3    3    0    0  0.82702588271E+02 -0.36926855199E+01  0.21445071675E+03  0.22987488760E+03  0.00000000000E+00 0.  1.
          2    1    6    6  502    0 -0.20885288521E+03 -0.25803221147E+03  0.69628649530E+03  0.77137217564E+03  0.00000000000E+00 0. -1.
          3    1    5    5  503    0  0.21265774771E+03  0.29457175124E+03  0.61457931926E+03  0.71393527294E+03  0.00000000000E+00 0. -1.
         -4    1    5    5    0  503  0.56043437869E+01 -0.34414622828E+01  0.28158825964E+01  0.71541265520E+01  0.00000000000E+00 0.  1.
         -1    1    6    6    0  502 -0.17072090935E+03 -0.12501245156E+03  0.50690097266E+03  0.54929257962E+03  0.00000000000E+00 0.  1.
<mgrwt>
<rscale>  0 0.11393902E+04</rscale>
<asrwt>0</asrwt>
<pdfrwt beam="1">  1        2 0.38801287E+00 0.11393902E+04</pdfrwt>
<pdfrwt beam="2">  1       -2 0.19797581E-01 0.11393902E+04</pdfrwt>
<totfact> 0.73440955E+01</totfact>
</mgrwt>
</event>
<event>
12    1  0.1980523E-007  0.3624067E+04  0.7818608E-02  0.8085001E-01
         -1   -1    0    0    0  501 -0.00000000000E+00  0.00000000000E+00  0.24472013248E+04  0.24472013248E+04  0.00000000000E+00 0.  1.
          1   -1    0    0  501    0  0.00000000000E+00 -0.00000000000E+00 -0.13417223326E+04  0.13417223326E+04  0.00000000000E+00 0. -1.
         23    2    1    2    0    0  0.14491223034E+04 -0.74051943396E+03  0.10272551148E+04  0.19263177356E+04  0.84394698780E+02 0.  0.
        254    2    1    2    0    0 -0.14491223034E+04  0.74051943396E+03  0.78223877314E+02  0.18626059218E+04  0.90269450137E+03 0.  0.
        -24    2    4    4    0    0 -0.10943827644E+04  0.25835843287E+03  0.37664449696E+03  0.11889064653E+04  0.84939927051E+02 0.  0.
         24    2    4    4    0    0 -0.35473953897E+03  0.48216100109E+03 -0.29842061964E+03  0.67369945655E+03  0.80602233478E+02 0.  0.
         13    1    3    3    0    0  0.88725318995E+03 -0.42512998514E+03  0.65921145179E+03  0.11842776134E+04  0.00000000000E+00 0. -1.
        -13    1    3    3    0    0  0.56186911346E+03 -0.31538944882E+03  0.36804366304E+03  0.74204012222E+03  0.00000000000E+00 0.  1.
          2    1    6    6  502    0 -0.12963345344E+03  0.21572773267E+03 -0.89507433324E+02  0.26712331893E+03  0.00000000000E+00 0. -1.
          1    1    5    5  503    0 -0.16121084192E+03  0.13585610726E+02  0.35546196367E+02  0.16564128847E+03  0.00000000000E+00 0. -1.
         -2    1    5    5    0  503 -0.93317192252E+03  0.24477282214E+03  0.34109830059E+03  0.10232651768E+04  0.00000000000E+00 0.  1.
         -1    1    6    6    0  502 -0.22510608554E+03  0.26643326842E+03 -0.20891318632E+03  0.40657613762E+03  0.00000000000E+00 0.  1.
<mgrwt>
<rscale>  0 0.36240666E+04</rscale>
<asrwt>0</asrwt>
<pdfrwt beam="1">  1        1 0.20641882E+00 0.36240666E+04</pdfrwt>
<pdfrwt beam="2">  1       -1 0.37649251E+00 0.36240666E+04</pdfrwt>
<totfact> 0.70423486E-02</totfact>
</mgrwt>
</event>
<event>
12    1  0.1980523E-007  0.1114571E+04  0.7818608E-02  0.9191106E-01
         -2   -1    0    0    0  501 -0.00000000000E+00  0.00000000000E+00  0.38497982690E+03  0.38497982690E+03  0.00000000000E+00 0. -1.
          2   -1    0    0  501    0  0.00000000000E+00 -0.00000000000E+00 -0.80670954583E+03  0.80670954583E+03  0.00000000000E+00 0.  1.
         23    2    1    2    0    0 -0.15433951553E+03 -0.50002600841E+02 -0.46325023692E+02  0.19193604556E+03  0.91501320322E+02 0.  0.
        254    2    1    2    0    0  0.15433951553E+03  0.50002600841E+02 -0.37540469523E+03  0.99975332717E+03  0.91228125260E+03 0.  0.
        -24    2    4    4    0    0  0.25246732880E+03 -0.14505661168E+03  0.21126928656E+03  0.36804410357E+03  0.77721155550E+02 0.  0.
         24    2    4    4    0    0 -0.98127813277E+02  0.19505921252E+03 -0.58667398180E+03  0.63170922360E+03  0.84811662745E+02 0.  0.
         13    1    3    3    0    0 -0.38421822223E+02 -0.46998743946E+02 -0.45689076256E+02  0.75977694388E+02  0.00000000000E+00 0. -1.
        -13    1    3    3    0    0 -0.11591769330E+03 -0.30038568957E+01 -0.63594743571E+00  0.11595835117E+03  0.00000000000E+00 0.  1.
          2    1    6    6  502    0 -0.89124710543E+02  0.18640404553E+03 -0.45820403420E+03  0.50263368289E+03  0.00000000000E+00 0. -1.
          1    1    5    5  503    0  0.98043098790E+02 -0.57624663963E+02  0.13041449234E+03  0.17303465240E+03  0.00000000000E+00 0. -1.
         -2    1    5    5    0  503  0.15442423001E+03 -0.87431947718E+02  0.80854794220E+02  0.19500945117E+03  0.00000000000E+00 0.  1.
         -1    1    6    6    0  502 -0.90031027338E+01  0.86551669951E+01 -0.12846994759E+03  0.12907554071E+03  0.00000000000E+00 0.  1.
<mgrwt>
<rscale>  0 0.11145706E+04</rscale>
<asrwt>0</asrwt>
<pdfrwt beam="1">  1        2 0.12410916E+00 0.11145706E+04</pdfrwt>
<pdfrwt beam="2">  1       -2 0.59227666E-01 0.11145706E+04</pdfrwt>
<totfact> 0.89977614E+01</totfact>
</mgrwt>
</event>
<event>
12    1  0.1980523E-007  0.3056938E+04  0.7818608E-02  0.8227656E-01
          2   -1    0    0  501    0  0.00000000000E+00  0.00000000000E+00  0.16999134198E+04  0.16999134198E+04  0.00000000000E+00 0. -1.
         -2   -1    0    0    0  501 -0.00000000000E+00 -0.00000000000E+00 -0.13743151602E+04  0.13743151602E+04  0.00000000000E+00 0.  1.
         23    2    1    2    0    0 -0.17995053868E+03 -0.64352165081E+03  0.13792224474E+04  0.15366150488E+04  0.11148514498E+03 0.  0.
        254    2    1    2    0    0  0.17995053868E+03  0.64352165081E+03 -0.10536241877E+04  0.15376135311E+04  0.89868188519E+03 0.  0.
        -24    2    4    4    0    0  0.17190655202E+03  0.10904802048E+03  0.11755714401E+03  0.24790287287E+03  0.78694465317E+02 0.  0.
         24    2    4    4    0    0  0.80439866563E+01  0.53447363033E+03 -0.11711813317E+04  0.12897106583E+04  0.77208179626E+02 0.  0.
         11    1    3    3    0    0 -0.87120051904E+02 -0.45335445956E+03  0.86336529695E+03  0.97904024709E+03  0.00000000000E+00 0.  1.
        -11    1    3    3    0    0 -0.92830486771E+02 -0.19016719125E+03  0.51585715041E+03  0.55757480174E+03  0.00000000000E+00 0. -1.
          2    1    6    6  502    0 -0.29756914400E+02  0.22470915000E+03 -0.53819627695E+03  0.58398194200E+03  0.00000000000E+00 0. -1.
          3    1    5    5  503    0 -0.61493108407E+01  0.87339732658E+01 -0.23742133560E+01  0.10942266762E+02  0.00000000000E+00 0. -1.
         -4    1    5    5    0  503  0.17805586286E+03  0.10031404721E+03  0.11993135737E+03  0.23696060611E+03  0.00000000000E+00 0.  1.
         -3    1    6    6    0  502  0.37800901056E+02  0.30976448033E+03 -0.63298505479E+03  0.70572871628E+03  0.00000000000E+00 0.  1.
<mgrwt>
<rscale>  0 0.30569375E+04</rscale>
<asrwt>0</asrwt>
<pdfrwt beam="1">  1        2 0.26152514E+00 0.30569375E+04</pdfrwt>
<pdfrwt beam="2">  1       -2 0.21143310E+00 0.30569375E+04</pdfrwt>
<totfact> 0.93689212E-01</totfact>
</mgrwt>
</event>
<event>
12    1  0.1980523E-007  0.2353754E+04  0.7818608E-02  0.8457023E-01
         -3   -1    0    0    0  501 -0.00000000000E+00  0.00000000000E+00  0.20897220566E+04  0.20897220566E+04  0.00000000000E+00 0.  1.
          3   -1    0    0  501    0  0.00000000000E+00 -0.00000000000E+00 -0.66278652222E+03  0.66278652222E+03  0.00000000000E+00 0. -1.
         23    2    1    2    0    0  0.29157326724E+03 -0.79929367783E+03 -0.83005957639E+01  0.85585606391E+03  0.92386950636E+02 0.  0.
        254    2    1    2    0    0 -0.29157326724E+03  0.79929367783E+03  0.14352361301E+04  0.18966525149E+04  0.90194382276E+03 0.  0.
        -24    2    4    4    0    0 -0.37619334485E+03  0.86527097650E+03  0.77784619776E+03  0.12258758292E+04  0.86669174847E+02 0.  0.
         24    2    4    4    0    0  0.84620077615E+02 -0.65977298666E+02  0.65738993237E+03  0.67077668564E+03  0.79159821562E+02 0.  0.
         13    1    3    3    0    0  0.14007777800E+03 -0.49017588616E+03 -0.31959040752E+02  0.51079894631E+03  0.00000000000E+00 0.  1.
        -13    1    3    3    0    0  0.15149548924E+03 -0.30911779167E+03  0.23658444988E+02  0.34505711760E+03  0.00000000000E+00 0. -1.
          4    1    6    6  502    0  0.34902206694E+02 -0.52424035112E+01  0.40326782454E+03  0.40480931948E+03  0.00000000000E+00 0. -1.
          3    1    5    5  503    0 -0.10891738724E+03  0.30619720085E+03  0.22344614145E+03  0.39439561506E+03  0.00000000000E+00 0. -1.
         -4    1    5    5    0  503 -0.26727595761E+03  0.55907377565E+03  0.55440005631E+03  0.83148021418E+03  0.00000000000E+00 0.  1.
         -3    1    6    6    0  502  0.49717870921E+02 -0.60734895155E+02  0.25412210782E+03  0.26596736616E+03  0.00000000000E+00 0.  1.
<mgrwt>
<rscale>  0 0.23537541E+04</rscale>
<asrwt>0</asrwt>
<pdfrwt beam="1">  1        3 0.10196716E+00 0.23537541E+04</pdfrwt>
<pdfrwt beam="2">  1       -3 0.32149570E+00 0.23537541E+04</pdfrwt>
<totfact> 0.56718241E-02</totfact>
</mgrwt>
</event>
<event>
12    1  0.1980523E-007  0.1156019E+04  0.7818608E-02  0.9152248E-01
         -1   -1    0    0    0  501 -0.00000000000E+00  0.00000000000E+00  0.16382774692E+03  0.16382774692E+03  0.00000000000E+00 0.  1.
          1   -1    0    0  501    0  0.00000000000E+00 -0.00000000000E+00 -0.20393074373E+04  0.20393074373E+04  0.00000000000E+00 0. -1.
         23    2    1    2    0    0  0.86174837331E+02 -0.17394373522E+03 -0.48281411479E+03  0.52841497814E+03  0.91817177421E+02 0.  0.
        254    2    1    2    0    0 -0.86174837331E+02  0.17394373522E+03 -0.13926655756E+04  0.16747202061E+04  0.90966358487E+03 0.  0.
        -24    2    4    4    0    0 -0.31421612933E+02  0.52868027744E+03 -0.62268052509E+03  0.82136787787E+03  0.80149865646E+02 0.  0.
         24    2    4    4    0    0 -0.54753224398E+02 -0.35473654222E+03 -0.76998505055E+03  0.85335232825E+03  0.80605757234E+02 0.  0.
         13    1    3    3    0    0 -0.15882635184E+02 -0.45873552293E+01 -0.28713759840E+02  0.33132792404E+02  0.00000000000E+00 0. -1.
        -13    1    3    3    0    0  0.10205747251E+03 -0.16935637999E+03 -0.45410035495E+03  0.49528218573E+03  0.00000000000E+00 0.  1.
          2    1    6    6  502    0 -0.74528259206E+02 -0.30851446267E+03 -0.67436120932E+03  0.74531783538E+03  0.00000000000E+00 0. -1.
          1    1    5    5  503    0  0.23207529204E+02  0.21639366220E+03 -0.22926993062E+03  0.31611628800E+03  0.00000000000E+00 0. -1.
         -2    1    5    5    0  503 -0.54629142137E+02  0.31228661524E+03 -0.39341059447E+03  0.50525158987E+03  0.00000000000E+00 0.  1.
         -1    1    6    6    0  502  0.19775034808E+02 -0.46222079545E+02 -0.95623841225E+02  0.10803449287E+03  0.00000000000E+00 0.  1.
<mgrwt>
<rscale>  0 0.11560193E+04</rscale>
<asrwt>0</asrwt>
<pdfrwt beam="1">  1        1 0.31373962E+00 0.11560193E+04</pdfrwt>
<pdfrwt beam="2">  1       -1 0.25204267E-01 0.11560193E+04</pdfrwt>
<totfact> 0.38527791E+01</totfact>
</mgrwt>
</event>
<event>
12    1  0.2041642E-007  0.2783205E+04  0.7818608E-02  0.8308502E-01
         -1   -1    0    0    0  501 -0.00000000000E+00  0.00000000000E+00  0.88396860239E+03  0.88396860239E+03  0.00000000000E+00 0.  1.
          1   -1    0    0  501    0  0.00000000000E+00 -0.00000000000E+00 -0.21907536063E+04  0.21907536063E+04  0.00000000000E+00 0. -1.
         23    2    1    2    0    0 -0.90657311346E+03 -0.52282599887E+03 -0.13352027268E+04  0.16990159879E+04  0.93097638268E+02 0.  0.
        254    2    1    2    0    0  0.90657311346E+03  0.52282599887E+03  0.28417722885E+02  0.13757062208E+04  0.89248989009E+03 0.  0.
        -24    2    4    4    0    0  0.10042510216E+04  0.53031139933E+03 -0.15998320430E+03  0.11497156931E+04  0.80630358134E+02 0.  0.
         24    2    4    4    0    0 -0.97677908128E+02 -0.74854004606E+01  0.18840092718E+03  0.22599052774E+03  0.77329194417E+02 0.  0.
         11    1    3    3    0    0 -0.67115832897E+03 -0.43225435649E+03 -0.10253042982E+04  0.12994407394E+04  0.00000000000E+00 0. -1.
        -11    1    3    3    0    0 -0.23541478449E+03 -0.90571642377E+02 -0.30989842857E+03  0.39957524847E+03  0.00000000000E+00 0.  1.
          2    1    6    6  502    0 -0.26038880439E+02  0.33106507403E+02  0.71905651775E+02  0.83333587971E+02  0.00000000000E+00 0. -1.
          1    1    5    5  503    0  0.25425052358E+03  0.10215593070E+03 -0.58335900830E+02  0.28014681909E+03  0.00000000000E+00 0. -1.
         -2    1    5    5    0  503  0.75000049800E+03  0.42815546863E+03 -0.10164730347E+03  0.86956887400E+03  0.00000000000E+00 0.  1.
         -1    1    6    6    0  502 -0.71639027689E+02 -0.40591907864E+02  0.11649527541E+03  0.14265693977E+03  0.00000000000E+00 0.  1.
<mgrwt>
<rscale>  0 0.27832049E+04</rscale>
<asrwt>0</asrwt>
<pdfrwt beam="1">  1        1 0.33703901E+00 0.27832049E+04</pdfrwt>
<pdfrwt beam="2">  1       -1 0.13599517E+00 0.27832049E+04</pdfrwt>
<totfact> 0.86604281E-01</totfact>
</mgrwt>
</event>
<event>
12    1  0.1980523E-007  0.2738133E+04  0.7818608E-02  0.8322737E-01
         -2   -1    0    0    0  501 -0.00000000000E+00  0.00000000000E+00  0.70084086618E+03  0.70084086618E+03  0.00000000000E+00 0. -1.
          2   -1    0    0  501    0  0.00000000000E+00 -0.00000000000E+00 -0.26744211070E+04  0.26744211070E+04  0.00000000000E+00 0.  1.
         23    2    1    2    0    0 -0.39403630486E+03 -0.10555166953E+04 -0.30853355312E+03  0.11717598947E+04  0.91914056665E+02 0.  0.
        254    2    1    2    0    0  0.39403630486E+03  0.10555166953E+04 -0.16650466877E+04  0.22035020785E+04  0.90203150402E+03 0.  0.
        -24    2    4    4    0    0  0.11178707611E+03  0.35055962754E+03 -0.13064720588E+04  0.13596391623E+04  0.79755931671E+02 0.  0.
         24    2    4    4    0    0  0.28224922876E+03  0.70495706773E+03 -0.35857462896E+03  0.84386291617E+03  0.83064807752E+02 0.  0.
         13    1    3    3    0    0 -0.14885454338E+03 -0.31354333143E+03 -0.63797544841E+02  0.35289831750E+03  0.00000000000E+00 0.  1.
        -13    1    3    3    0    0 -0.24518176149E+03 -0.74197336384E+03 -0.24473600828E+03  0.81886157717E+03  0.00000000000E+00 0. -1.
          2    1    6    6  502    0  0.68720386187E+02  0.11442535598E+03 -0.37794091511E+02  0.13872291419E+03  0.00000000000E+00 0. -1.
          3    1    5    5  503    0  0.55143114924E+02  0.14348720083E+03 -0.41135320386E+03  0.43913642328E+03  0.00000000000E+00 0. -1.
         -4    1    5    5    0  503  0.56643961184E+02  0.20707242671E+03 -0.89511885490E+03  0.92050273907E+03  0.00000000000E+00 0.  1.
         -1    1    6    6    0  502  0.21352884257E+03  0.59053171175E+03 -0.32078053744E+03  0.70514000198E+03  0.00000000000E+00 0.  1.
<mgrwt>
<rscale>  0 0.27381334E+04</rscale>
<asrwt>0</asrwt>
<pdfrwt beam="1">  1        2 0.41144940E+00 0.27381334E+04</pdfrwt>
<pdfrwt beam="2">  1       -2 0.10782167E+00 0.27381334E+04</pdfrwt>
<totfact> 0.16581364E+00</totfact>
</mgrwt>
</event>
<event>
12    1  0.1980523E-007  0.2133158E+04  0.7818608E-02  0.8546776E-01
         -2   -1    0    0    0  501 -0.00000000000E+00  0.00000000000E+00  0.17543997834E+04  0.17543997834E+04  0.00000000000E+00 0.  1.
          2   -1    0    0  501    0  0.00000000000E+00 -0.00000000000E+00 -0.64842157286E+03  0.64842157286E+03  0.00000000000E+00 0. -1.
         23    2    1    2    0    0 -0.21988910904E+02 -0.72426432313E+03  0.10030347064E+04  0.12406532378E+04  0.89997290707E+02 0.  0.
        254    2    1    2    0    0  0.21988910904E+02  0.72426432313E+03  0.10294350420E+03  0.11621681185E+04  0.90277076194E+03 0.  0.
        -24    2    4    4    0    0 -0.81343636538E+01  0.46855807075E+02  0.40517526552E+03  0.41556076236E+03  0.79133538335E+02 0.  0.
         24    2    4    4    0    0  0.30123274558E+02  0.67740851605E+03 -0.30223176132E+03  0.74660735613E+03  0.79301938144E+02 0.  0.
         13    1    3    3    0    0 -0.55244423281E+02 -0.40695026298E+03  0.54328102375E+03  0.68103945085E+03  0.00000000000E+00 0.  1.
        -13    1    3    3    0    0  0.33255512377E+02 -0.31731406014E+03  0.45975368260E+03  0.55961378694E+03  0.00000000000E+00 0. -1.
          2    1    6    6  502    0  0.29156521645E+02  0.63255009444E+03 -0.25850338664E+03  0.68395447629E+03  0.00000000000E+00 0. -1.
          1    1    5    5  503    0  0.23105348942E+02 -0.82402614317E+01  0.17941854975E+03  0.18108775512E+03  0.00000000000E+00 0. -1.
         -2    1    5    5    0  503 -0.31239712596E+02  0.55096068506E+02  0.22575671577E+03  0.23447300724E+03  0.00000000000E+00 0.  1.
         -1    1    6    6    0  502  0.96675291283E+00  0.44858421612E+02 -0.43728374683E+02  0.62652879847E+02  0.00000000000E+00 0.  1.
<mgrwt>
<rscale>  0 0.21331579E+04</rscale>
<asrwt>0</asrwt>
<pdfrwt beam="1">  1        2 0.99757166E-01 0.21331579E+04</pdfrwt>
<pdfrwt beam="2">  1       -2 0.26990766E+00 0.21331579E+04</pdfrwt>
<totfact> 0.20116490E+00</totfact>
</mgrwt>
</event>
<event>
12    1  0.1980523E-007  0.1776477E+04  0.7818608E-02  0.8718910E-01
         -1   -1    0    0    0  501 -0.00000000000E+00  0.00000000000E+00  0.39351476766E+03  0.39351476766E+03  0.00000000000E+00 0.  1.
          1   -1    0    0  501    0  0.00000000000E+00 -0.00000000000E+00 -0.20049246514E+04  0.20049246514E+04  0.00000000000E+00 0. -1.
         23    2    1    2    0    0  0.22230958012E+03  0.54025725881E+03 -0.19855662507E+03  0.62377578368E+03  0.91498851526E+02 0.  0.
        254    2    1    2    0    0 -0.22230958012E+03 -0.54025725881E+03 -0.14128532587E+04  0.17746636354E+04  0.90109779331E+03 0.  0.
        -24    2    4    4    0    0 -0.52964437293E+03 -0.38524834304E+03 -0.61549406204E+03  0.90205790330E+03  0.77045914264E+02 0.  0.
         24    2    4    4    0    0  0.30733479282E+03 -0.15500891577E+03 -0.79735919668E+03  0.87260573212E+03  0.84715030303E+02 0.  0.
         11    1    3    3    0    0  0.22039041777E+02  0.15663399024E+03 -0.43046865568E+02  0.16392973768E+03  0.00000000000E+00 0.  1.
        -11    1    3    3    0    0  0.20027053834E+03  0.38362326858E+03 -0.15550975950E+03  0.45984604600E+03  0.00000000000E+00 0. -1.
          2    1    6    6  502    0  0.10823502178E+03 -0.13232253244E+02 -0.21624953265E+03  0.24218541004E+03  0.00000000000E+00 0. -1.
          3    1    5    5  503    0 -0.43364478755E+02 -0.23129126724E+02 -0.22767551590E+02  0.54164526455E+02  0.00000000000E+00 0. -1.
         -4    1    5    5    0  503 -0.48627989418E+03 -0.36211921632E+03 -0.59272651045E+03  0.84789337685E+03  0.00000000000E+00 0.  1.
         -1    1    6    6    0  502  0.19909977104E+03 -0.14177666253E+03 -0.58110966403E+03  0.63042032208E+03  0.00000000000E+00 0.  1.
<mgrwt>
<rscale>  0 0.17764768E+04</rscale>
<asrwt>0</asrwt>
<pdfrwt beam="1">  1        1 0.30844994E+00 0.17764768E+04</pdfrwt>
<pdfrwt beam="2">  1       -1 0.60540734E-01 0.17764768E+04</pdfrwt>
<totfact> 0.77371509E+00</totfact>
</mgrwt>
</event>
<event>
12    1  0.1980523E-007  0.1515311E+04  0.7818608E-02  0.8874334E-01
          2   -1    0    0  501    0  0.00000000000E+00  0.00000000000E+00  0.30076239313E+04  0.30076239313E+04  0.00000000000E+00 0. -1.
         -2   -1    0    0    0  501 -0.00000000000E+00 -0.00000000000E+00 -0.19086234839E+03  0.19086234839E+03  0.00000000000E+00 0.  1.
         23    2    1    2    0    0  0.17535231956E+03 -0.26824347953E+03  0.16830593297E+04  0.17156913231E+04  0.90581503204E+02 0.  0.
        254    2    1    2    0    0 -0.17535231956E+03  0.26824347953E+03  0.11337022532E+04  0.14827949566E+04  0.90038718560E+03 0.  0.
        -24    2    4    4    0    0 -0.67348701755E+02 -0.31274357620E+02  0.11486713826E+04  0.11543351544E+04  0.86774249641E+02 0.  0.
         24    2    4    4    0    0 -0.10800361781E+03  0.29951783715E+03 -0.14969129415E+02  0.32845980214E+03  0.79284617395E+02 0.  0.
         13    1    3    3    0    0  0.17738457127E+03 -0.21826959764E+03  0.13595114719E+04  0.13883005243E+04  0.00000000000E+00 0. -1.
        -13    1    3    3    0    0 -0.20322517026E+01 -0.49973881890E+02  0.32354785773E+03  0.32739079883E+03  0.00000000000E+00 0.  1.
          4    1    6    6  502    0 -0.70329121327E+02  0.15416519764E+03 -0.45016745529E+02  0.17532712525E+03  0.00000000000E+00 0. -1.
          1    1    5    5  503    0 -0.51241575418E+02  0.23423212800E+02  0.64114449480E+03  0.64361526486E+03  0.00000000000E+00 0. -1.
         -2    1    5    5    0  503 -0.16107126337E+02 -0.54697570419E+02  0.50752688784E+03  0.51071988958E+03  0.00000000000E+00 0.  1.
         -3    1    6    6    0  502 -0.37674496482E+02  0.14535263951E+03  0.30047616114E+02  0.15313267689E+03  0.00000000000E+00 0.  1.
<mgrwt>
<rscale>  0 0.15153114E+04</rscale>
<asrwt>0</asrwt>
<pdfrwt beam="1">  1        2 0.46271134E+00 0.15153114E+04</pdfrwt>
<pdfrwt beam="2">  1       -2 0.29363440E-01 0.15153114E+04</pdfrwt>
<totfact> 0.17865692E+01</totfact>
</mgrwt>
</event>
<event>
12    1  0.1980523E-007  0.2551938E+04  0.7818608E-02  0.8384712E-01
         -1   -1    0    0    0  501 -0.00000000000E+00  0.00000000000E+00  0.10283624877E+04  0.10283624877E+04  0.00000000000E+00 0.  1.
          1   -1    0    0  501    0  0.00000000000E+00 -0.00000000000E+00 -0.15831935700E+04  0.15831935700E+04  0.00000000000E+00 0. -1.
         23    2    1    2    0    0 -0.91280040776E+03 -0.11613427166E+02 -0.89623113254E+03  0.12824567047E+04  0.90141557276E+02 0.  0.
        254    2    1    2    0    0  0.91280040776E+03  0.11613427166E+02  0.34140005025E+03  0.13290993530E+04  0.90366566820E+03 0.  0.
        -24    2    4    4    0    0  0.26400274193E+03 -0.17203083618E+03  0.53259249029E+03  0.62372916192E+03  0.78046462937E+02 0.  0.
         24    2    4    4    0    0  0.64879766583E+03  0.18364426334E+03 -0.19119244004E+03  0.70537019113E+03  0.79554577256E+02 0.  0.
         11    1    3    3    0    0 -0.70051399064E+03 -0.18783950685E+02 -0.63408932345E+03  0.94506188051E+03  0.00000000000E+00 0.  1.
        -11    1    3    3    0    0 -0.21228641712E+03  0.71705235187E+01 -0.26214180910E+03  0.33739482417E+03  0.00000000000E+00 0. -1.
          2    1    6    6  502    0  0.51463972766E+03  0.13433958288E+03 -0.11811728447E+03  0.54484205574E+03  0.00000000000E+00 0. -1.
          3    1    5    5  503    0  0.26495539343E+03 -0.15661577064E+03  0.51765461949E+03  0.60224261324E+03  0.00000000000E+00 0. -1.
         -4    1    5    5    0  503 -0.95265149749E+00 -0.15415065535E+02  0.14937870796E+02  0.21486548682E+02  0.00000000000E+00 0.  1.
         -1    1    6    6    0  502  0.13415793817E+03  0.49304680467E+02 -0.73075155575E+02  0.16052813539E+03  0.00000000000E+00 0.  1.
<mgrwt>
<rscale>  0 0.25519380E+04</rscale>
<asrwt>0</asrwt>
<pdfrwt beam="1">  1        1 0.24356824E+00 0.25519380E+04</pdfrwt>
<pdfrwt beam="2">  1       -1 0.15820961E+00 0.25519380E+04</pdfrwt>
<totfact> 0.15283809E+00</totfact>
</mgrwt>
</event>
<event>
12    1  0.1980523E-007  0.1095336E+04  0.7818608E-02  0.9209750E-01
          1   -1    0    0  501    0  0.00000000000E+00  0.00000000000E+00  0.17696075031E+04  0.17696075031E+04  0.00000000000E+00 0. -1.
         -1   -1    0    0    0  501 -0.00000000000E+00 -0.00000000000E+00 -0.16949539645E+03  0.16949539645E+03  0.00000000000E+00 0.  1.
         23    2    1    2    0    0 -0.38595394978E+02  0.12899222854E+03  0.38429001606E+03  0.41790636919E+03  0.94012325935E+02 0.  0.
        254    2    1    2    0    0  0.38595394978E+02 -0.12899222854E+03  0.12158220906E+04  0.15211965304E+04  0.90426043178E+03 0.  0.
        -24    2    4    4    0    0 -0.31536156338E+03 -0.22478771867E+02  0.96750109840E+02  0.34000866647E+03  0.79291227016E+02 0.  0.
         24    2    4    4    0    0  0.35395695836E+03 -0.10651345667E+03  0.11190719808E+04  0.11811878639E+04  0.79069759460E+02 0.  0.
         11    1    3    3    0    0 -0.12312718997E+02  0.11076677809E+03  0.36239820048E+03  0.37914817405E+03  0.00000000000E+00 0. -1.
        -11    1    3    3    0    0 -0.26282675981E+02  0.18225450447E+02  0.21891815584E+02  0.38758195137E+02  0.00000000000E+00 0.  1.
          2    1    6    6  502    0  0.66398714674E+02 -0.53753875289E+02  0.23692057597E+03  0.25185239276E+03  0.00000000000E+00 0. -1.
          1    1    5    5  503    0 -0.69128601158E+02  0.27354291224E+02  0.29083983860E+02  0.79830438203E+02  0.00000000000E+00 0. -1.
         -2    1    5    5    0  503 -0.24623296222E+03 -0.49833063091E+02  0.67666125979E+02  0.26017822827E+03  0.00000000000E+00 0.  1.
         -1    1    6    6    0  502  0.28755824368E+03 -0.52759581382E+02  0.88215140481E+03  0.92933547116E+03  0.00000000000E+00 0.  1.
<mgrwt>
<rscale>  0 0.10953362E+04</rscale>
<asrwt>0</asrwt>
<pdfrwt beam="1">  1        1 0.27224730E+00 0.10953362E+04</pdfrwt>
<pdfrwt beam="2">  1       -1 0.26076216E-01 0.10953362E+04</pdfrwt>
<totfact> 0.55541666E+01</totfact>
</mgrwt>
</event>
<event>
12    1  0.1980523E-007  0.3876355E+04  0.7818608E-02  0.8029965E-01
          2   -1    0    0  501    0  0.00000000000E+00  0.00000000000E+00  0.21527771825E+04  0.21527771825E+04  0.00000000000E+00 0. -1.
         -2   -1    0    0    0  501 -0.00000000000E+00 -0.00000000000E+00 -0.17449701562E+04  0.17449701562E+04  0.00000000000E+00 0.  1.
         23    2    1    2    0    0 -0.17861501225E+04 -0.17814289351E+03 -0.17797938463E+03  0.18061490525E+04  0.91818232666E+02 0.  0.
        254    2    1    2    0    0  0.17861501225E+04  0.17814289351E+03  0.58578641088E+03  0.20915982862E+04  0.89976136883E+03 0.  0.
        -24    2    4    4    0    0  0.28547827733E+03  0.94848551438E+02  0.49354158142E+03  0.58387191314E+03  0.82637907902E+02 0.  0.
         24    2    4    4    0    0  0.15006718452E+04  0.83294342076E+02  0.92244829459E+02  0.15077263730E+04  0.75998506662E+02 0.  0.
         13    1    3    3    0    0 -0.56009439530E+03 -0.98457418740E+02 -0.51170859535E+02  0.57097990491E+03  0.00000000000E+00 0. -1.
        -13    1    3    3    0    0 -0.12260557272E+04 -0.79685474774E+02 -0.12680852510E+03  0.12351691476E+04  0.00000000000E+00 0.  1.
          2    1    6    6  502    0  0.14084041559E+04  0.69796417810E+02  0.10283465632E+03  0.14138772128E+04  0.00000000000E+00 0. -1.
          3    1    5    5  503    0  0.29037672538E+03  0.88111538493E+02  0.48334718249E+03  0.57070726706E+03  0.00000000000E+00 0. -1.
         -4    1    5    5    0  503 -0.48984480492E+01  0.67370129452E+01  0.10194398935E+02  0.13164646078E+02  0.00000000000E+00 0.  1.
         -1    1    6    6    0  502  0.92267689303E+02  0.13497924266E+02 -0.10589826863E+02  0.93849160262E+02  0.00000000000E+00 0.  1.
<mgrwt>
<rscale>  0 0.38763550E+04</rscale>
<asrwt>0</asrwt>
<pdfrwt beam="1">  1        2 0.33119649E+00 0.38763550E+04</pdfrwt>
<pdfrwt beam="2">  1       -2 0.26845695E+00 0.38763550E+04</pdfrwt>
<totfact> 0.21665774E-01</totfact>
</mgrwt>
</event>
<event>
12    1  0.1980523E-007  0.1181567E+04  0.7818608E-02  0.9129146E-01
         -1   -1    0    0    0  501 -0.00000000000E+00  0.00000000000E+00  0.46778827952E+03  0.46778827952E+03  0.00000000000E+00 0.  1.
          1   -1    0    0  501    0  0.00000000000E+00 -0.00000000000E+00 -0.74611744679E+03  0.74611744679E+03  0.00000000000E+00 0. -1.
         23    2    1    2    0    0 -0.66030526992E+02  0.22379178675E+03 -0.78112889462E+02  0.26284296580E+03  0.92422977995E+02 0.  0.
        254    2    1    2    0    0  0.66030526992E+02 -0.22379178675E+03 -0.20021627781E+03  0.95106276051E+03  0.89999501233E+03 0.  0.
        -24    2    4    4    0    0  0.18391373210E+03  0.30475414830E+03  0.12312554747E+02  0.36516081681E+03  0.80569667774E+02 0.  0.
         24    2    4    4    0    0 -0.11788320511E+03 -0.52854593505E+03 -0.21252883256E+03  0.58590194370E+03  0.69680179804E+02 0.  0.
         11    1    3    3    0    0 -0.47698635762E+02  0.18139870358E+03 -0.20025171163E+02  0.18863100751E+03  0.00000000000E+00 0.  1.
        -11    1    3    3    0    0 -0.18331891230E+02  0.42393083166E+02 -0.58087718298E+02  0.74211958292E+02  0.00000000000E+00 0. -1.
          4    1    6    6  502    0 -0.67490392928E+02 -0.42929271486E+03 -0.17407419067E+03  0.46813354081E+03  0.00000000000E+00 0. -1.
          1    1    5    5  503    0  0.17301340308E+03  0.27019987477E+03  0.34467700656E+02  0.32269123378E+03  0.00000000000E+00 0. -1.
         -2    1    5    5    0  503  0.10900329014E+02  0.34554273539E+02 -0.22155145909E+02  0.42469583029E+02  0.00000000000E+00 0.  1.
         -3    1    6    6    0  502 -0.50392812178E+02 -0.99253220188E+02 -0.38454641886E+02  0.11776840289E+03  0.00000000000E+00 0.  1.
<mgrwt>
<rscale>  0 0.11815668E+04</rscale>
<asrwt>0</asrwt>
<pdfrwt beam="1">  1        1 0.11478730E+00 0.11815668E+04</pdfrwt>
<pdfrwt beam="2">  1       -1 0.71967428E-01 0.11815668E+04</pdfrwt>
<totfact> 0.47696411E+01</totfact>
</mgrwt>
</event>
<event>
12    1  0.1980523E-007  0.1106091E+04  0.7818608E-02  0.9199275E-01
         -2   -1    0    0    0  501 -0.00000000000E+00  0.00000000000E+00  0.26167531201E+03  0.26167531201E+03  0.00000000000E+00 0.  1.
          2   -1    0    0  501    0  0.00000000000E+00 -0.00000000000E+00 -0.11688514379E+04  0.11688514379E+04  0.00000000000E+00 0. -1.
         23    2    1    2    0    0  0.72926255975E+02  0.70941510023E+01  0.38164021690E+02  0.12342925796E+03  0.91704543950E+02 0.  0.
        254    2    1    2    0    0 -0.72926255975E+02 -0.70941510023E+01 -0.94534014762E+03  0.13070974920E+04  0.89970400303E+03 0.  0.
        -24    2    4    4    0    0  0.30259887537E+03 -0.28857971786E+03 -0.47335628154E+03  0.63664062588E+03  0.80004901803E+02 0.  0.
         24    2    4    4    0    0 -0.37552513134E+03  0.28148556686E+03 -0.47198386609E+03  0.67045686611E+03  0.80562962048E+02 0.  0.
         13    1    3    3    0    0  0.21018884163E+01  0.26455515431E+02 -0.17066137817E+02  0.31552579793E+02  0.00000000000E+00 0. -1.
        -13    1    3    3    0    0  0.70824367559E+02 -0.19361364428E+02  0.55230159507E+02  0.91876678171E+02  0.00000000000E+00 0.  1.
          2    1    6    6  502    0 -0.49982292356E+02  0.25204191181E+02 -0.26001391224E+02  0.61721577652E+02  0.00000000000E+00 0. -1.
          1    1    5    5  503    0  0.69577671642E+02 -0.66912376762E+02 -0.63003582803E+02  0.11527258998E+03  0.00000000000E+00 0. -1.
         -2    1    5    5    0  503  0.23302120372E+03 -0.22166734110E+03 -0.41035269873E+03  0.52136803589E+03  0.00000000000E+00 0.  1.
         -1    1    6    6    0  502 -0.32554283899E+03  0.25628137568E+03 -0.44598247486E+03  0.60873528846E+03  0.00000000000E+00 0.  1.
<mgrwt>
<rscale>  0 0.11060914E+04</rscale>
<asrwt>0</asrwt>
<pdfrwt beam="1">  1        2 0.17982330E+00 0.11060914E+04</pdfrwt>
<pdfrwt beam="2">  1       -2 0.40257740E-01 0.11060914E+04</pdfrwt>
<totfact> 0.11453959E+02</totfact>
</mgrwt>
</event>
<event>
12    1  0.1980523E-007  0.1382126E+04  0.7818608E-02  0.8966859E-01
         -2   -1    0    0    0  501 -0.00000000000E+00  0.00000000000E+00  0.42273694720E+03  0.42273694720E+03  0.00000000000E+00 0.  1.
          2   -1    0    0  501    0  0.00000000000E+00 -0.00000000000E+00 -0.11297044651E+04  0.11297044651E+04  0.00000000000E+00 0. -1.
         23    2    1    2    0    0 -0.33844073812E+03 -0.18528301427E+03 -0.13666033946E+03  0.41912558536E+03  0.90101494583E+02 0.  0.
        254    2    1    2    0    0  0.33844073812E+03  0.18528301427E+03 -0.57030717845E+03  0.11333158269E+04  0.90015696253E+03 0.  0.
        -24    2    4    4    0    0 -0.18743463512E+02 -0.64395566007E+02  0.21082015517E+03  0.23528781402E+03  0.80106873971E+02 0.  0.
         24    2    4    4    0    0  0.35718420163E+03  0.24967858028E+03 -0.78112733362E+03  0.89802801291E+03  0.79840173489E+02 0.  0.
         13    1    3    3    0    0 -0.31056454329E+03 -0.14490764934E+03 -0.13942582759E+03  0.36998395071E+03  0.00000000000E+00 0. -1.
        -13    1    3    3    0    0 -0.27876194837E+02 -0.40375364931E+02  0.27654881277E+01  0.49141634654E+02  0.00000000000E+00 0.  1.
          4    1    6    6  502    0  0.30739832230E+03  0.24491135677E+03 -0.69170942133E+03  0.79557351941E+03  0.00000000000E+00 0. -1.
          3    1    5    5  503    0 -0.16462340235E+02  0.10519142785E+01  0.13103113455E+03  0.13206541331E+03  0.00000000000E+00 0. -1.
         -4    1    5    5    0  503 -0.22811232775E+01 -0.65447480286E+02  0.79789020615E+02  0.10322240072E+03  0.00000000000E+00 0.  1.
         -3    1    6    6    0  502  0.49785879334E+02  0.47672235081E+01 -0.89417912292E+02  0.10245449351E+03  0.00000000000E+00 0.  1.
<mgrwt>
<rscale>  0 0.13821256E+04</rscale>
<asrwt>0</asrwt>
<pdfrwt beam="1">  1        2 0.17380068E+00 0.13821256E+04</pdfrwt>
<pdfrwt beam="2">  1       -2 0.65036454E-01 0.13821256E+04</pdfrwt>
<totfact> 0.44394200E+01</totfact>
</mgrwt>
</event>
<event>
12    1  0.1980523E-007  0.2592133E+04  0.7818608E-02  0.8370878E-01
         -1   -1    0    0    0  501 -0.00000000000E+00  0.00000000000E+00  0.21008137447E+04  0.21008137447E+04  0.00000000000E+00 0.  1.
          1   -1    0    0  501    0  0.00000000000E+00 -0.00000000000E+00 -0.79958938531E+03  0.79958938531E+03  0.00000000000E+00 0. -1.
         23    2    1    2    0    0 -0.11156905377E+04 -0.22109472397E+03  0.52268725656E+03  0.12549664190E+04  0.89947160905E+02 0.  0.
        254    2    1    2    0    0  0.11156905377E+04  0.22109472397E+03  0.77853710283E+03  0.16454367110E+04  0.89871780695E+03 0.  0.
        -24    2    4    4    0    0  0.10672816861E+04 -0.72228436736E+02  0.37091864651E+03  0.11350378474E+04  0.80144421127E+02 0.  0.
         24    2    4    4    0    0  0.48408851648E+02  0.29332316070E+03  0.40761845632E+03  0.51039886360E+03  0.77280660607E+02 0.  0.
         13    1    3    3    0    0 -0.32310992085E+03 -0.24499689390E+02  0.16155612828E+03  0.36207822127E+03  0.00000000000E+00 0.  1.
        -13    1    3    3    0    0 -0.79258061686E+03 -0.19659503458E+03  0.36113112828E+03  0.89288819773E+03  0.00000000000E+00 0. -1.
          4    1    6    6  502    0  0.40346699395E+02  0.28417105713E+03  0.40720687662E+03  0.49819522903E+03  0.00000000000E+00 0. -1.
          1    1    5    5  503    0  0.90712015966E+03 -0.34739369517E+02  0.32570097479E+03  0.96444540168E+03  0.00000000000E+00 0. -1.
         -2    1    5    5    0  503  0.16016152641E+03 -0.37489067219E+02  0.45217671714E+02  0.17059244572E+03  0.00000000000E+00 0.  1.
         -3    1    6    6    0  502  0.80621522535E+01  0.91521035732E+01  0.41157970204E+00  0.12203634566E+02  0.00000000000E+00 0.  1.
<mgrwt>
<rscale>  0 0.25921330E+04</rscale>
<asrwt>0</asrwt>
<pdfrwt beam="1">  1        1 0.12301375E+00 0.25921330E+04</pdfrwt>
<pdfrwt beam="2">  1       -1 0.32320211E+00 0.25921330E+04</pdfrwt>
<totfact> 0.45491170E-01</totfact>
</mgrwt>
</event>
<event>
12    1  0.1980523E-007  0.1812473E+04  0.7818608E-02  0.8699695E-01
         -1   -1    0    0    0  501 -0.00000000000E+00  0.00000000000E+00  0.42013323749E+03  0.42013323749E+03  0.00000000000E+00 0.  1.
          1   -1    0    0  501    0  0.00000000000E+00 -0.00000000000E+00 -0.19547707196E+04  0.19547707196E+04  0.00000000000E+00 0. -1.
         23    2    1    2    0    0 -0.26308540009E+03  0.68513679749E+02  0.23537884913E+03  0.37079882518E+03  0.90446194415E+02 0.  0.
        254    2    1    2    0    0  0.26308540009E+03 -0.68513679749E+02 -0.17700163313E+04  0.20041051319E+04  0.89976192121E+03 0.  0.
        -24    2    4    4    0    0 -0.11964856091E+03  0.74722784532E+02  0.23534811743E+02  0.16276797427E+03  0.77719067348E+02 0.  0.
         24    2    4    4    0    0  0.38273396100E+03 -0.14323646428E+03 -0.17935511430E+04  0.18413371577E+04  0.81822099817E+02 0.  0.
         11    1    3    3    0    0 -0.70813731894E+02  0.23736484648E+02  0.12226826234E+03  0.14327432884E+03  0.00000000000E+00 0.  1.
        -11    1    3    3    0    0 -0.19227166820E+03  0.44777195101E+02  0.11311058679E+03  0.22752449634E+03  0.00000000000E+00 0. -1.
          2    1    6    6  502    0  0.22744337257E+03 -0.60700950415E+02 -0.11708037409E+04  0.11942346892E+04  0.00000000000E+00 0. -1.
          3    1    5    5  503    0 -0.74381986676E+02  0.89763719910E+00  0.13303768847E+02  0.75567691244E+02  0.00000000000E+00 0. -1.
         -4    1    5    5    0  503 -0.45266574231E+02  0.73825147333E+02  0.10231042896E+02  0.87200283028E+02  0.00000000000E+00 0.  1.
         -1    1    6    6    0  502  0.15529058843E+03 -0.82535513866E+02 -0.62274740207E+03  0.64710246846E+03  0.00000000000E+00 0.  1.
<mgrwt>
<rscale>  0 0.18124725E+04</rscale>
<asrwt>0</asrwt>
<pdfrwt beam="1">  1        1 0.30073395E+00 0.18124725E+04</pdfrwt>
<pdfrwt beam="2">  1       -1 0.64635884E-01 0.18124725E+04</pdfrwt>
<totfact> 0.73172578E+00</totfact>
</mgrwt>
</event>
<event>
12    1  0.1980523E-007  0.1551231E+04  0.7818608E-02  0.8851082E-01
         -2   -1    0    0    0  501 -0.00000000000E+00  0.00000000000E+00  0.11699920724E+04  0.11699920724E+04  0.00000000000E+00 0. -1.
          2   -1    0    0  501    0  0.00000000000E+00 -0.00000000000E+00 -0.51417404669E+03  0.51417404669E+03  0.00000000000E+00 0.  1.
         23    2    1    2    0    0 -0.44119354714E+03  0.20249914242E+03  0.38634923760E+03  0.62705929079E+03  0.90994351769E+02 0.  0.
        254    2    1    2    0    0  0.44119354714E+03 -0.20249914242E+03  0.26946878810E+03  0.10571068283E+04  0.89955754121E+03 0.  0.
        -24    2    4    4    0    0  0.48313470083E+03  0.24319120344E+03  0.25025869436E+03  0.60117406977E+03  0.78865375696E+02 0.  0.
         24    2    4    4    0    0 -0.41941153687E+02 -0.44569034585E+03  0.19210093743E+02  0.45593275853E+03  0.84301292009E+02 0.  0.
         13    1    3    3    0    0 -0.36284701939E+03  0.14599202499E+03  0.34663421287E+03  0.52261544980E+03  0.00000000000E+00 0. -1.
        -13    1    3    3    0    0 -0.78346527756E+02  0.56507117432E+02  0.39715024731E+02  0.10444384099E+03  0.00000000000E+00 0.  1.
          4    1    6    6  502    0  0.31719217599E+01 -0.57428210145E+02  0.30081628608E+02  0.64907355422E+02  0.00000000000E+00 0. -1.
          3    1    5    5  503    0  0.96984552503E+02  0.32171702886E+02  0.18551053519E+02  0.10385164167E+03  0.00000000000E+00 0. -1.
         -4    1    5    5    0  503  0.38615014833E+03  0.21101950055E+03  0.23170764084E+03  0.49732242810E+03  0.00000000000E+00 0.  1.
         -1    1    6    6    0  502 -0.45113075447E+02 -0.38826213571E+03 -0.10871534865E+02  0.39102540310E+03  0.00000000000E+00 0.  1.
<mgrwt>
<rscale>  0 0.15512312E+04</rscale>
<asrwt>0</asrwt>
<pdfrwt beam="1">  1        2 0.79103700E-01 0.15512312E+04</pdfrwt>
<pdfrwt beam="2">  1       -2 0.17999878E+00 0.15512312E+04</pdfrwt>
<totfact> 0.10391137E+01</totfact>
</mgrwt>
</event>
<event>
12    1  0.1980523E-007  0.2187531E+04  0.7818608E-02  0.8523636E-01
          1   -1    0    0  501    0  0.00000000000E+00  0.00000000000E+00  0.11527640796E+04  0.11527640796E+04  0.00000000000E+00 0. -1.
         -1   -1    0    0    0  501 -0.00000000000E+00 -0.00000000000E+00 -0.10377869120E+04  0.10377869120E+04  0.00000000000E+00 0.  1.
         23    2    1    2    0    0 -0.49129370240E+03 -0.62789940326E+02 -0.71069380772E+03  0.87107894395E+03  0.91546488934E+02 0.  0.
        254    2    1    2    0    0  0.49129370240E+03  0.62789940326E+02  0.82567097532E+03  0.13194720476E+04  0.90219834092E+03 0.  0.
        -24    2    4    4    0    0  0.37573519786E+03  0.46493862543E+03  0.48737865810E+03  0.77545494985E+03  0.80296690776E+02 0.  0.
         24    2    4    4    0    0  0.11555850453E+03 -0.40214868510E+03  0.33829231722E+03  0.54401709778E+03  0.80222053618E+02 0.  0.
         11    1    3    3    0    0 -0.33644942715E+03 -0.16314099936E+02 -0.53600123345E+03  0.63305741379E+03  0.00000000000E+00 0.  1.
        -11    1    3    3    0    0 -0.15484427524E+03 -0.46475840391E+02 -0.17469257427E+03  0.23802153016E+03  0.00000000000E+00 0. -1.
          2    1    6    6  502    0  0.57046619252E+02 -0.80690455274E+02  0.89711298409E+02  0.13346678764E+03  0.00000000000E+00 0. -1.
          3    1    5    5  503    0  0.28904129565E+03  0.38515896764E+03  0.35513537906E+03  0.59834224187E+03  0.00000000000E+00 0. -1.
         -4    1    5    5    0  503  0.86693902207E+02  0.79779657790E+02  0.13224327904E+03  0.17711270798E+03  0.00000000000E+00 0.  1.
         -1    1    6    6    0  502  0.58511885283E+02 -0.32145822983E+03  0.24858101881E+03  0.41055031014E+03  0.00000000000E+00 0.  1.
<mgrwt>
<rscale>  0 0.21875315E+04</rscale>
<asrwt>0</asrwt>
<pdfrwt beam="1">  1        1 0.17734832E+00 0.21875315E+04</pdfrwt>
<pdfrwt beam="2">  1       -1 0.15965952E+00 0.21875315E+04</pdfrwt>
<totfact> 0.31067396E+00</totfact>
</mgrwt>
</event>
<event>
12    1  0.1980523E-007  0.1584362E+04  0.7818608E-02  0.8830213E-01
          2   -1    0    0  501    0  0.00000000000E+00  0.00000000000E+00  0.41111505682E+03  0.41111505682E+03  0.00000000000E+00 0. -1.
         -2   -1    0    0    0  501 -0.00000000000E+00 -0.00000000000E+00 -0.15264601852E+04  0.15264601852E+04  0.00000000000E+00 0.  1.
         23    2    1    2    0    0 -0.19166194198E+02  0.46188196738E+03 -0.53171817497E+02  0.47224923900E+03  0.80559336951E+02 0.  0.
        254    2    1    2    0    0  0.19166194198E+02 -0.46188196738E+03 -0.10621733109E+04  0.14653260030E+04  0.89736606686E+03 0.  0.
        -24    2    4    4    0    0 -0.13600917087E+03 -0.45061926497E+03 -0.10032947063E+03  0.48773958734E+03  0.79168717650E+02 0.  0.
         24    2    4    4    0    0  0.15517536506E+03 -0.11262702411E+02 -0.96184384026E+03  0.97758641567E+03  0.79532287002E+02 0.  0.
         11    1    3    3    0    0  0.11492039356E+02  0.89092900282E+02  0.17669685630E+02  0.91552332791E+02  0.00000000000E+00 0. -1.
        -11    1    3    3    0    0 -0.30658233554E+02  0.37278906710E+03 -0.70841503127E+02  0.38069690621E+03  0.00000000000E+00 0.  1.
          4    1    6    6  502    0  0.12425383040E+03  0.24218294063E+02 -0.74670258116E+03  0.75735743533E+03  0.00000000000E+00 0. -1.
          1    1    5    5  503    0 -0.77703496142E+02 -0.22581239665E+03 -0.90197869469E+02  0.25527382837E+03  0.00000000000E+00 0. -1.
         -2    1    5    5    0  503 -0.58305674726E+02 -0.22480686832E+03 -0.10131601156E+02  0.23246575897E+03  0.00000000000E+00 0.  1.
         -3    1    6    6    0  502  0.30921534660E+02 -0.35480996474E+02 -0.21514125910E+03  0.22022898034E+03  0.00000000000E+00 0.  1.
<mgrwt>
<rscale>  0 0.15843620E+04</rscale>
<asrwt>0</asrwt>
<pdfrwt beam="1">  1        2 0.63248470E-01 0.15843620E+04</pdfrwt>
<pdfrwt beam="2">  1       -2 0.23484003E+00 0.15843620E+04</pdfrwt>
<totfact> 0.59010140E+00</totfact>
</mgrwt>
</event>
<event>
12    1  0.1980523E-007  0.2649593E+04  0.7818608E-02  0.8351548E-01
         -1   -1    0    0    0  501 -0.00000000000E+00  0.00000000000E+00  0.79504282076E+03  0.79504282076E+03  0.00000000000E+00 0.  1.
          1   -1    0    0  501    0  0.00000000000E+00 -0.00000000000E+00 -0.22075363143E+04  0.22075363143E+04  0.00000000000E+00 0. -1.
         23    2    1    2    0    0 -0.78541441635E+03 -0.63934146350E+03  0.38988215267E+02  0.10172991056E+04  0.88000437197E+02 0.  0.
        254    2    1    2    0    0  0.78541441635E+03  0.63934146350E+03 -0.14514817088E+04  0.19852800294E+04  0.89939108955E+03 0.  0.
        -24    2    4    4    0    0  0.43085220756E+03  0.24933759147E+01 -0.10744727590E+04  0.11607687524E+04  0.85161875976E+02 0.  0.
         24    2    4    4    0    0  0.35456220879E+03  0.63684808759E+03 -0.37700894976E+03  0.82451127697E+03  0.79957808192E+02 0.  0.
         11    1    3    3    0    0 -0.15321416037E+03 -0.11369180143E+03 -0.25997232713E+02  0.19255196898E+03  0.00000000000E+00 0.  1.
        -11    1    3    3    0    0 -0.63220025598E+03 -0.52564966208E+03  0.64985447979E+02  0.82474713661E+03  0.00000000000E+00 0. -1.
          4    1    6    6  502    0  0.85819470011E+02  0.23114050740E+03 -0.13208563709E+03  0.27970972654E+03  0.00000000000E+00 0. -1.
          3    1    5    5  503    0  0.32873537275E+03  0.11975890655E+02 -0.90195812299E+03  0.96007230086E+03  0.00000000000E+00 0. -1.
         -4    1    5    5    0  503  0.10211683481E+03 -0.94825147406E+01 -0.17251463601E+03  0.20069645158E+03  0.00000000000E+00 0.  1.
         -3    1    6    6    0  502  0.26874273878E+03  0.40570758019E+03 -0.24492331267E+03  0.54480155044E+03  0.00000000000E+00 0.  1.
<mgrwt>
<rscale>  0 0.26495931E+04</rscale>
<asrwt>0</asrwt>
<pdfrwt beam="1">  1        1 0.33962097E+00 0.26495931E+04</pdfrwt>
<pdfrwt beam="2">  1       -1 0.12231428E+00 0.26495931E+04</pdfrwt>
<totfact> 0.11148034E+00</totfact>
</mgrwt>
</event>
<event>
12    1  0.1980523E-007  0.3694105E+04  0.7818608E-02  0.8069269E-01
          2   -1    0    0  501    0  0.00000000000E+00  0.00000000000E+00  0.30039059082E+04  0.30039059082E+04  0.00000000000E+00 0. -1.
         -2   -1    0    0    0  501 -0.00000000000E+00 -0.00000000000E+00 -0.11357224655E+04  0.11357224655E+04  0.00000000000E+00 0.  1.
         23    2    1    2    0    0  0.30068979136E+03 -0.16830413476E+04  0.12167579447E+04  0.21004352744E+04  0.91027013584E+02 0.  0.
        254    2    1    2    0    0 -0.30068979136E+03  0.16830413476E+04  0.65142549793E+03  0.20391930994E+04  0.90050585155E+03 0.  0.
        -24    2    4    4    0    0 -0.39262344664E+03  0.67592079427E+03 -0.78271052826E+02  0.78952259383E+03  0.78724059027E+02 0.  0.
         24    2    4    4    0    0  0.91933655283E+02  0.10071205534E+04  0.72969655075E+03  0.12496705055E+04  0.80471797869E+02 0.  0.
         11    1    3    3    0    0  0.16494816898E+03 -0.10557415128E+04  0.71395872321E+03  0.12851206554E+04  0.00000000000E+00 0.  1.
        -11    1    3    3    0    0  0.13574162238E+03 -0.62729983478E+03  0.50279922154E+03  0.81531461899E+03  0.00000000000E+00 0. -1.
          2    1    6    6  502    0  0.33635132277E+02  0.70568109288E+03  0.53382276090E+03  0.88548510266E+03  0.00000000000E+00 0. -1.
          1    1    5    5  503    0 -0.62948110133E+02  0.17443816123E+03 -0.21968795353E+02  0.18674518637E+03  0.00000000000E+00 0. -1.
         -2    1    5    5    0  503 -0.32967533651E+03  0.50148263304E+03 -0.56302257474E+02  0.60277740746E+03  0.00000000000E+00 0.  1.
         -1    1    6    6    0  502  0.58298523007E+02  0.30143946047E+03  0.19587378985E+03  0.36418540287E+03  0.00000000000E+00 0.  1.
<mgrwt>
<rscale>  0 0.36941053E+04</rscale>
<asrwt>0</asrwt>
<pdfrwt beam="1">  1        2 0.46213937E+00 0.36941053E+04</pdfrwt>
<pdfrwt beam="2">  1       -2 0.17472653E+00 0.36941053E+04</pdfrwt>
<totfact> 0.27616255E-01</totfact>
</mgrwt>
</event>
<event>
12    1  0.1980523E-007  0.1230366E+04  0.7818608E-02  0.9086685E-01
          1   -1    0    0  501    0  0.00000000000E+00  0.00000000000E+00  0.71720032117E+03  0.71720032117E+03  0.00000000000E+00 0. -1.
         -1   -1    0    0    0  501 -0.00000000000E+00 -0.00000000000E+00 -0.52767678245E+03  0.52767678245E+03  0.00000000000E+00 0.  1.
         23    2    1    2    0    0 -0.13446169572E+03  0.19764180566E+03  0.18185999107E+03  0.31331439285E+03  0.89166257375E+02 0.  0.
        254    2    1    2    0    0  0.13446169572E+03 -0.19764180566E+03  0.76635476499E+01  0.93156271078E+03  0.90033778283E+03 0.  0.
        -24    2    4    4    0    0 -0.10845231665E+02  0.31797749996E+03  0.16528756405E+03  0.36716873390E+03  0.79155484924E+02 0.  0.
         24    2    4    4    0    0  0.14530692738E+03 -0.51561930562E+03 -0.15762401640E+03  0.56439397688E+03  0.81962547026E+02 0.  0.
         13    1    3    3    0    0 -0.31704055934E+02  0.12274808040E+03  0.75604495283E+02  0.14760852994E+03  0.00000000000E+00 0.  1.
        -13    1    3    3    0    0 -0.10275763979E+03  0.74893725267E+02  0.10625549579E+03  0.16570586291E+03  0.00000000000E+00 0. -1.
          4    1    6    6  502    0  0.32961469144E+01 -0.98690582865E+02 -0.51369759681E+02  0.11130834623E+03  0.00000000000E+00 0. -1.
          3    1    5    5  503    0  0.24545923570E+02  0.24160927614E+03  0.11106277158E+03  0.26704397374E+03  0.00000000000E+00 0. -1.
         -4    1    5    5    0  503 -0.35391155236E+02  0.76368223820E+02  0.54224792468E+02  0.10012476016E+03  0.00000000000E+00 0.  1.
         -3    1    6    6    0  502  0.14201078047E+03 -0.41692872276E+03 -0.10625425671E+03  0.45308563065E+03  0.00000000000E+00 0.  1.
<mgrwt>
<rscale>  0 0.12303657E+04</rscale>
<asrwt>0</asrwt>
<pdfrwt beam="1">  1        1 0.11033851E+00 0.12303657E+04</pdfrwt>
<pdfrwt beam="2">  1       -1 0.81181043E-01 0.12303657E+04</pdfrwt>
<totfact> 0.39211034E+01</totfact>
</mgrwt>
</event>
<event>
12    1  0.1980523E-007  0.1937661E+04  0.7818608E-02  0.8636334E-01
          1   -1    0    0  501    0  0.00000000000E+00  0.00000000000E+00  0.11634203915E+04  0.11634203915E+04  0.00000000000E+00 0. -1.
         -1   -1    0    0    0  501 -0.00000000000E+00 -0.00000000000E+00 -0.80678674516E+03  0.80678674516E+03  0.00000000000E+00 0.  1.
         23    2    1    2    0    0 -0.43162097883E+02 -0.74953225720E+03  0.17958154471E+03  0.77750291186E+03  0.92734435204E+02 0.  0.
        254    2    1    2    0    0  0.43162097883E+02  0.74953225720E+03  0.17705210161E+03  0.11927042248E+04  0.90968915013E+03 0.  0.
        -24    2    4    4    0    0 -0.33805622506E+03  0.10938372063E+03 -0.12488475256E+03  0.38509044453E+03  0.80322097845E+02 0.  0.
         24    2    4    4    0    0  0.38121832295E+03  0.64014853656E+03  0.30193685416E+03  0.80761378025E+03  0.77178983784E+02 0.  0.
         11    1    3    3    0    0 -0.21339181741E+02 -0.38792905839E+03  0.14049961544E+03  0.41313975476E+03  0.00000000000E+00 0. -1.
        -11    1    3    3    0    0 -0.21822916142E+02 -0.36160319881E+03  0.39081929264E+02  0.36436315710E+03  0.00000000000E+00 0.  1.
          4    1    6    6  502    0  0.25530351064E+03  0.36889441235E+03  0.15712684231E+03  0.47534389086E+03  0.00000000000E+00 0. -1.
          3    1    5    5  503    0 -0.13573033018E+03  0.79427752077E+02 -0.32137423123E+02  0.16051262971E+03  0.00000000000E+00 0. -1.
         -4    1    5    5    0  503 -0.20232589488E+03  0.29955968558E+02 -0.92747329436E+02  0.22457781482E+03  0.00000000000E+00 0.  1.
         -3    1    6    6    0  502  0.12591481231E+03  0.27125412422E+03  0.14481001186E+03  0.33226988939E+03  0.00000000000E+00 0.  1.
<mgrwt>
<rscale>  0 0.19376606E+04</rscale>
<asrwt>0</asrwt>
<pdfrwt beam="1">  1        1 0.17898775E+00 0.19376606E+04</pdfrwt>
<pdfrwt beam="2">  1       -1 0.12412104E+00 0.19376606E+04</pdfrwt>
<totfact> 0.60394808E+00</totfact>
</mgrwt>
</event>
<event>
12    1  0.1980523E-007  0.3076900E+04  0.7818608E-02  0.8222106E-01
         -2   -1    0    0    0  501 -0.00000000000E+00  0.00000000000E+00  0.76005981277E+03  0.76005981277E+03  0.00000000000E+00 0.  1.
          2   -1    0    0  501    0  0.00000000000E+00 -0.00000000000E+00 -0.31140028313E+04  0.31140028313E+04  0.00000000000E+00 0. -1.
         23    2    1    2    0    0  0.11999022539E+04  0.68539680327E+03 -0.13963619189E+04  0.19666428536E+04  0.91232166754E+02 0.  0.
        254    2    1    2    0    0 -0.11999022539E+04 -0.68539680327E+03 -0.95758109962E+03  0.19074197905E+04  0.90097419379E+03 0.  0.
        -24    2    4    4    0    0 -0.11606251172E+03 -0.11917610099E+03 -0.60449908923E+03  0.63191686761E+03  0.78907090999E+02 0.  0.
         24    2    4    4    0    0 -0.10838397422E+04 -0.56622070228E+03 -0.35308201039E+03  0.12755029228E+04  0.83224574257E+02 0.  0.
         13    1    3    3    0    0  0.97686655560E+03  0.54047227151E+03 -0.11724817177E+04  0.16189786663E+04  0.00000000000E+00 0.  1.
        -13    1    3    3    0    0  0.22303569828E+03  0.14492453176E+03 -0.22388020121E+03  0.34766418726E+03  0.00000000000E+00 0. -1.
          4    1    6    6  502    0 -0.47204681560E+03 -0.22398976639E+03 -0.18829321226E+03  0.55538630281E+03  0.00000000000E+00 0. -1.
          1    1    5    5  503    0 -0.77286650320E+02 -0.96793589830E+02 -0.53569304500E+03  0.54982657612E+03  0.00000000000E+00 0. -1.
         -2    1    5    5    0  503 -0.38775861398E+02 -0.22382511162E+02 -0.68806044232E+02  0.82090291484E+02  0.00000000000E+00 0.  1.
         -3    1    6    6    0  502 -0.61179292657E+03 -0.34223093588E+03 -0.16478879813E+03  0.72011662004E+03  0.00000000000E+00 0.  1.
<mgrwt>
<rscale>  0 0.30769000E+04</rscale>
<asrwt>0</asrwt>
<pdfrwt beam="1">  1        2 0.47907735E+00 0.30769000E+04</pdfrwt>
<pdfrwt beam="2">  1       -2 0.11693228E+00 0.30769000E+04</pdfrwt>
<totfact> 0.70928381E-01</totfact>
</mgrwt>
</event>
<event>
12    1  0.1980523E-007  0.1595284E+04  0.7818608E-02  0.8823450E-01
         -2   -1    0    0    0  501 -0.00000000000E+00  0.00000000000E+00  0.16190185935E+03  0.16190185935E+03  0.00000000000E+00 0.  1.
          2   -1    0    0  501    0  0.00000000000E+00 -0.00000000000E+00 -0.39297450959E+04  0.39297450959E+04  0.00000000000E+00 0. -1.
         23    2    1    2    0    0  0.44473922822E+03 -0.25164523314E+03 -0.84827093633E+03  0.99459847385E+03  0.92435049068E+02 0.  0.
        254    2    1    2    0    0 -0.44473922822E+03  0.25164523314E+03 -0.29195723002E+04  0.30970484814E+04  0.89815843560E+03 0.  0.
        -24    2    4    4    0    0 -0.31144259604E+03  0.56389961899E+03 -0.22522361222E+04  0.23440633007E+04  0.84178003601E+02 0.  0.
         24    2    4    4    0    0 -0.13329663218E+03 -0.31225438585E+03 -0.66733617795E+03  0.75298518070E+03  0.79864349484E+02 0.  0.
         13    1    3    3    0    0  0.25438055983E+03 -0.18959484524E+03 -0.55982983083E+03  0.64347891500E+03  0.00000000000E+00 0. -1.
        -13    1    3    3    0    0  0.19035866840E+03 -0.62050387901E+02 -0.28844110549E+03  0.35111955885E+03  0.00000000000E+00 0.  1.
          2    1    6    6  502    0 -0.45821382640E+01 -0.63517928348E+02 -0.17962927309E+03  0.19058383710E+03  0.00000000000E+00 0. -1.
          3    1    5    5  503    0 -0.10960239907E+03  0.27795525712E+03 -0.97678483516E+03  0.10214599478E+04  0.00000000000E+00 0. -1.
         -4    1    5    5    0  503 -0.20184019696E+03  0.28594436187E+03 -0.12754512871E+04  0.13226033528E+04  0.00000000000E+00 0.  1.
         -1    1    6    6    0  502 -0.12871449392E+03 -0.24873645751E+03 -0.48770690486E+03  0.56240134360E+03  0.00000000000E+00 0.  1.
<mgrwt>
<rscale>  0 0.15952843E+04</rscale>
<asrwt>0</asrwt>
<pdfrwt beam="1">  1        2 0.60457613E+00 0.15952843E+04</pdfrwt>
<pdfrwt beam="2">  1       -2 0.24907980E-01 0.15952843E+04</pdfrwt>
<totfact> 0.54995044E+00</totfact>
</mgrwt>
</event>
<event>
12    1  0.1980523E-007  0.2261245E+04  0.7818608E-02  0.8493360E-01
          1   -1    0    0  501    0  0.00000000000E+00  0.00000000000E+00  0.78641329775E+03  0.78641329775E+03  0.00000000000E+00 0. -1.
         -1   -1    0    0    0  501 -0.00000000000E+00 -0.00000000000E+00 -0.16254907972E+04  0.16254907972E+04  0.00000000000E+00 0.  1.
         23    2    1    2    0    0  0.41810565381E+02 -0.31202056407E+03 -0.13085152846E+04  0.13490989025E+04  0.93544870348E+02 0.  0.
        254    2    1    2    0    0 -0.41810565381E+02  0.31202056407E+03  0.46943778522E+03  0.10628051924E+04  0.90004338069E+03 0.  0.
        -24    2    4    4    0    0  0.28119806576E+03  0.43001382631E+03  0.61933912988E+02  0.52380790167E+03  0.80960887285E+02 0.  0.
         24    2    4    4    0    0 -0.32300863114E+03 -0.11799326224E+03  0.40750387223E+03  0.53899729077E+03  0.78750795871E+02 0.  0.
         11    1    3    3    0    0  0.48610240939E+02 -0.16873289344E+03 -0.55726411740E+03  0.58427479956E+03  0.00000000000E+00 0. -1.
        -11    1    3    3    0    0 -0.67996755583E+01 -0.14328767062E+03 -0.75125116725E+03  0.76482410293E+03  0.00000000000E+00 0.  1.
          2    1    6    6  502    0 -0.37431178588E+02 -0.17244295575E+01  0.84576428132E+02  0.92505345701E+02  0.00000000000E+00 0. -1.
          1    1    5    5  503    0  0.15107686981E+03  0.22908012890E+03 -0.76328174664E+01  0.27451809768E+03  0.00000000000E+00 0. -1.
         -2    1    5    5    0  503  0.13012119595E+03  0.20093369741E+03  0.69566730455E+02  0.24928980399E+03  0.00000000000E+00 0.  1.
         -1    1    6    6    0  502 -0.28557745255E+03 -0.11626883269E+03  0.32292744410E+03  0.44649194507E+03  0.00000000000E+00 0.  1.
<mgrwt>
<rscale>  0 0.22612453E+04</rscale>
<asrwt>0</asrwt>
<pdfrwt beam="1">  1        1 0.12098666E+00 0.22612453E+04</pdfrwt>
<pdfrwt beam="2">  1       -1 0.25007550E+00 0.22612453E+04</pdfrwt>
<totfact> 0.14351679E+00</totfact>
</mgrwt>
</event>
<event>
12    1  0.1980523E-007  0.4989512E+04  0.7818608E-02  0.7830127E-01
         -1   -1    0    0    0  501 -0.00000000000E+00  0.00000000000E+00  0.27631240142E+04  0.27631240142E+04  0.00000000000E+00 0.  1.
          1   -1    0    0  501    0  0.00000000000E+00 -0.00000000000E+00 -0.22524532598E+04  0.22524532598E+04  0.00000000000E+00 0. -1.
         23    2    1    2    0    0 -0.20793757910E+04 -0.11432353815E+04 -0.19119394795E+03  0.23822943580E+04  0.89333445850E+02 0.  0.
        254    2    1    2    0    0  0.20793757910E+04  0.11432353815E+04  0.70186470239E+03  0.26332829161E+04  0.90042991834E+03 0.  0.
        -24    2    4    4    0    0  0.33792947430E+03  0.60685105285E+03  0.70418467013E+02  0.70311745806E+03  0.83371874120E+02 0.  0.
         24    2    4    4    0    0  0.17414463167E+04  0.53638432860E+03  0.63144623537E+03  0.19301654580E+04  0.80442060151E+02 0.  0.
         11    1    3    3    0    0 -0.11475177250E+04 -0.67650491353E+03 -0.12652262835E+03  0.13380821360E+04  0.00000000000E+00 0. -1.
        -11    1    3    3    0    0 -0.93185806601E+03 -0.46673046792E+03 -0.64671319593E+02  0.10442122219E+04  0.00000000000E+00 0.  1.
          2    1    6    6  502    0  0.46178512638E+03  0.16434277349E+03  0.20039448279E+03  0.52953942146E+03  0.00000000000E+00 0. -1.
          3    1    5    5  503    0 -0.34179397551E+01  0.10106312418E+02 -0.44861962188E+01  0.11573496420E+02  0.00000000000E+00 0. -1.
         -4    1    5    5    0  503  0.34134741405E+03  0.59674474043E+03  0.74904663232E+02  0.69154396164E+03  0.00000000000E+00 0.  1.
         -1    1    6    6    0  502  0.12796611904E+04  0.37204155511E+03  0.43105175258E+03  0.14006260365E+04  0.00000000000E+00 0.  1.
<mgrwt>
<rscale>  0 0.49895121E+04</rscale>
<asrwt>0</asrwt>
<pdfrwt beam="1">  1        1 0.34653127E+00 0.49895121E+04</pdfrwt>
<pdfrwt beam="2">  1       -1 0.42509600E+00 0.49895121E+04</pdfrwt>
<totfact> 0.69770267E-03</totfact>
</mgrwt>
</event>
<event>
12    1  0.1980523E-007  0.2147968E+04  0.7818608E-02  0.8540403E-01
         -1   -1    0    0    0  501 -0.00000000000E+00  0.00000000000E+00  0.47542594798E+03  0.47542594798E+03  0.00000000000E+00 0.  1.
          1   -1    0    0  501    0  0.00000000000E+00 -0.00000000000E+00 -0.24261217872E+04  0.24261217872E+04  0.00000000000E+00 0. -1.
         23    2    1    2    0    0 -0.19003938062E+03  0.84958360882E+03 -0.60455438402E+03  0.10639149389E+04  0.92313158939E+02 0.  0.
        254    2    1    2    0    0  0.19003938062E+03 -0.84958360882E+03 -0.13461414552E+04  0.18376327963E+04  0.89827067311E+03 0.  0.
        -24    2    4    4    0    0  0.27432288982E+00 -0.55354473649E+03 -0.13664743598E+04  0.14765148673E+04  0.80200540925E+02 0.  0.
         24    2    4    4    0    0  0.18976505773E+03 -0.29603887233E+03  0.20332904611E+02  0.36111792904E+03  0.79642580271E+02 0.  0.
         11    1    3    3    0    0  0.71735217455E+00  0.14861250951E+03 -0.11464908882E+03  0.18769817832E+03  0.00000000000E+00 0. -1.
        -11    1    3    3    0    0 -0.19075673280E+03  0.70097109931E+03 -0.48990529520E+03  0.87621676054E+03  0.00000000000E+00 0.  1.
          2    1    6    6  502    0  0.53570823077E+02 -0.15694449535E+03  0.66619673312E+01  0.16596924267E+03  0.00000000000E+00 0. -1.
          1    1    5    5  503    0  0.12445717468E+02 -0.32115810233E+03 -0.88992447968E+03  0.94618338715E+03  0.00000000000E+00 0. -1.
         -2    1    5    5    0  503 -0.12171394579E+02 -0.23238663416E+03 -0.47654988014E+03  0.53033148016E+03  0.00000000000E+00 0.  1.
         -1    1    6    6    0  502  0.13619423466E+03 -0.13909437699E+03  0.13670937279E+02  0.19514868636E+03  0.00000000000E+00 0.  1.
<mgrwt>
<rscale>  0 0.21479676E+04</rscale>
<asrwt>0</asrwt>
<pdfrwt beam="1">  1        1 0.37324952E+00 0.21479676E+04</pdfrwt>
<pdfrwt beam="2">  1       -1 0.73142451E-01 0.21479676E+04</pdfrwt>
<totfact> 0.26299906E+00</totfact>
</mgrwt>
</event>
<event>
12    1  0.1980523E-007  0.1211910E+04  0.7818608E-02  0.9102495E-01
          2   -1    0    0  501    0  0.00000000000E+00  0.00000000000E+00  0.29589489643E+03  0.29589489643E+03  0.00000000000E+00 0. -1.
         -2   -1    0    0    0  501 -0.00000000000E+00 -0.00000000000E+00 -0.12409187133E+04  0.12409187133E+04  0.00000000000E+00 0.  1.
         23    2    1    2    0    0 -0.14971099609E+03 -0.16518574618E+03 -0.37983124790E+03  0.45052243466E+03  0.94862922977E+02 0.  0.
        254    2    1    2    0    0  0.14971099609E+03  0.16518574618E+03 -0.56519256901E+03  0.10862911751E+04  0.90049217875E+03 0.  0.
        -24    2    4    4    0    0 -0.31766305277E+03  0.20802046021E+03 -0.60877582692E+02  0.39268871562E+03  0.79473393946E+02 0.  0.
         24    2    4    4    0    0  0.46737404886E+03 -0.42834714031E+02 -0.50431498632E+03  0.69360245950E+03  0.80482619989E+02 0.  0.
         11    1    3    3    0    0 -0.10778891051E+03 -0.49539054252E+02 -0.17013420138E+03  0.20740832579E+03  0.00000000000E+00 0. -1.
        -11    1    3    3    0    0 -0.41922085577E+02 -0.11564669192E+03 -0.20969704652E+03  0.24311410887E+03  0.00000000000E+00 0.  1.
          2    1    6    6  502    0  0.33323400233E+03 -0.10538517508E+02 -0.30976323379E+03  0.45509254187E+03  0.00000000000E+00 0. -1.
          1    1    5    5  503    0 -0.11537800337E+03  0.50706768636E+02 -0.51839489402E+02  0.13627396196E+03  0.00000000000E+00 0. -1.
         -2    1    5    5    0  503 -0.20228504940E+03  0.15731369157E+03 -0.90380932901E+01  0.25641475366E+03  0.00000000000E+00 0.  1.
         -1    1    6    6    0  502  0.13414004653E+03 -0.32296196523E+02 -0.19455175253E+03  0.23850991762E+03  0.00000000000E+00 0.  1.
<mgrwt>
<rscale>  0 0.12119101E+04</rscale>
<asrwt>0</asrwt>
<pdfrwt beam="1">  1        2 0.45522292E-01 0.12119101E+04</pdfrwt>
<pdfrwt beam="2">  1       -2 0.19091057E+00 0.12119101E+04</pdfrwt>
<totfact> 0.16786077E+01</totfact>
</mgrwt>
</event>
<event>
12    1  0.1980523E-007  0.1448539E+04  0.7818608E-02  0.8919414E-01
          1   -1    0    0  501    0  0.00000000000E+00  0.00000000000E+00  0.25625096042E+04  0.25625096042E+04  0.00000000000E+00 0. -1.
         -1   -1    0    0    0  501 -0.00000000000E+00 -0.00000000000E+00 -0.20470804899E+03  0.20470804899E+03  0.00000000000E+00 0.  1.
         23    2    1    2    0    0  0.24263267894E+03 -0.34994699363E+03  0.52152877962E+03  0.67775294144E+03  0.77609705739E+02 0.  0.
        254    2    1    2    0    0 -0.24263267894E+03  0.34994699363E+03  0.18362727756E+04  0.20894647117E+04  0.90146079226E+03 0.  0.
        -24    2    4    4    0    0 -0.36472087668E+03 -0.19981850154E+03  0.88380587774E+03  0.98000170902E+03  0.79635222808E+02 0.  0.
         24    2    4    4    0    0  0.12208819774E+03  0.54976549517E+03  0.95246689782E+03  0.11094630027E+04  0.81039096657E+02 0.  0.
         11    1    3    3    0    0  0.21245112537E+03 -0.26314908626E+03  0.43954997741E+03  0.55460535961E+03  0.00000000000E+00 0. -1.
        -11    1    3    3    0    0  0.30181553574E+02 -0.86797907364E+02  0.81978802213E+02  0.12314758183E+03  0.00000000000E+00 0.  1.
          2    1    6    6  502    0  0.76726128134E+01  0.18869608758E+03  0.28173082819E+03  0.33917155247E+03  0.00000000000E+00 0. -1.
          1    1    5    5  503    0  0.42577518890E+01 -0.20988283641E+01  0.11863125419E+02  0.12777608397E+02  0.00000000000E+00 0. -1.
         -2    1    5    5    0  503 -0.36897862857E+03 -0.19771967318E+03  0.87194275232E+03  0.96722410063E+03  0.00000000000E+00 0.  1.
         -1    1    6    6    0  502  0.11441558493E+03  0.36106940759E+03  0.67073606963E+03  0.77029145021E+03  0.00000000000E+00 0.  1.
<mgrwt>
<rscale>  0 0.14485390E+04</rscale>
<asrwt>0</asrwt>
<pdfrwt beam="1">  1        1 0.39423222E+00 0.14485390E+04</pdfrwt>
<pdfrwt beam="2">  1       -1 0.31493548E-01 0.14485390E+04</pdfrwt>
<totfact> 0.11188755E+01</totfact>
</mgrwt>
</event>
<event>
12    1  0.1980523E-007  0.1908653E+04  0.7818608E-02  0.8650561E-01
         -1   -1    0    0    0  501 -0.00000000000E+00  0.00000000000E+00  0.62441602986E+03  0.62441602986E+03  0.00000000000E+00 0.  1.
          1   -1    0    0  501    0  0.00000000000E+00 -0.00000000000E+00 -0.14585459606E+04  0.14585459606E+04  0.00000000000E+00 0. -1.
         23    2    1    2    0    0  0.17630606700E+03 -0.44383931541E+03  0.28976856069E+03  0.56639561325E+03  0.93600239230E+02 0.  0.
        254    2    1    2    0    0 -0.17630606700E+03  0.44383931541E+03 -0.11238984914E+04  0.15165663772E+04  0.89930450362E+03 0.  0.
        -24    2    4    4    0    0 -0.44039795407E+03  0.16369966768E+02 -0.78956679728E+03  0.90786590639E+03  0.81156902612E+02 0.  0.
         24    2    4    4    0    0  0.26409188707E+03  0.42746934864E+03 -0.33433169410E+03  0.60870047077E+03  0.79145515321E+02 0.  0.
         11    1    3    3    0    0  0.47857521329E+02 -0.19057113686E+03  0.74866058265E+02  0.21026798908E+03  0.00000000000E+00 0. -1.
        -11    1    3    3    0    0  0.12844854567E+03 -0.25326817855E+03  0.21490250242E+03  0.35612762417E+03  0.00000000000E+00 0.  1.
          4    1    6    6  502    0  0.21517800758E+03  0.38244048282E+03 -0.26492636742E+03  0.51258977555E+03  0.00000000000E+00 0. -1.
          1    1    5    5  503    0 -0.33216056559E+03  0.21391672482E+02 -0.65823712435E+03  0.73760718330E+03  0.00000000000E+00 0. -1.
         -2    1    5    5    0  503 -0.10823738848E+03 -0.50217057142E+01 -0.13132967294E+03  0.17025872309E+03  0.00000000000E+00 0.  1.
         -3    1    6    6    0  502  0.48913879494E+02  0.45028865816E+02 -0.69405326684E+02  0.96110695222E+02  0.00000000000E+00 0.  1.
<mgrwt>
<rscale>  0 0.19086534E+04</rscale>
<asrwt>0</asrwt>
<pdfrwt beam="1">  1        1 0.22439168E+00 0.19086534E+04</pdfrwt>
<pdfrwt beam="2">  1       -1 0.96064006E-01 0.19086534E+04</pdfrwt>
<totfact> 0.68247437E+00</totfact>
</mgrwt>
</event>
<event>
12    1  0.1980523E-007  0.1517996E+04  0.7818608E-02  0.8872573E-01
          1   -1    0    0  501    0  0.00000000000E+00  0.00000000000E+00  0.20459387851E+04  0.20459387851E+04  0.00000000000E+00 0. -1.
         -1   -1    0    0    0  501 -0.00000000000E+00 -0.00000000000E+00 -0.28157134105E+03  0.28157134105E+03  0.00000000000E+00 0.  1.
         23    2    1    2    0    0  0.28609978998E+03  0.39533338630E+02  0.11763191576E+04  0.12147284514E+04  0.91774045334E+02 0.  0.
        254    2    1    2    0    0 -0.28609978998E+03 -0.39533338630E+02  0.58804828653E+03  0.11127816748E+04  0.89948112480E+03 0.  0.
        -24    2    4    4    0    0 -0.39610003642E+03  0.91716517968E+02  0.75490184246E+03  0.86109262168E+03  0.79350821302E+02 0.  0.
         24    2    4    4    0    0  0.11000024645E+03 -0.13124985660E+03 -0.16685355593E+03  0.25168905315E+03  0.78617372586E+02 0.  0.
         11    1    3    3    0    0  0.88316316063E+02 -0.21329859610E+02  0.47082149377E+03  0.47950767834E+03  0.00000000000E+00 0. -1.
        -11    1    3    3    0    0  0.19778347391E+03  0.60863198240E+02  0.70549766380E+03  0.73522077302E+03  0.00000000000E+00 0.  1.
          2    1    6    6  502    0 -0.63119279547E+01 -0.23848490709E+02 -0.47149030364E+02  0.53212987210E+02  0.00000000000E+00 0. -1.
          1    1    5    5  503    0 -0.41288284371E+01  0.13300502030E+02  0.34747263745E+02  0.37434247906E+02  0.00000000000E+00 0. -1.
         -2    1    5    5    0  503 -0.39197120799E+03  0.78416015938E+02  0.72015457872E+03  0.82365837378E+03  0.00000000000E+00 0.  1.
         -1    1    6    6    0  502  0.11631217440E+03 -0.10740136589E+03 -0.11970452557E+03  0.19847606594E+03  0.00000000000E+00 0.  1.
<mgrwt>
<rscale>  0 0.15179957E+04</rscale>
<asrwt>0</asrwt>
<pdfrwt beam="1">  1        1 0.31475980E+00 0.15179957E+04</pdfrwt>
<pdfrwt beam="2">  1       -1 0.43318669E-01 0.15179957E+04</pdfrwt>
<totfact> 0.14095234E+01</totfact>
</mgrwt>
</event>
<event>
12    1  0.1980523E-007  0.1954084E+04  0.7818608E-02  0.8628394E-01
         -1   -1    0    0    0  501 -0.00000000000E+00  0.00000000000E+00  0.40194261464E+03  0.40194261464E+03  0.00000000000E+00 0.  1.
          1   -1    0    0  501    0  0.00000000000E+00 -0.00000000000E+00 -0.23749938725E+04  0.23749938725E+04  0.00000000000E+00 0. -1.
         23    2    1    2    0    0  0.60062700941E+02  0.19234652669E+03  0.27299102609E+03  0.34850818285E+03  0.79555884835E+02 0.  0.
        254    2    1    2    0    0 -0.60062700941E+02 -0.19234652669E+03 -0.22460422839E+04  0.24284283042E+04  0.90108455397E+03 0.  0.
        -24    2    4    4    0    0  0.40144963393E+03 -0.16306098975E+03 -0.88334827679E+03  0.98725308198E+03  0.81325117899E+02 0.  0.
         24    2    4    4    0    0 -0.46151233487E+03 -0.29285536949E+02 -0.13626940071E+04  0.14411752223E+04  0.78738722027E+02 0.  0.
         11    1    3    3    0    0  0.32800687109E+02  0.32140582875E+02  0.25773893826E+02  0.52661140752E+02  0.00000000000E+00 0. -1.
        -11    1    3    3    0    0  0.27262013833E+02  0.16020594382E+03  0.24721713226E+03  0.29584704210E+03  0.00000000000E+00 0.  1.
          2    1    6    6  502    0 -0.55055700444E+02 -0.12855428947E+02 -0.25383220530E+03  0.26005226523E+03  0.00000000000E+00 0. -1.
          3    1    5    5  503    0  0.18175328428E+03 -0.55439807787E+02 -0.30582000171E+03  0.36004680540E+03  0.00000000000E+00 0. -1.
         -4    1    5    5    0  503  0.21969634965E+03 -0.10762118196E+03 -0.57752827508E+03  0.62720627658E+03  0.00000000000E+00 0.  1.
         -1    1    6    6    0  502 -0.40645663443E+03 -0.16430108002E+02 -0.11088618018E+04  0.11811229570E+04  0.00000000000E+00 0.  1.
<mgrwt>
<rscale>  0 0.19540842E+04</rscale>
<asrwt>0</asrwt>
<pdfrwt beam="1">  1        1 0.36538367E+00 0.19540842E+04</pdfrwt>
<pdfrwt beam="2">  1       -1 0.61837325E-01 0.19540842E+04</pdfrwt>
<totfact> 0.40848566E+00</totfact>
</mgrwt>
</event>
<event>
12    1  0.1980523E-007  0.3237018E+04  0.7818608E-02  0.8179109E-01
          2   -1    0    0  501    0  0.00000000000E+00  0.00000000000E+00  0.16845359421E+04  0.16845359421E+04  0.00000000000E+00 0.  1.
         -2   -1    0    0    0  501 -0.00000000000E+00 -0.00000000000E+00 -0.15550705119E+04  0.15550705119E+04  0.00000000000E+00 0. -1.
         23    2    1    2    0    0  0.56349901636E+03  0.69477952880E+03  0.12629272305E+04  0.15509657931E+04  0.10129149384E+03 0.  0.
        254    2    1    2    0    0 -0.56349901636E+03 -0.69477952880E+03 -0.11334618003E+04  0.16886406610E+04  0.87551236089E+03 0.  0.
        -24    2    4    4    0    0 -0.23036529104E+03 -0.56979758121E+03 -0.14598228873E+03  0.63594608963E+03  0.73342684888E+02 0.  0.
         24    2    4    4    0    0 -0.33313372532E+03 -0.12498194760E+03 -0.98747951156E+03  0.10526945713E+04  0.80321283615E+02 0.  0.
         11    1    3    3    0    0  0.33851888797E+03  0.33724864692E+03  0.66576140931E+03  0.81949371047E+03  0.00000000000E+00 0. -1.
        -11    1    3    3    0    0  0.22498012839E+03  0.35753088188E+03  0.59716582116E+03  0.73147208261E+03  0.00000000000E+00 0.  1.
          2    1    6    6  502    0 -0.20161616792E+03 -0.72072969696E+02 -0.70247625769E+03  0.73438170235E+03  0.00000000000E+00 0. -1.
          1    1    5    5  503    0 -0.19345769184E+03 -0.47106936769E+03 -0.14868983937E+03  0.53051003387E+03  0.00000000000E+00 0. -1.
         -2    1    5    5    0  503 -0.36907599195E+02 -0.98728213521E+02  0.27075506395E+01  0.10543605576E+03  0.00000000000E+00 0.  1.
         -1    1    6    6    0  502 -0.13151755740E+03 -0.52908977901E+02 -0.28500325387E+03  0.31831286899E+03  0.00000000000E+00 0.  1.
<mgrwt>
<rscale>  0 0.32370185E+04</rscale>
<asrwt>0</asrwt>
<pdfrwt beam="1">  1        2 0.25915938E+00 0.32370185E+04</pdfrwt>
<pdfrwt beam="2">  1       -2 0.23924162E+00 0.32370185E+04</pdfrwt>
<totfact> 0.62887392E-01</totfact>
</mgrwt>
</event>
<event>
12    1  0.1980523E-007  0.1898055E+04  0.7818608E-02  0.8655825E-01
         -1   -1    0    0    0  501 -0.00000000000E+00  0.00000000000E+00  0.39413980322E+03  0.39413980322E+03  0.00000000000E+00 0.  1.
          1   -1    0    0  501    0  0.00000000000E+00 -0.00000000000E+00 -0.22851114662E+04  0.22851114662E+04  0.00000000000E+00 0. -1.
         23    2    1    2    0    0 -0.68140496782E+03 -0.72993216183E+02 -0.11071669595E+04  0.13053475461E+04  0.92047815526E+02 0.  0.
        254    2    1    2    0    0  0.68140496782E+03  0.72993216183E+02 -0.78380470352E+03  0.13739037233E+04  0.89644904360E+03 0.  0.
        -24    2    4    4    0    0  0.30594688070E+03  0.43765182644E+03 -0.17619294731E+03  0.56790327656E+03  0.79545973150E+02 0.  0.
         24    2    4    4    0    0  0.37545808712E+03 -0.36465861026E+03 -0.60761175620E+03  0.80600044671E+03  0.80622556366E+02 0.  0.
         11    1    3    3    0    0 -0.60688856414E+03 -0.45952011699E+02 -0.10177627046E+04  0.11858609697E+04  0.00000000000E+00 0. -1.
        -11    1    3    3    0    0 -0.74516403678E+02 -0.27041204484E+02 -0.89404254880E+02  0.11948657643E+03  0.00000000000E+00 0.  1.
          2    1    6    6  502    0  0.30006262732E+03 -0.30541155208E+03 -0.44719849170E+03  0.61911249982E+03  0.00000000000E+00 0. -1.
          3    1    5    5  503    0  0.30672167332E+03  0.42343945710E+03 -0.18033039019E+03  0.55308065265E+03  0.00000000000E+00 0. -1.
         -4    1    5    5    0  503 -0.77479261990E+00  0.14212369345E+02  0.41374428730E+01  0.14822623908E+02  0.00000000000E+00 0.  1.
         -1    1    6    6    0  502  0.75395459796E+02 -0.59247058176E+02 -0.16041326451E+03  0.18688794688E+03  0.00000000000E+00 0.  1.
<mgrwt>
<rscale>  0 0.18980552E+04</rscale>
<asrwt>0</asrwt>
<pdfrwt beam="1">  1        1 0.35155561E+00 0.18980552E+04</pdfrwt>
<pdfrwt beam="2">  1       -1 0.60636893E-01 0.18980552E+04</pdfrwt>
<totfact> 0.49193923E+00</totfact>
</mgrwt>
</event>
<event>
12    1  0.1980523E-007  0.1428476E+04  0.7818608E-02  0.8933460E-01
          2   -1    0    0  501    0  0.00000000000E+00  0.00000000000E+00  0.13669707611E+04  0.13669707611E+04  0.00000000000E+00 0. -1.
         -2   -1    0    0    0  501 -0.00000000000E+00 -0.00000000000E+00 -0.37318737506E+03  0.37318737506E+03  0.00000000000E+00 0.  1.
         23    2    1    2    0    0  0.36498590812E+03 -0.16362144172E+03  0.47161267791E+03  0.62508000784E+03  0.91212986542E+02 0.  0.
        254    2    1    2    0    0 -0.36498590812E+03  0.16362144172E+03  0.52217070809E+03  0.11150781283E+04  0.90041673378E+03 0.  0.
        -24    2    4    4    0    0 -0.64851270292E+03  0.14033794221E+03  0.25010371822E+03  0.71344340593E+03  0.78652143794E+02 0.  0.
         24    2    4    4    0    0  0.28352679480E+03  0.23283499513E+02  0.27206698986E+03  0.40163472235E+03  0.79752357377E+02 0.  0.
         13    1    3    3    0    0  0.15458782115E+03 -0.89385186870E+02  0.14756148295E+03  0.23164951399E+03  0.00000000000E+00 0.  1.
        -13    1    3    3    0    0  0.21039808696E+03 -0.74236254851E+02  0.32405119497E+03  0.39343049385E+03  0.00000000000E+00 0. -1.
          4    1    6    6  502    0  0.25480759852E+02  0.12050688487E+02  0.24988944190E+01  0.28297220517E+02  0.00000000000E+00 0. -1.
          3    1    5    5  503    0 -0.25786930384E+02 -0.65719461197E+01  0.37394499343E+00  0.26613832668E+02  0.00000000000E+00 0. -1.
         -4    1    5    5    0  503 -0.62272577253E+03  0.14690988833E+03  0.24972977323E+03  0.68682957326E+03  0.00000000000E+00 0.  1.
         -3    1    6    6    0  502  0.25804603495E+03  0.11232811026E+02  0.26956809544E+03  0.37333750184E+03  0.00000000000E+00 0.  1.
<mgrwt>
<rscale>  0 0.14284764E+04</rscale>
<asrwt>0</asrwt>
<pdfrwt beam="1">  1        2 0.21030319E+00 0.14284764E+04</pdfrwt>
<pdfrwt beam="2">  1       -2 0.57413443E-01 0.14284764E+04</pdfrwt>
<totfact> 0.41725003E+01</totfact>
</mgrwt>
</event>
<event>
12    1  0.1980523E-007  0.1019623E+04  0.7818608E-02  0.9287280E-01
          2   -1    0    0  501    0  0.00000000000E+00  0.00000000000E+00  0.12262730743E+03  0.12262730743E+03  0.00000000000E+00 0. -1.
         -2   -1    0    0    0  501 -0.00000000000E+00 -0.00000000000E+00 -0.21194947941E+04  0.21194947941E+04  0.00000000000E+00 0.  1.
         23    2    1    2    0    0 -0.66309312716E+02 -0.10727535358E+02 -0.29818515159E+03  0.31886018513E+03  0.90804339436E+02 0.  0.
        254    2    1    2    0    0  0.66309312716E+02  0.10727535358E+02 -0.16986823350E+04  0.19232619164E+04  0.89939019263E+03 0.  0.
        -24    2    4    4    0    0 -0.21814044874E+03 -0.39816610314E+02 -0.15843482199E+04  0.16017256761E+04  0.78709858056E+02 0.  0.
         24    2    4    4    0    0  0.28444976145E+03  0.50544145671E+02 -0.11433411517E+03  0.32153624030E+03  0.82745915178E+02 0.  0.
         11    1    3    3    0    0 -0.53273764253E+02 -0.33653214029E+02 -0.95175406289E+02  0.11414460449E+03  0.00000000000E+00 0. -1.
        -11    1    3    3    0    0 -0.13035548463E+02  0.22925678672E+02 -0.20300974531E+03  0.20471558064E+03  0.00000000000E+00 0.  1.
          4    1    6    6  502    0  0.99024226847E+02 -0.17588491202E+02 -0.19671455754E+02  0.10247984532E+03  0.00000000000E+00 0. -1.
          1    1    5    5  503    0 -0.23219295191E+02 -0.94633979441E+01 -0.42297058079E+03  0.42371311495E+03  0.00000000000E+00 0. -1.
         -2    1    5    5    0  503 -0.19492115355E+03 -0.30353212370E+02 -0.11613776391E+04  0.11780125611E+04  0.00000000000E+00 0.  1.
         -3    1    6    6    0  502  0.18542553461E+03  0.68132636874E+02 -0.94662659418E+02  0.21905639497E+03  0.00000000000E+00 0.  1.
<mgrwt>
<rscale>  0 0.10196233E+04</rscale>
<asrwt>0</asrwt>
<pdfrwt beam="1">  1        2 0.18865741E-01 0.10196233E+04</pdfrwt>
<pdfrwt beam="2">  1       -2 0.32607610E+00 0.10196233E+04</pdfrwt>
<totfact> 0.68030178E+00</totfact>
</mgrwt>
</event>
<event>
12    1  0.1980523E-007  0.1815637E+04  0.7818608E-02  0.8698028E-01
          1   -1    0    0  501    0  0.00000000000E+00  0.00000000000E+00  0.15845766721E+04  0.15845766721E+04  0.00000000000E+00 0. -1.
         -1   -1    0    0    0  501 -0.00000000000E+00 -0.00000000000E+00 -0.52009757095E+03  0.52009757095E+03  0.00000000000E+00 0.  1.
         23    2    1    2    0    0  0.36980669702E+03  0.57392568786E+03  0.42663344146E+03  0.81005408273E+03  0.89575862973E+02 0.  0.
        254    2    1    2    0    0 -0.36980669702E+03 -0.57392568786E+03  0.63784565966E+03  0.12946201603E+04  0.89612866573E+03 0.  0.
        -24    2    4    4    0    0 -0.39814163778E+03  0.42349307376E+02  0.52039218892E+03  0.66129785369E+03  0.78718444119E+02 0.  0.
         24    2    4    4    0    0  0.28334940766E+02 -0.61627499524E+03  0.11745347074E+03  0.63332230660E+03  0.81878493004E+02 0.  0.
         13    1    3    3    0    0  0.56827555523E+02  0.15615578968E+03  0.11530792294E+03  0.20226200536E+03  0.00000000000E+00 0.  1.
        -13    1    3    3    0    0  0.31297914149E+03  0.41776989818E+03  0.31132551852E+03  0.60779207738E+03  0.00000000000E+00 0. -1.
          4    1    6    6  502    0  0.23069709396E+01  0.17263972988E+01  0.32061499292E+01  0.43106797512E+01  0.00000000000E+00 0. -1.
          3    1    5    5  503    0 -0.18859013130E+02  0.19828624522E+02  0.25776055989E+02  0.37593108265E+02  0.00000000000E+00 0. -1.
         -4    1    5    5    0  503 -0.37928262465E+03  0.22520682854E+02  0.49461613293E+03  0.62370474543E+03  0.00000000000E+00 0.  1.
         -3    1    6    6    0  502  0.26027969826E+02 -0.61800139254E+03  0.11424732081E+03  0.62901162684E+03  0.00000000000E+00 0.  1.
<mgrwt>
<rscale>  0 0.18156371E+04</rscale>
<asrwt>0</asrwt>
<pdfrwt beam="1">  1        1 0.24378102E+00 0.18156371E+04</pdfrwt>
<pdfrwt beam="2">  1       -1 0.80015011E-01 0.18156371E+04</pdfrwt>
<totfact> 0.84014995E+00</totfact>
</mgrwt>
</event>
<event>
12    1  0.1980523E-007  0.1336504E+04  0.7818608E-02  0.9001107E-01
         -1   -1    0    0    0  501 -0.00000000000E+00  0.00000000000E+00  0.67991576030E+03  0.67991576030E+03  0.00000000000E+00 0.  1.
          1   -1    0    0  501    0  0.00000000000E+00 -0.00000000000E+00 -0.65678871663E+03  0.65678871663E+03  0.00000000000E+00 0. -1.
         23    2    1    2    0    0  0.12371757226E+03 -0.22648269868E+03 -0.24215544479E+03  0.36574492912E+03  0.92356067735E+02 0.  0.
        254    2    1    2    0    0 -0.12371757226E+03  0.22648269868E+03  0.26528248846E+03  0.97095954781E+03  0.89765650129E+03 0.  0.
        -24    2    4    4    0    0  0.10117836057E+03 -0.18969962484E+03 -0.19845774539E+03  0.30360987848E+03  0.81058455996E+02 0.  0.
         24    2    4    4    0    0 -0.22489593284E+03  0.41618232352E+03  0.46374023386E+03  0.66734966933E+03  0.80713503485E+02 0.  0.
         13    1    3    3    0    0  0.11608283708E+03 -0.16223681871E+03 -0.22089865734E+03  0.29764446446E+03  0.00000000000E+00 0. -1.
        -13    1    3    3    0    0  0.76347351782E+01 -0.64245879963E+02 -0.21256787454E+02  0.68100464656E+02  0.00000000000E+00 0.  1.
          2    1    6    6  502    0 -0.18270271049E+03  0.30055091875E+03  0.38374998522E+03  0.52055276998E+03  0.00000000000E+00 0. -1.
          1    1    5    5  503    0  0.68853934039E+02 -0.12159616799E+03 -0.17644520560E+03  0.22507643786E+03  0.00000000000E+00 0. -1.
         -2    1    5    5    0  503  0.32324426536E+02 -0.68103456856E+02 -0.22012539792E+02  0.78533440614E+02  0.00000000000E+00 0.  1.
         -1    1    6    6    0  502 -0.42193222346E+02  0.11563140477E+03  0.79990248633E+02  0.14679689935E+03  0.00000000000E+00 0.  1.
<mgrwt>
<rscale>  0 0.13365044E+04</rscale>
<asrwt>0</asrwt>
<pdfrwt beam="1">  1        1 0.10104442E+00 0.13365044E+04</pdfrwt>
<pdfrwt beam="2">  1       -1 0.10460242E+00 0.13365044E+04</pdfrwt>
<totfact> 0.25251206E+01</totfact>
</mgrwt>
</event>
<event>
12    1  0.1980523E-007  0.1737757E+04  0.7818608E-02  0.8740119E-01
         -2   -1    0    0    0  501 -0.00000000000E+00  0.00000000000E+00  0.11748868535E+04  0.11748868535E+04  0.00000000000E+00 0.  1.
          2   -1    0    0  501    0  0.00000000000E+00 -0.00000000000E+00 -0.64257211673E+03  0.64257211673E+03  0.00000000000E+00 0. -1.
         23    2    1    2    0    0  0.56825920315E+03 -0.85475302057E+01 -0.93669644414E+02  0.58334812209E+03  0.92355005382E+02 0.  0.
        254    2    1    2    0    0 -0.56825920315E+03  0.85475302057E+01  0.62598438116E+03  0.12341108481E+04  0.89898918667E+03 0.  0.
        -24    2    4    4    0    0 -0.11626881414E+03 -0.21773789156E+03 -0.15368913861E+03  0.30149848739E+03  0.79704203213E+02 0.  0.
         24    2    4    4    0    0 -0.45199038901E+03  0.22628542177E+03  0.77967351976E+03  0.93261236072E+03  0.79841180484E+02 0.  0.
         11    1    3    3    0    0  0.32436337260E+03 -0.14341236805E+02 -0.79995999401E+01  0.32477878957E+03  0.00000000000E+00 0.  1.
        -11    1    3    3    0    0  0.24389583055E+03  0.57937065994E+01 -0.85670044474E+02  0.25856933252E+03  0.00000000000E+00 0. -1.
          4    1    6    6  502    0 -0.66445697089E+02  0.42888534053E+02  0.17875060608E+03  0.19546415576E+03  0.00000000000E+00 0. -1.
          3    1    5    5  503    0 -0.43841817955E+02 -0.64683150374E+02 -0.93359384080E+02  0.12174559351E+03  0.00000000000E+00 0. -1.
         -2    1    5    5    0  503 -0.72426996190E+02 -0.15305474119E+03 -0.60329754527E+02  0.17975289388E+03  0.00000000000E+00 0.  1.
         -3    1    6    6    0  502 -0.38554469192E+03  0.18339688771E+03  0.60092291369E+03  0.73714820496E+03  0.00000000000E+00 0.  1.
<mgrwt>
<rscale>  0 0.17377566E+04</rscale>
<asrwt>0</asrwt>
<pdfrwt beam="1">  1        2 0.98857249E-01 0.17377566E+04</pdfrwt>
<pdfrwt beam="2">  1       -2 0.18075182E+00 0.17377566E+04</pdfrwt>
<totfact> 0.77460426E+00</totfact>
</mgrwt>
</event>
<event>
12    1  0.1980523E-007  0.2137492E+04  0.7818608E-02  0.8544905E-01
         -1   -1    0    0    0  501 -0.00000000000E+00  0.00000000000E+00  0.49742641336E+03  0.49742641336E+03  0.00000000000E+00 0.  1.
          1   -1    0    0  501    0  0.00000000000E+00 -0.00000000000E+00 -0.22962548844E+04  0.22962548844E+04  0.00000000000E+00 0. -1.
         23    2    1    2    0    0  0.75916506704E+03 -0.43970068946E+03 -0.61621190526E+03  0.10759368098E+04  0.90854890709E+02 0.  0.
        254    2    1    2    0    0 -0.75916506704E+03  0.43970068946E+03 -0.11826165658E+04  0.17177444880E+04  0.88453145163E+03 0.  0.
        -24    2    4    4    0    0  0.31298678761E+01 -0.22017316781E+03 -0.23721493998E+03  0.33332249081E+03  0.79667654870E+02 0.  0.
         24    2    4    4    0    0 -0.76229493492E+03  0.65987385727E+03 -0.94540162580E+03  0.13844219972E+04  0.79454117760E+02 0.  0.
         11    1    3    3    0    0  0.71972349678E+03 -0.40887128619E+03 -0.55379680910E+03  0.99592597428E+03  0.00000000000E+00 0.  1.
        -11    1    3    3    0    0  0.39441570263E+02 -0.30829403268E+02 -0.62415096160E+02  0.80010835512E+02  0.00000000000E+00 0. -1.
          4    1    6    6  502    0 -0.62604216289E+03  0.56468660538E+03 -0.75563930475E+03  0.11321618749E+04  0.00000000000E+00 0. -1.
          3    1    5    5  503    0  0.52729277127E+01 -0.19914091257E+03 -0.24010347899E+03  0.31198491542E+03  0.00000000000E+00 0. -1.
         -4    1    5    5    0  503 -0.21430598366E+01 -0.21032255231E+02  0.28885390115E+01  0.21337575382E+02  0.00000000000E+00 0.  1.
         -3    1    6    6    0  502 -0.13625277203E+03  0.95187251884E+02 -0.18976232104E+03  0.25226012228E+03  0.00000000000E+00 0.  1.
<mgrwt>
<rscale>  0 0.21374918E+04</rscale>
<asrwt>0</asrwt>
<pdfrwt beam="1">  1        1 0.35326999E+00 0.21374918E+04</pdfrwt>
<pdfrwt beam="2">  1       -1 0.76527140E-01 0.21374918E+04</pdfrwt>
<totfact> 0.29411030E+00</totfact>
</mgrwt>
</event>
<event>
12    1  0.1980523E-007  0.2514073E+04  0.7818608E-02  0.8397989E-01
          2   -1    0    0  501    0  0.00000000000E+00  0.00000000000E+00  0.39677467284E+04  0.39677467284E+04  0.00000000000E+00 0. -1.
         -2   -1    0    0    0  501 -0.00000000000E+00 -0.00000000000E+00 -0.39824640140E+03  0.39824640140E+03  0.00000000000E+00 0.  1.
         23    2    1    2    0    0 -0.35855822226E+03  0.70994478731E+03  0.25371031741E+03  0.83975484545E+03  0.90739602822E+02 0.  0.
        254    2    1    2    0    0  0.35855822226E+03 -0.70994478731E+03  0.33157900096E+04  0.35262382844E+04  0.89850289403E+03 0.  0.
        -24    2    4    4    0    0 -0.19533444121E+03  0.70743799362E+01  0.12695884791E+04  0.12870104510E+04  0.79595251357E+02 0.  0.
         24    2    4    4    0    0  0.55389266347E+03 -0.71701916724E+03  0.20462015306E+04  0.22392278334E+04  0.79290713917E+02 0.  0.
         11    1    3    3    0    0 -0.35760987939E+03  0.66171563751E+03  0.23510145857E+03  0.78805146189E+03  0.00000000000E+00 0. -1.
        -11    1    3    3    0    0 -0.94834287154E+00  0.48229149795E+02  0.18608858850E+02  0.51703383562E+02  0.00000000000E+00 0.  1.
          2    1    6    6  502    0  0.15970463997E+03 -0.24570453916E+03  0.59242683349E+03  0.66094314856E+03  0.00000000000E+00 0. -1.
          1    1    5    5  503    0 -0.45063969024E+02 -0.32122276185E+02  0.29948797918E+03  0.30455812517E+03  0.00000000000E+00 0. -1.
         -2    1    5    5    0  503 -0.15027047219E+03  0.39196656122E+02  0.97010049988E+03  0.98245232583E+03  0.00000000000E+00 0.  1.
         -1    1    6    6    0  502  0.39418802350E+03 -0.47131462808E+03  0.14537746971E+04  0.15782846848E+04  0.00000000000E+00 0.  1.
<mgrwt>
<rscale>  0 0.25140731E+04</rscale>
<asrwt>0</asrwt>
<pdfrwt beam="1">  1        2 0.61042255E+00 0.25140731E+04</pdfrwt>
<pdfrwt beam="2">  1       -2 0.61268680E-01 0.25140731E+04</pdfrwt>
<totfact> 0.80418534E-01</totfact>
</mgrwt>
</event>
<event>
12    1  0.1980523E-007  0.1369315E+04  0.7818608E-02  0.8976334E-01
          2   -1    0    0  501    0  0.00000000000E+00  0.00000000000E+00  0.95125278031E+03  0.95125278031E+03  0.00000000000E+00 0. -1.
         -2   -1    0    0    0  501 -0.00000000000E+00 -0.00000000000E+00 -0.49277762744E+03  0.49277762744E+03  0.00000000000E+00 0.  1.
         23    2    1    2    0    0  0.30677669678E+03 -0.14525436719E+03  0.31077492168E+03  0.47055680188E+03  0.98142136580E+02 0.  0.
        254    2    1    2    0    0 -0.30677669678E+03  0.14525436719E+03  0.14770023119E+03  0.97347360587E+03  0.90034700541E+03 0.  0.
        -24    2    4    4    0    0 -0.60280979154E+03 -0.29980531045E+02  0.94427366093E+02  0.61616376528E+03  0.80391424672E+02 0.  0.
         24    2    4    4    0    0  0.29603309476E+03  0.17523489823E+03  0.53272865101E+02  0.35730984059E+03  0.80557192565E+02 0.  0.
         13    1    3    3    0    0  0.75608868244E+02 -0.11790439678E+02  0.27453548917E+02  0.81298295020E+02  0.00000000000E+00 0. -1.
        -13    1    3    3    0    0  0.23116782854E+03 -0.13346392751E+03  0.28332137276E+03  0.38925850686E+03  0.00000000000E+00 0.  1.
          4    1    6    6  502    0  0.19802611618E+03  0.15716230747E+03  0.27033614955E+02  0.25425410501E+03  0.00000000000E+00 0. -1.
          3    1    5    5  503    0 -0.55930185077E+03 -0.39903007960E+02  0.69406167736E+02  0.56500267826E+03  0.00000000000E+00 0. -1.
         -4    1    5    5    0  503 -0.43507940766E+02  0.99224769149E+01  0.25021198357E+02  0.51161087020E+02  0.00000000000E+00 0.  1.
         -3    1    6    6    0  502  0.98006978577E+02  0.18072590767E+02  0.26239250146E+02  0.10305573558E+03  0.00000000000E+00 0.  1.
<mgrwt>
<rscale>  0 0.13693153E+04</rscale>
<asrwt>0</asrwt>
<pdfrwt beam="1">  1        2 0.14634658E+00 0.13693153E+04</pdfrwt>
<pdfrwt beam="2">  1       -2 0.75811943E-01 0.13693153E+04</pdfrwt>
<totfact> 0.41222574E+01</totfact>
</mgrwt>
</event>
<event>
12    1  0.1980523E-007  0.1952190E+04  0.7818608E-02  0.8629306E-01
          2   -1    0    0  501    0  0.00000000000E+00  0.00000000000E+00  0.58957855885E+03  0.58957855885E+03  0.00000000000E+00 0. -1.
         -2   -1    0    0    0  501 -0.00000000000E+00 -0.00000000000E+00 -0.16160038471E+04  0.16160038471E+04  0.00000000000E+00 0.  1.
         23    2    1    2    0    0 -0.22477350141E+03 -0.49165160480E+03  0.20649166605E+03  0.58591289391E+03  0.91709779544E+02 0.  0.
        254    2    1    2    0    0  0.22477350141E+03  0.49165160480E+03 -0.12329169543E+04  0.16196695121E+04  0.90055576430E+03 0.  0.
        -24    2    4    4    0    0 -0.64606666092E+02 -0.65695605942E+02 -0.89365718225E+03  0.90216240993E+03  0.82364558818E+02 0.  0.
         24    2    4    4    0    0  0.28938016750E+03  0.55734721074E+03 -0.33925977208E+03  0.71750710215E+03  0.73092092672E+02 0.  0.
         13    1    3    3    0    0 -0.88864985345E+02 -0.20133622624E+03  0.13266142125E+03  0.25696753551E+03  0.00000000000E+00 0. -1.
        -13    1    3    3    0    0 -0.13590851606E+03 -0.29031537856E+03  0.73830244797E+02  0.32894535840E+03  0.00000000000E+00 0.  1.
          2    1    6    6  502    0  0.25196069862E+03  0.49286398958E+03 -0.27052448969E+03  0.61610275555E+03  0.00000000000E+00 0. -1.
          1    1    5    5  503    0 -0.56807597958E+02 -0.93371062530E+01 -0.61916774241E+03  0.62183838574E+03  0.00000000000E+00 0. -1.
         -2    1    5    5    0  503 -0.77990681345E+01 -0.56358499689E+02 -0.27448943984E+03  0.28032402419E+03  0.00000000000E+00 0.  1.
         -1    1    6    6    0  502  0.37419468882E+02  0.64483221161E+02 -0.68735282397E+02  0.10140434660E+03  0.00000000000E+00 0.  1.
<mgrwt>
<rscale>  0 0.19521898E+04</rscale>
<asrwt>0</asrwt>
<pdfrwt beam="1">  1        2 0.90704394E-01 0.19521898E+04</pdfrwt>
<pdfrwt beam="2">  1       -2 0.24861598E+00 0.19521898E+04</pdfrwt>
<totfact> 0.30957180E+00</totfact>
</mgrwt>
</event>
<event>
12    1  0.2413811E-007  0.1804786E+04  0.7818608E-02  0.8703758E-01
          3   -1    0    0  501    0  0.00000000000E+00  0.00000000000E+00  0.22409268785E+04  0.22409268785E+04  0.00000000000E+00 0. -1.
         -3   -1    0    0    0  501 -0.00000000000E+00 -0.00000000000E+00 -0.36338232278E+03  0.36338232278E+03  0.00000000000E+00 0.  1.
         23    2    1    2    0    0  0.46154884345E+03 -0.32310623418E+03  0.12432948441E+04  0.13677701227E+04  0.87109503731E+02 0.  0.
        254    2    1    2    0    0 -0.46154884345E+03  0.32310623418E+03  0.63424971169E+03  0.12365390787E+04  0.89962838042E+03 0.  0.
        -24    2    4    4    0    0 -0.36713880826E+03 -0.36235028883E+02  0.74964591258E+03  0.83909337204E+03  0.77490714941E+02 0.  0.
         24    2    4    4    0    0 -0.94410035193E+02  0.35934126306E+03 -0.11539620089E+03  0.39744570664E+03  0.81285967196E+02 0.  0.
         11    1    3    3    0    0  0.28472534721E+03 -0.16823025619E+03  0.64223885260E+03  0.72238541391E+03  0.00000000000E+00 0. -1.
        -11    1    3    3    0    0  0.17682349625E+03 -0.15487597799E+03  0.60105599148E+03  0.64538470874E+03  0.00000000000E+00 0.  1.
          2    1    6    6  502    0 -0.55983759308E+02  0.32100037145E+03 -0.94405616716E+02  0.33924598781E+03  0.00000000000E+00 0. -1.
          1    1    5    5  503    0 -0.35908193126E+03 -0.22680429140E+02  0.73041985380E+03  0.81422809952E+03  0.00000000000E+00 0. -1.
         -2    1    5    5    0  503 -0.80568770026E+01 -0.13554599742E+02  0.19226058775E+02  0.24865272515E+02  0.00000000000E+00 0.  1.
         -1    1    6    6    0  502 -0.38426275885E+02  0.38340891610E+02 -0.20990584175E+02  0.58199718830E+02  0.00000000000E+00 0.  1.
<mgrwt>
<rscale>  0 0.18047861E+04</rscale>
<asrwt>0</asrwt>
<pdfrwt beam="1">  1        3 0.34475797E+00 0.18047861E+04</pdfrwt>
<pdfrwt beam="2">  1       -3 0.55904974E-01 0.18047861E+04</pdfrwt>
<totfact> 0.17185516E-01</totfact>
</mgrwt>
</event>
<event>
12    1  0.1980523E-007  0.2565509E+04  0.7818608E-02  0.8380012E-01
         -1   -1    0    0    0  501 -0.00000000000E+00  0.00000000000E+00  0.96618260367E+03  0.96618260367E+03  0.00000000000E+00 0.  1.
          1   -1    0    0  501    0  0.00000000000E+00 -0.00000000000E+00 -0.17030515403E+04  0.17030515403E+04  0.00000000000E+00 0. -1.
         23    2    1    2    0    0  0.83969442858E+03 -0.38327356864E+02  0.45138877273E+03  0.95849525268E+03  0.91682089838E+02 0.  0.
        254    2    1    2    0    0 -0.83969442858E+03  0.38327356864E+02 -0.11882577093E+04  0.17107388913E+04  0.89895241843E+03 0.  0.
        -24    2    4    4    0    0 -0.19131497002E+03 -0.12702691119E+03 -0.97338610253E+03  0.10034266455E+04  0.81530818986E+02 0.  0.
         24    2    4    4    0    0 -0.64837945856E+03  0.16535426806E+03 -0.21487160680E+03  0.70731224573E+03  0.79892736169E+02 0.  0.
         11    1    3    3    0    0  0.30200138613E+03  0.20986235498E+02  0.13168679600E+03  0.33013129441E+03  0.00000000000E+00 0. -1.
        -11    1    3    3    0    0  0.53769304245E+03 -0.59313592362E+02  0.31970197673E+03  0.62836395828E+03  0.00000000000E+00 0.  1.
          4    1    6    6  502    0 -0.50004781735E+02  0.37015419777E+01  0.32002275190E+01  0.50243617162E+02  0.00000000000E+00 0. -1.
          3    1    5    5  503    0 -0.22856296517E+02 -0.34532430663E+02 -0.85769415695E+02  0.95243329040E+02  0.00000000000E+00 0. -1.
         -4    1    5    5    0  503 -0.16845867350E+03 -0.92494480530E+02 -0.88761668683E+03  0.90818331649E+03  0.00000000000E+00 0.  1.
         -3    1    6    6    0  502 -0.59837467683E+03  0.16165272608E+03 -0.21807183432E+03  0.65706862857E+03  0.00000000000E+00 0.  1.
<mgrwt>
<rscale>  0 0.25655087E+04</rscale>
<asrwt>0</asrwt>
<pdfrwt beam="1">  1        1 0.26200793E+00 0.25655087E+04</pdfrwt>
<pdfrwt beam="2">  1       -1 0.14864348E+00 0.25655087E+04</pdfrwt>
<totfact> 0.14981120E+00</totfact>
</mgrwt>
</event>
<event>
12    1  0.1980523E-007  0.1253527E+04  0.7818608E-02  0.9067253E-01
          1   -1    0    0  501    0  0.00000000000E+00  0.00000000000E+00  0.23979553319E+03  0.23979553319E+03  0.00000000000E+00 0. -1.
         -1   -1    0    0    0  501 -0.00000000000E+00 -0.00000000000E+00 -0.16381980176E+04  0.16381980176E+04  0.00000000000E+00 0.  1.
         23    2    1    2    0    0 -0.91890962415E+02 -0.11788664147E+03 -0.71745762032E+03  0.73865362612E+03  0.92317567186E+02 0.  0.
        254    2    1    2    0    0  0.91890962415E+02  0.11788664147E+03 -0.68094486412E+03  0.11393399247E+04  0.90114834895E+03 0.  0.
        -24    2    4    4    0    0 -0.10198119758E+03  0.43986511327E+03 -0.58516733760E+03  0.74344041518E+03  0.80008470747E+02 0.  0.
         24    2    4    4    0    0  0.19387215999E+03 -0.32197847181E+03 -0.95777526512E+02  0.39589950951E+03  0.79413703604E+02 0.  0.
         11    1    3    3    0    0 -0.40719207025E+02 -0.68682430329E+02 -0.18514764058E+03  0.20163079841E+03  0.00000000000E+00 0. -1.
        -11    1    3    3    0    0 -0.51171755390E+02 -0.49204211136E+02 -0.53230997974E+03  0.53702282771E+03  0.00000000000E+00 0.  1.
          4    1    6    6  502    0  0.54853170624E+02 -0.34474165997E+02 -0.16585396591E+02  0.66876108056E+02  0.00000000000E+00 0. -1.
          1    1    5    5  503    0 -0.10852591947E+03  0.30942567676E+03 -0.42373979696E+03  0.53579617408E+03  0.00000000000E+00 0. -1.
         -4    1    5    5    0  503  0.65447218907E+01  0.13043943651E+03 -0.16142754065E+03  0.20764424110E+03  0.00000000000E+00 0.  1.
         -3    1    6    6    0  502  0.13901898937E+03 -0.28750430581E+03 -0.79192129920E+02  0.32902340146E+03  0.00000000000E+00 0.  1.
<mgrwt>
<rscale>  0 0.12535271E+04</rscale>
<asrwt>0</asrwt>
<pdfrwt beam="1">  1        1 0.36891622E-01 0.12535271E+04</pdfrwt>
<pdfrwt beam="2">  1       -1 0.25203046E+00 0.12535271E+04</pdfrwt>
<totfact> 0.78440550E+00</totfact>
</mgrwt>
</event>
<event>
12    1  0.1980523E-007  0.2614493E+04  0.7818608E-02  0.8363295E-01
         -1   -1    0    0    0  501 -0.00000000000E+00  0.00000000000E+00  0.63181742600E+03  0.63181742600E+03  0.00000000000E+00 0.  1.
          1   -1    0    0  501    0  0.00000000000E+00 -0.00000000000E+00 -0.27047270371E+04  0.27047270371E+04  0.00000000000E+00 0. -1.
         23    2    1    2    0    0 -0.76775148102E+03  0.81959478433E+03 -0.60104414960E+03  0.12772186405E+04  0.94103340337E+02 0.  0.
        254    2    1    2    0    0  0.76775148102E+03 -0.81959478433E+03 -0.14718654615E+04  0.20593258226E+04  0.90180760691E+03 0.  0.
        -24    2    4    4    0    0  0.41476358110E+03  0.59163135273E+02 -0.76191027836E+03  0.87310551200E+03  0.79226624415E+02 0.  0.
         24    2    4    4    0    0  0.35298789992E+03 -0.87875791960E+03 -0.70995518309E+03  0.11862203106E+04  0.79160119621E+02 0.  0.
         13    1    3    3    0    0 -0.22140625151E+03  0.18894315556E+03 -0.18464010595E+03  0.34469147504E+03  0.00000000000E+00 0.  1.
        -13    1    3    3    0    0 -0.54634522951E+03  0.63065162877E+03 -0.41640404366E+03  0.93252716542E+03  0.00000000000E+00 0. -1.
          4    1    6    6  502    0  0.60756239024E+02 -0.21489419802E+03 -0.13810508912E+03  0.26257161417E+03  0.00000000000E+00 0. -1.
          1    1    5    5  503    0  0.31919925207E+03  0.17807390173E+02 -0.53116306497E+03  0.61995118135E+03  0.00000000000E+00 0. -1.
         -2    1    5    5    0  503  0.95564329030E+02  0.41355745100E+02 -0.23074721340E+03  0.25315433065E+03  0.00000000000E+00 0.  1.
         -3    1    6    6    0  502  0.29223166089E+03 -0.66386372158E+03 -0.57185009397E+03  0.92364869643E+03  0.00000000000E+00 0.  1.
<mgrwt>
<rscale>  0 0.26144932E+04</rscale>
<asrwt>0</asrwt>
<pdfrwt beam="1">  1        1 0.41611186E+00 0.26144932E+04</pdfrwt>
<pdfrwt beam="2">  1       -1 0.97202680E-01 0.26144932E+04</pdfrwt>
<totfact> 0.87064035E-01</totfact>
</mgrwt>
</event>
<event>
12    1  0.1980523E-007  0.1424634E+04  0.7818608E-02  0.8936177E-01
          2   -1    0    0  501    0  0.00000000000E+00  0.00000000000E+00  0.22905327684E+04  0.22905327684E+04  0.00000000000E+00 0. -1.
         -2   -1    0    0    0  501 -0.00000000000E+00 -0.00000000000E+00 -0.22151870984E+03  0.22151870984E+03  0.00000000000E+00 0.  1.
         23    2    1    2    0    0  0.15425012830E+03 -0.25901153815E+02  0.13101133656E+04  0.13225215195E+04  0.90565815815E+02 0.  0.
        254    2    1    2    0    0 -0.15425012830E+03  0.25901153815E+02  0.75890069295E+03  0.11895299587E+04  0.90254489587E+03 0.  0.
        -24    2    4    4    0    0 -0.16861847745E+03  0.44821083131E+03  0.38831968803E+03  0.62127941500E+03  0.76621088127E+02 0.  0.
         24    2    4    4    0    0  0.14368349144E+02 -0.42230967750E+03  0.37058100492E+03  0.56825054372E+03  0.83824137689E+02 0.  0.
         13    1    3    3    0    0 -0.70963237072E+01 -0.16294523105E+02  0.18602947350E+03  0.18687652154E+03  0.00000000000E+00 0. -1.
        -13    1    3    3    0    0  0.16134645201E+03 -0.96066307098E+01  0.11240838921E+04  0.11356449980E+04  0.00000000000E+00 0.  1.
          2    1    6    6  502    0 -0.18339144803E+02 -0.33026302713E+03  0.26017844475E+03  0.42083585212E+03  0.00000000000E+00 0. -1.
          1    1    5    5  503    0 -0.14233587842E+03  0.34885916342E+03  0.34085308315E+03  0.50807779176E+03  0.00000000000E+00 0. -1.
         -2    1    5    5    0  503 -0.26282599029E+02  0.99351667892E+02  0.47466604879E+02  0.11320162324E+03  0.00000000000E+00 0.  1.
         -1    1    6    6    0  502  0.32707493947E+02 -0.92046650367E+02  0.11040256017E+03  0.14741469159E+03  0.00000000000E+00 0.  1.
<mgrwt>
<rscale>  0 0.14246345E+04</rscale>
<asrwt>0</asrwt>
<pdfrwt beam="1">  1        2 0.35238964E+00 0.14246345E+04</pdfrwt>
<pdfrwt beam="2">  1       -2 0.34079803E-01 0.14246345E+04</pdfrwt>
<totfact> 0.36018746E+01</totfact>
</mgrwt>
</event>
<event>
12    1  0.1980523E-007  0.1845106E+04  0.7818608E-02  0.8682674E-01
         -1   -1    0    0    0  501 -0.00000000000E+00  0.00000000000E+00  0.29958030926E+03  0.29958030926E+03  0.00000000000E+00 0.  1.
          1   -1    0    0  501    0  0.00000000000E+00 -0.00000000000E+00 -0.28409873849E+04  0.28409873849E+04  0.00000000000E+00 0. -1.
         23    2    1    2    0    0 -0.66256102822E+02  0.64933284631E+03 -0.13688178020E+04  0.15194251414E+04  0.94697247745E+02 0.  0.
        254    2    1    2    0    0  0.66256102822E+02 -0.64933284631E+03 -0.11725892736E+04  0.16211425527E+04  0.90945838567E+03 0.  0.
        -24    2    4    4    0    0 -0.33750486692E+03  0.31833194710E+01 -0.36970985681E+03  0.50779310867E+03  0.85139851265E+02 0.  0.
         24    2    4    4    0    0  0.40376096974E+03 -0.65251616578E+03 -0.80287941679E+03  0.11133494441E+04  0.78302997412E+02 0.  0.
         11    1    3    3    0    0 -0.29145679246E+02  0.25101087490E+03 -0.63909197499E+03  0.68723684596E+03  0.00000000000E+00 0. -1.
        -11    1    3    3    0    0 -0.37110423575E+02  0.39832197141E+03 -0.72972582704E+03  0.83218829546E+03  0.00000000000E+00 0.  1.
          2    1    6    6  502    0  0.11052270780E+03 -0.18371073585E+03 -0.17550456077E+03  0.27706814010E+03  0.00000000000E+00 0. -1.
          3    1    5    5  503    0 -0.25755067633E+03 -0.19714923765E+02 -0.31868105497E+03  0.41021780056E+03  0.00000000000E+00 0. -1.
         -4    1    5    5    0  503 -0.79954190587E+02  0.22898243236E+02 -0.51028801837E+02  0.97575308110E+02  0.00000000000E+00 0.  1.
         -1    1    6    6    0  502  0.29323826193E+03 -0.46880542993E+03 -0.62737485602E+03  0.83628130397E+03  0.00000000000E+00 0.  1.
<mgrwt>
<rscale>  0 0.18451058E+04</rscale>
<asrwt>0</asrwt>
<pdfrwt beam="1">  1        1 0.43707499E+00 0.18451058E+04</pdfrwt>
<pdfrwt beam="2">  1       -1 0.46089277E-01 0.18451058E+04</pdfrwt>
<totfact> 0.34360476E+00</totfact>
</mgrwt>
</event>
<event>
12    1  0.1980523E-007  0.1393949E+04  0.7818608E-02  0.8958211E-01
          3   -1    0    0  501    0  0.00000000000E+00  0.00000000000E+00  0.17420840233E+04  0.17420840233E+04  0.00000000000E+00 0. -1.
         -3   -1    0    0    0  501 -0.00000000000E+00 -0.00000000000E+00 -0.27884600388E+03  0.27884600388E+03  0.00000000000E+00 0.  1.
         23    2    1    2    0    0  0.38578712993E+03 -0.65016899099E+02  0.52947088002E+03  0.66540240749E+03  0.96757657659E+02 0.  0.
        254    2    1    2    0    0 -0.38578712993E+03  0.65016899099E+02  0.93376713937E+03  0.13555276197E+04  0.90137403463E+03 0.  0.
        -24    2    4    4    0    0 -0.62264762549E+03 -0.13865582600E+03  0.73822488309E+03  0.97868239710E+03  0.76991900671E+02 0.  0.
         24    2    4    4    0    0  0.23686049556E+03  0.20367272510E+03  0.19554225629E+03  0.37684522256E+03  0.78677026316E+02 0.  0.
         13    1    3    3    0    0  0.28189896552E+03 -0.64423435788E+02  0.31815987873E+03  0.42993384872E+03  0.00000000000E+00 0.  1.
        -13    1    3    3    0    0  0.10388816441E+03 -0.59346331093E+00  0.21131100130E+03  0.23546855877E+03  0.00000000000E+00 0. -1.
          2    1    6    6  502    0  0.16701831969E+03  0.18513267792E+03  0.16056295450E+03  0.29656312971E+03  0.00000000000E+00 0. -1.
          1    1    5    5  503    0 -0.34844738518E+03 -0.10760384438E+03  0.45710333342E+03  0.58475432875E+03  0.00000000000E+00 0. -1.
         -2    1    5    5    0  503 -0.27420024031E+03 -0.31051981623E+02  0.28112154967E+03  0.39392806835E+03  0.00000000000E+00 0.  1.
         -1    1    6    6    0  502  0.69842175871E+02  0.18540047183E+02  0.34979301783E+02  0.80282092855E+02  0.00000000000E+00 0.  1.
<mgrwt>
<rscale>  0 0.13939486E+04</rscale>
<asrwt>0</asrwt>
<pdfrwt beam="1">  1        3 0.26801292E+00 0.13939486E+04</pdfrwt>
<pdfrwt beam="2">  1       -3 0.42899386E-01 0.13939486E+04</pdfrwt>
<totfact> 0.80817427E-01</totfact>
</mgrwt>
</event>
<event>
12    1  0.1980523E-007  0.2933537E+04  0.7818608E-02  0.8262969E-01
          2   -1    0    0  501    0  0.00000000000E+00  0.00000000000E+00  0.24560676768E+04  0.24560676768E+04  0.00000000000E+00 0. -1.
         -2   -1    0    0    0  501 -0.00000000000E+00 -0.00000000000E+00 -0.87595699773E+03  0.87595699773E+03  0.00000000000E+00 0.  1.
         23    2    1    2    0    0 -0.12092671129E+04  0.43499747042E+03  0.10906039683E+04  0.16879578711E+04  0.90746951515E+02 0.  0.
        254    2    1    2    0    0  0.12092671129E+04 -0.43499747042E+03  0.48950671084E+03  0.16440668035E+04  0.90099338765E+03 0.  0.
        -24    2    4    4    0    0  0.13452857752E+04 -0.38826277894E+03  0.41221615473E+03  0.14616869258E+04  0.77876236147E+02 0.  0.
         24    2    4    4    0    0 -0.13601866228E+03 -0.46734691488E+02  0.77290556110E+02  0.18237987772E+03  0.81261195274E+02 0.  0.
         11    1    3    3    0    0 -0.10279584041E+04  0.37797652780E+03  0.88646561974E+03  0.14090372710E+04  0.00000000000E+00 0.  1.
        -11    1    3    3    0    0 -0.18130870884E+03  0.57020942621E+02  0.20413834852E+03  0.27892060005E+03  0.00000000000E+00 0. -1.
          2    1    6    6  502    0 -0.71345164241E+02  0.17761761594E+02  0.40236902008E+02  0.83813011631E+02  0.00000000000E+00 0. -1.
          3    1    5    5  503    0  0.18560987175E+03 -0.38165404204E+02  0.79183918147E+02  0.20537213896E+03  0.00000000000E+00 0. -1.
         -4    1    5    5    0  503  0.11596759035E+04 -0.35009737473E+03  0.33303223658E+03  0.12563147868E+04  0.00000000000E+00 0.  1.
         -1    1    6    6    0  502 -0.64673498039E+02 -0.64496453082E+02  0.37053654102E+02  0.98566866091E+02  0.00000000000E+00 0.  1.
<mgrwt>
<rscale>  0 0.29335369E+04</rscale>
<asrwt>0</asrwt>
<pdfrwt beam="1">  1        2 0.37785656E+00 0.29335369E+04</pdfrwt>
<pdfrwt beam="2">  1       -2 0.13476262E+00 0.29335369E+04</pdfrwt>
<totfact> 0.12587001E+00</totfact>
</mgrwt>
</event>
<event>
12    1  0.2375256E-007  0.2417811E+04  0.7818608E-02  0.8432865E-01
          2   -1    0    0  501    0  0.00000000000E+00  0.00000000000E+00  0.23177462115E+04  0.23177462115E+04  0.00000000000E+00 0. -1.
         -2   -1    0    0    0  501 -0.00000000000E+00 -0.00000000000E+00 -0.63054912566E+03  0.63054912566E+03  0.00000000000E+00 0.  1.
         23    2    1    2    0    0  0.89530090050E+03  0.12860442036E+03  0.13525966183E+04  0.16296568713E+04  0.90338845210E+02 0.  0.
        254    2    1    2    0    0 -0.89530090050E+03 -0.12860442036E+03  0.33460046755E+03  0.13186384659E+04  0.89930369255E+03 0.  0.
        -24    2    4    4    0    0  0.20001843742E+00  0.20940115608E+03 -0.12189028414E+03  0.25515678730E+03  0.79992878183E+02 0.  0.
         24    2    4    4    0    0 -0.89550091894E+03 -0.33800557645E+03  0.45649075169E+03  0.10634816786E+04  0.80248419154E+02 0.  0.
         13    1    3    3    0    0  0.31017803379E+03  0.84810787661E+02  0.44927567627E+03  0.55249607749E+03  0.00000000000E+00 0.  1.
        -13    1    3    3    0    0  0.58512286671E+03  0.43793632703E+02  0.90332094203E+03  0.10771607938E+04  0.00000000000E+00 0. -1.
          2    1    6    6  502    0 -0.35458800721E+03 -0.17456654581E+03  0.17642420311E+03  0.43281824501E+03  0.00000000000E+00 0. -1.
          1    1    5    5  503    0 -0.96814651989E+01  0.18658656018E+03 -0.73541636683E+02  0.20079005836E+03  0.00000000000E+00 0. -1.
         -2    1    5    5    0  503  0.98814836364E+01  0.22814595902E+02 -0.48348647453E+02  0.54366728939E+02  0.00000000000E+00 0.  1.
         -1    1    6    6    0  502 -0.54091291173E+03 -0.16343903064E+03  0.28006654858E+03  0.63066343357E+03  0.00000000000E+00 0.  1.
<mgrwt>
<rscale>  0 0.24178113E+04</rscale>
<asrwt>0</asrwt>
<pdfrwt beam="1">  1        2 0.35657634E+00 0.24178113E+04</pdfrwt>
<pdfrwt beam="2">  1       -2 0.97007559E-01 0.24178113E+04</pdfrwt>
<totfact> 0.35290236E+00</totfact>
</mgrwt>
</event>
<event>
12    1  0.1980523E-007  0.1767669E+04  0.7818608E-02  0.8723684E-01
         -2   -1    0    0    0  501 -0.00000000000E+00  0.00000000000E+00  0.81619022661E+03  0.81619022661E+03  0.00000000000E+00 0.  1.
          2   -1    0    0  501    0  0.00000000000E+00 -0.00000000000E+00 -0.95708472917E+03  0.95708472917E+03  0.00000000000E+00 0. -1.
         23    2    1    2    0    0  0.11804291747E+03  0.23716316497E+03  0.54416411185E+03  0.61211095074E+03  0.91568216121E+02 0.  0.
        254    2    1    2    0    0 -0.11804291747E+03 -0.23716316497E+03 -0.68505861441E+03  0.11611640050E+04  0.89934200627E+03 0.  0.
        -24    2    4    4    0    0  0.41957852895E+01 -0.23493333877E+03  0.16543337998E+03  0.29815183415E+03  0.79467192699E+02 0.  0.
         24    2    4    4    0    0 -0.12223870276E+03 -0.22298261965E+01 -0.85049199439E+03  0.86301217089E+03  0.80660411603E+02 0.  0.
         11    1    3    3    0    0  0.35594259476E+01  0.87233009006E+02  0.12517493802E+03  0.15261399832E+03  0.00000000000E+00 0. -1.
        -11    1    3    3    0    0  0.11448349153E+03  0.14993015596E+03  0.41898917383E+03  0.45949695242E+03  0.00000000000E+00 0.  1.
          4    1    6    6  502    0 -0.13433462601E+03 -0.16315833227E+01 -0.77675191499E+03  0.78828420715E+03  0.00000000000E+00 0. -1.
          3    1    5    5  503    0  0.31534014315E+02 -0.11011071283E+03  0.11020449826E+03  0.15894588568E+03  0.00000000000E+00 0. -1.
         -2    1    5    5    0  503 -0.27338229026E+02 -0.12482262594E+03  0.55228881726E+02  0.13920594847E+03  0.00000000000E+00 0.  1.
         -3    1    6    6    0  502  0.12095923245E+02 -0.59824287377E+00 -0.73740079400E+02  0.74727963733E+02  0.00000000000E+00 0.  1.
<mgrwt>
<rscale>  0 0.17676687E+04</rscale>
<asrwt>0</asrwt>
<pdfrwt beam="1">  1        2 0.14724380E+00 0.17676687E+04</pdfrwt>
<pdfrwt beam="2">  1       -2 0.12556773E+00 0.17676687E+04</pdfrwt>
<totfact> 0.12051719E+01</totfact>
</mgrwt>
</event>
<event>
12    1  0.1980523E-007  0.1978489E+04  0.7818608E-02  0.8616744E-01
         -1   -1    0    0    0  501 -0.00000000000E+00  0.00000000000E+00  0.39983758232E+03  0.39983758232E+03  0.00000000000E+00 0.  1.
          1   -1    0    0  501    0  0.00000000000E+00 -0.00000000000E+00 -0.24475050151E+04  0.24475050151E+04  0.00000000000E+00 0. -1.
         23    2    1    2    0    0  0.31925422951E+03 -0.70642099879E+03 -0.94992684302E+03  0.12293029220E+04  0.88717396153E+02 0.  0.
        254    2    1    2    0    0 -0.31925422951E+03  0.70642099879E+03 -0.10977405898E+04  0.16180396754E+04  0.90114599161E+03 0.  0.
        -24    2    4    4    0    0  0.27591315486E+03  0.22966022213E+03 -0.60044763287E+03  0.70410190442E+03  0.79688426587E+02 0.  0.
         24    2    4    4    0    0 -0.59516738437E+03  0.47676077666E+03 -0.49729295689E+03  0.91393777099E+03  0.80354904558E+02 0.  0.
         11    1    3    3    0    0  0.15758734617E+03 -0.31131044037E+03 -0.36259753689E+03  0.50321460205E+03  0.00000000000E+00 0. -1.
        -11    1    3    3    0    0  0.16166688334E+03 -0.39511055841E+03 -0.58732930613E+03  0.72608831996E+03  0.00000000000E+00 0.  1.
          4    1    6    6  502    0 -0.15142991561E+03  0.16809593145E+03 -0.14373567361E+03  0.26804329013E+03  0.00000000000E+00 0. -1.
          1    1    5    5  503    0  0.20214295042E+02 -0.29273139780E+01 -0.51393879307E+02  0.55303867147E+02  0.00000000000E+00 0. -1.
         -2    1    5    5    0  503  0.25569885982E+03  0.23258753611E+03 -0.54905375356E+03  0.64879803727E+03  0.00000000000E+00 0.  1.
         -3    1    6    6    0  502 -0.44373746877E+03  0.30866484520E+03 -0.35355728327E+03  0.64589448086E+03  0.00000000000E+00 0.  1.
<mgrwt>
<rscale>  0 0.19784888E+04</rscale>
<asrwt>0</asrwt>
<pdfrwt beam="1">  1        1 0.37653924E+00 0.19784888E+04</pdfrwt>
<pdfrwt beam="2">  1       -1 0.61513473E-01 0.19784888E+04</pdfrwt>
<totfact> 0.36712599E+00</totfact>
</mgrwt>
</event>
<event>
12    1  0.2025779E-007  0.2769997E+04  0.7818608E-02  0.8312644E-01
         -2   -1    0    0    0  501 -0.00000000000E+00  0.00000000000E+00  0.11752251594E+04  0.11752251594E+04  0.00000000000E+00 0.  1.
          2   -1    0    0  501    0  0.00000000000E+00 -0.00000000000E+00 -0.16322155592E+04  0.16322155592E+04  0.00000000000E+00 0. -1.
         23    2    1    2    0    0 -0.56548696501E+03  0.10280588812E+04 -0.60360035351E+03  0.13216441633E+04  0.75692382281E+02 0.  0.
        254    2    1    2    0    0  0.56548696501E+03 -0.10280588812E+04  0.14660995373E+03  0.14857965553E+04  0.89967569406E+03 0.  0.
        -24    2    4    4    0    0  0.35680661934E+03 -0.11570790438E+04  0.72298363000E+02  0.12156504847E+04  0.80225746322E+02 0.  0.
         24    2    4    4    0    0  0.20868034567E+03  0.12902016257E+03  0.74311590733E+02  0.27014607069E+03  0.85223224379E+02 0.  0.
         13    1    3    3    0    0 -0.28625188235E+03  0.53562685669E+03 -0.35406982972E+03  0.70299481796E+03  0.00000000000E+00 0. -1.
        -13    1    3    3    0    0 -0.27923508266E+03  0.49243202453E+03 -0.24953052378E+03  0.61864934532E+03  0.00000000000E+00 0.  1.
          2    1    6    6  502    0  0.24721757231E+02 -0.11385713167E+02  0.43348280110E+00  0.27221088374E+02  0.00000000000E+00 0. -1.
          1    1    5    5  503    0  0.29981203346E+02 -0.50163880922E+02 -0.65384243764E+01  0.58805089036E+02  0.00000000000E+00 0. -1.
         -2    1    5    5    0  503  0.32682541599E+03 -0.11069151629E+04  0.78836787376E+02  0.11568453956E+04  0.00000000000E+00 0.  1.
         -1    1    6    6    0  502  0.18395858844E+03  0.14040587573E+03  0.73878107931E+02  0.24292498232E+03  0.00000000000E+00 0.  1.
<mgrwt>
<rscale>  0 0.27699970E+04</rscale>
<asrwt>0</asrwt>
<pdfrwt beam="1">  1        2 0.25111008E+00 0.27699970E+04</pdfrwt>
<pdfrwt beam="2">  1       -2 0.18080387E+00 0.27699970E+04</pdfrwt>
<totfact> 0.16709784E+00</totfact>
</mgrwt>
</event>
<event>
12    1  0.2030620E-007  0.2066461E+04  0.7818608E-02  0.8576163E-01
          4   -1    0    0  501    0  0.00000000000E+00  0.00000000000E+00  0.85577188487E+03  0.85577188487E+03  0.00000000000E+00 0.  1.
         -4   -1    0    0    0  501 -0.00000000000E+00 -0.00000000000E+00 -0.12474887117E+04  0.12474887117E+04  0.00000000000E+00 0. -1.
         23    2    1    2    0    0  0.77821940750E+03  0.17810722216E+03 -0.40619581667E+03  0.90047105023E+03  0.92224953444E+02 0.  0.
        254    2    1    2    0    0 -0.77821940750E+03 -0.17810722216E+03  0.14478989849E+02  0.12027895463E+04  0.89952510960E+03 0.  0.
        -24    2    4    4    0    0 -0.21797188432E+03 -0.39893408374E+03 -0.26685263733E+03  0.53319191920E+03  0.80144539000E+02 0.  0.
         24    2    4    4    0    0 -0.56024752318E+03  0.22082686158E+03  0.28133162718E+03  0.66959762711E+03  0.81066070360E+02 0.  0.
         11    1    3    3    0    0  0.40089809179E+03  0.12932685474E+03 -0.18210159509E+03  0.45891797338E+03  0.00000000000E+00 0.  1.
        -11    1    3    3    0    0  0.37732131571E+03  0.48780367421E+02 -0.22409422158E+03  0.44155307685E+03  0.00000000000E+00 0. -1.
          4    1    6    6  502    0 -0.14310326777E+03  0.93832037402E+02  0.67665429810E+02  0.18401523546E+03  0.00000000000E+00 0. -1.
          3    1    5    5  503    0 -0.14204577048E+02 -0.32915731976E+02  0.11760047213E+01  0.35869184654E+02  0.00000000000E+00 0. -1.
         -4    1    5    5    0  503 -0.20376730727E+03 -0.36601835176E+03 -0.26802864205E+03  0.49732273455E+03  0.00000000000E+00 0.  1.
         -3    1    6    6    0  502 -0.41714425541E+03  0.12699482417E+03  0.21366619737E+03  0.48558239165E+03  0.00000000000E+00 0.  1.
<mgrwt>
<rscale>  0 0.20664615E+04</rscale>
<asrwt>0</asrwt>
<pdfrwt beam="1">  1        4 0.13165721E+00 0.20664615E+04</pdfrwt>
<pdfrwt beam="2">  1       -4 0.19192134E+00 0.20664615E+04</pdfrwt>
<totfact> 0.11530905E-01</totfact>
</mgrwt>
</event>
<event>
12    1  0.1980523E-007  0.2068133E+04  0.7818608E-02  0.8575412E-01
          2   -1    0    0  501    0  0.00000000000E+00  0.00000000000E+00  0.15433705282E+04  0.15433705282E+04  0.00000000000E+00 0. -1.
         -2   -1    0    0    0  501 -0.00000000000E+00 -0.00000000000E+00 -0.69283006337E+03  0.69283006337E+03  0.00000000000E+00 0.  1.
         23    2    1    2    0    0  0.29087728519E+03 -0.78255943637E+03  0.34145041161E+03  0.90669911951E+03  0.92228212802E+02 0.  0.
        254    2    1    2    0    0 -0.29087728519E+03  0.78255943637E+03  0.50909005327E+03  0.13295014721E+04  0.90077334302E+03 0.  0.
        -24    2    4    4    0    0 -0.45772271129E+03  0.81133594902E+03  0.60858670723E+03  0.11156368926E+04  0.80571665886E+02 0.  0.
         24    2    4    4    0    0  0.16684542611E+03 -0.28776512645E+02 -0.99496653963E+02  0.21386457949E+03  0.84693508114E+02 0.  0.
         11    1    3    3    0    0  0.32712736523E+02 -0.13489756294E+03  0.90445406128E+02  0.16567391801E+03  0.00000000000E+00 0. -1.
        -11    1    3    3    0    0  0.25816454866E+03 -0.64766187343E+03  0.25100500548E+03  0.74102520150E+03  0.00000000000E+00 0.  1.
          4    1    6    6  502    0 -0.47767091898E+01  0.25555177129E+01  0.74673894459E+01  0.92254824590E+01  0.00000000000E+00 0. -1.
          3    1    5    5  503    0 -0.36302790229E+02  0.49863864213E+02  0.64542696853E+02  0.89275177120E+02  0.00000000000E+00 0. -1.
         -4    1    5    5    0  503 -0.42141992106E+03  0.76147208481E+03  0.54404401038E+03  0.10263617155E+04  0.00000000000E+00 0.  1.
         -3    1    6    6    0  502  0.17162213530E+03 -0.31332030358E+02 -0.10696404341E+03  0.20463909703E+03  0.00000000000E+00 0.  1.
<mgrwt>
<rscale>  0 0.20681330E+04</rscale>
<asrwt>0</asrwt>
<pdfrwt beam="1">  1        2 0.23744162E+00 0.20681330E+04</pdfrwt>
<pdfrwt beam="2">  1       -2 0.10658924E+00 0.20681330E+04</pdfrwt>
<totfact> 0.78608561E+00</totfact>
</mgrwt>
</event>
<event>
12    1  0.1980523E-007  0.2933565E+04  0.7818608E-02  0.8262960E-01
          1   -1    0    0  501    0  0.00000000000E+00  0.00000000000E+00  0.18043470237E+04  0.18043470237E+04  0.00000000000E+00 0. -1.
         -1   -1    0    0    0  501 -0.00000000000E+00 -0.00000000000E+00 -0.11923711901E+04  0.11923711901E+04  0.00000000000E+00 0.  1.
         23    2    1    2    0    0 -0.10943549853E+04 -0.75580925602E+03  0.28404191466E+03  0.13630772489E+04  0.91865726698E+02 0.  0.
        254    2    1    2    0    0  0.10943549853E+04  0.75580925602E+03  0.32793391900E+03  0.16336409649E+04  0.89015823398E+03 0.  0.
        -24    2    4    4    0    0  0.47720700265E+03  0.61525120073E+03  0.55166262175E+03  0.95768165506E+03  0.81005807346E+02 0.  0.
         24    2    4    4    0    0  0.61714798268E+03  0.14055805529E+03 -0.22372870275E+03  0.67595930982E+03  0.78982635248E+02 0.  0.
         13    1    3    3    0    0 -0.67474400755E+03 -0.51580404189E+03  0.16414625316E+03  0.86503021784E+03  0.00000000000E+00 0. -1.
        -13    1    3    3    0    0 -0.41961097778E+03 -0.24000521413E+03  0.11989566150E+03  0.49804703104E+03  0.00000000000E+00 0.  1.
          2    1    6    6  502    0  0.79073145674E+02  0.16608086828E+02 -0.16754689375E+01  0.80815828344E+02  0.00000000000E+00 0. -1.
          1    1    5    5  503    0  0.29335819306E+02  0.29493501013E+02  0.53687786345E+02  0.67917856997E+02  0.00000000000E+00 0. -1.
         -2    1    5    5    0  503  0.44787118335E+03  0.58575769971E+03  0.49797483541E+03  0.88976379806E+03  0.00000000000E+00 0.  1.
         -1    1    6    6    0  502  0.53807483700E+03  0.12394996846E+03 -0.22205323381E+03  0.59514348148E+03  0.00000000000E+00 0.  1.
<mgrwt>
<rscale>  0 0.29335653E+04</rscale>
<asrwt>0</asrwt>
<pdfrwt beam="1">  1        1 0.27759185E+00 0.29335653E+04</pdfrwt>
<pdfrwt beam="2">  1       -1 0.18344172E+00 0.29335653E+04</pdfrwt>
<totfact> 0.68101524E-01</totfact>
</mgrwt>
</event>
<event>
12    1  0.1980523E-007  0.3592999E+04  0.7818608E-02  0.8092097E-01
         -1   -1    0    0    0  501 -0.00000000000E+00  0.00000000000E+00  0.20271705712E+04  0.20271705712E+04  0.00000000000E+00 0.  1.
          1   -1    0    0  501    0  0.00000000000E+00 -0.00000000000E+00 -0.15920765479E+04  0.15920765479E+04  0.00000000000E+00 0. -1.
         23    2    1    2    0    0  0.73409179415E+03  0.82004507726E+03 -0.10778489291E+04  0.15438727287E+04  0.10207838925E+03 0.  0.
        254    2    1    2    0    0 -0.73409179415E+03 -0.82004507726E+03  0.15129429524E+04  0.20753743904E+04  0.89823036708E+03 0.  0.
        -24    2    4    4    0    0 -0.81597298241E+03 -0.53904607794E+03  0.14731495782E+04  0.17696611811E+04  0.71752587994E+02 0.  0.
         24    2    4    4    0    0  0.81881188264E+02 -0.28099899932E+03  0.39793374132E+02  0.30571320932E+03  0.78816794647E+02 0.  0.
         11    1    3    3    0    0  0.56516973934E+03  0.63653464812E+03 -0.89069813938E+03  0.12320456031E+04  0.00000000000E+00 0.  1.
        -11    1    3    3    0    0  0.16892205481E+03  0.18351042914E+03 -0.18715078970E+03  0.31182712564E+03  0.00000000000E+00 0. -1.
          2    1    6    6  502    0 -0.79171402310E+01 -0.51074772452E+02 -0.12996188770E+02  0.53293662034E+02  0.00000000000E+00 0. -1.
          3    1    5    5  503    0 -0.36610500580E+03 -0.25977892286E+03  0.73478139584E+03  0.86105845545E+03  0.00000000000E+00 0. -1.
         -4    1    5    5    0  503 -0.44986797661E+03 -0.27926715508E+03  0.73836818240E+03  0.90860272565E+03  0.00000000000E+00 0.  1.
         -1    1    6    6    0  502  0.89798328495E+02 -0.22992422687E+03  0.52789562902E+02  0.25241954729E+03  0.00000000000E+00 0.  1.
<mgrwt>
<rscale>  0 0.35929992E+04</rscale>
<asrwt>0</asrwt>
<pdfrwt beam="1">  1        1 0.24493485E+00 0.35929992E+04</pdfrwt>
<pdfrwt beam="2">  1       -1 0.31187240E+00 0.35929992E+04</pdfrwt>
<totfact> 0.12645543E-01</totfact>
</mgrwt>
</event>
<event>
12    1  0.1980523E-007  0.1478613E+04  0.7818608E-02  0.8898801E-01
          2   -1    0    0  501    0  0.00000000000E+00  0.00000000000E+00  0.25319973786E+04  0.25319973786E+04  0.00000000000E+00 0.  1.
         -2   -1    0    0    0  501 -0.00000000000E+00 -0.00000000000E+00 -0.21586677372E+03  0.21586677372E+03  0.00000000000E+00 0. -1.
         23    2    1    2    0    0 -0.31711156848E+03  0.16058187228E+03  0.19242904854E+03  0.41442289139E+03  0.91493768203E+02 0.  0.
        254    2    1    2    0    0  0.31711156848E+03 -0.16058187228E+03  0.21237015564E+04  0.23334412609E+04  0.89916268449E+03 0.  0.
        -24    2    4    4    0    0  0.16305341489E+03 -0.21619102308E+03  0.21321644186E+04  0.21507802097E+04  0.80033916044E+02 0.  0.
         24    2    4    4    0    0  0.15405815359E+03  0.55609150798E+02 -0.84628622855E+01  0.18266105124E+03  0.80418575350E+02 0.  0.
         13    1    3    3    0    0 -0.63385877550E+02  0.73735262909E+02  0.68845274726E+02  0.11913996106E+03  0.00000000000E+00 0. -1.
        -13    1    3    3    0    0 -0.25372569093E+03  0.86846609374E+02  0.12358377381E+03  0.29528293033E+03  0.00000000000E+00 0.  1.
          2    1    6    6  502    0  0.15437460989E+03  0.52473965534E+02  0.10548749386E+02  0.16339006503E+03  0.00000000000E+00 0. -1.
          1    1    5    5  503    0  0.16894250738E+03 -0.20475869566E+03  0.20871912470E+04  0.21040045142E+04  0.00000000000E+00 0. -1.
         -2    1    5    5    0  503 -0.58890924923E+01 -0.11432327420E+02  0.44973171613E+02  0.46775695457E+02  0.00000000000E+00 0.  1.
         -1    1    6    6    0  502 -0.31645629375E+00  0.31351852641E+01 -0.19011611671E+02  0.19270986212E+02  0.00000000000E+00 0.  1.
<mgrwt>
<rscale>  0 0.14786130E+04</rscale>
<asrwt>0</asrwt>
<pdfrwt beam="1">  1        2 0.38953804E+00 0.14786130E+04</pdfrwt>
<pdfrwt beam="2">  1       -2 0.33210275E-01 0.14786130E+04</pdfrwt>
<totfact> 0.27417082E+01</totfact>
</mgrwt>
</event>
<event>
12    1  0.1980523E-007  0.2948820E+04  0.7818608E-02  0.8258499E-01
          1   -1    0    0  501    0  0.00000000000E+00  0.00000000000E+00  0.26333580558E+04  0.26333580558E+04  0.00000000000E+00 0. -1.
         -1   -1    0    0    0  501 -0.00000000000E+00 -0.00000000000E+00 -0.82551807373E+03  0.82551807373E+03  0.00000000000E+00 0.  1.
         23    2    1    2    0    0  0.78148851598E+03 -0.85293566054E+03  0.16040732425E+04  0.19793168842E+04  0.80130015619E+02 0.  0.
        254    2    1    2    0    0 -0.78148851598E+03  0.85293566054E+03  0.20376673958E+03  0.14795592453E+04  0.89963944694E+03 0.  0.
        -24    2    4    4    0    0 -0.51537235259E+02 -0.10136377772E+03  0.23780869033E+03  0.27500535623E+03  0.78385398557E+02 0.  0.
         24    2    4    4    0    0 -0.72995128072E+03  0.95429943826E+03 -0.34041950751E+02  0.12045538890E+04  0.79214437562E+02 0.  0.
         13    1    3    3    0    0  0.71943800359E+03 -0.78425384248E+03  0.15098162457E+04  0.18472114731E+04  0.00000000000E+00 0. -1.
        -13    1    3    3    0    0  0.62050512397E+02 -0.68681818057E+02  0.94256996730E+02  0.13210541114E+03  0.00000000000E+00 0.  1.
          2    1    6    6  502    0 -0.91006907136E+02  0.12110673650E+03  0.21998336589E+02  0.15307849484E+03  0.00000000000E+00 0. -1.
          3    1    5    5  503    0 -0.49655120883E+02 -0.81372351600E+02  0.10969453656E+03  0.14532715502E+03  0.00000000000E+00 0. -1.
         -4    1    5    5    0  503 -0.18821143755E+01 -0.19991426119E+02  0.12811415377E+03  0.12967820121E+03  0.00000000000E+00 0.  1.
         -1    1    6    6    0  502 -0.63894437359E+03  0.83319270176E+03 -0.56040287340E+02  0.10514753942E+04  0.00000000000E+00 0.  1.
<mgrwt>
<rscale>  0 0.29488199E+04</rscale>
<asrwt>0</asrwt>
<pdfrwt beam="1">  1        1 0.40513200E+00 0.29488199E+04</pdfrwt>
<pdfrwt beam="2">  1       -1 0.12700278E+00 0.29488199E+04</pdfrwt>
<totfact> 0.50239240E-01</totfact>
</mgrwt>
</event>
<event>
12    1  0.1980523E-007  0.1310053E+04  0.7818608E-02  0.9021630E-01
         -1   -1    0    0    0  501 -0.00000000000E+00  0.00000000000E+00  0.55372870448E+03  0.55372870448E+03  0.00000000000E+00 0.  1.
          1   -1    0    0  501    0  0.00000000000E+00 -0.00000000000E+00 -0.77485599812E+03  0.77485599812E+03  0.00000000000E+00 0. -1.
         23    2    1    2    0    0 -0.30728944643E+03  0.11618720859E+03  0.70551384493E+01  0.34384837758E+03  0.10127023479E+03 0.  0.
        254    2    1    2    0    0  0.30728944643E+03 -0.11618720859E+03 -0.22818243209E+03  0.98473632502E+03  0.89984006144E+03 0.  0.
        -24    2    4    4    0    0 -0.21505490600E+03 -0.31045626525E+03 -0.15106915813E+03  0.41500344165E+03  0.82305897826E+02 0.  0.
         24    2    4    4    0    0  0.52234435244E+03  0.19426905666E+03 -0.77113273960E+02  0.56973288337E+03  0.89805414513E+02 0.  0.
         13    1    3    3    0    0 -0.12464248373E+03  0.89453232890E+02  0.34432218639E+02  0.15723615140E+03  0.00000000000E+00 0.  1.
        -13    1    3    3    0    0 -0.18264696270E+03  0.26733975702E+02 -0.27377080189E+02  0.18661222618E+03  0.00000000000E+00 0. -1.
          2    1    6    6  502    0  0.26057622982E+02 -0.56299350009E+01  0.83091138032E+01  0.27923775815E+02  0.00000000000E+00 0. -1.
          1    1    5    5  503    0 -0.39025734570E+02 -0.12054744520E+03 -0.36600780475E+02  0.13188749613E+03  0.00000000000E+00 0. -1.
         -2    1    5    5    0  503 -0.17602917143E+03 -0.18990882004E+03 -0.11446837765E+03  0.28311594552E+03  0.00000000000E+00 0.  1.
         -3    1    6    6    0  502  0.49628672946E+03  0.19989899166E+03 -0.85422387763E+02  0.54180910756E+03  0.00000000000E+00 0.  1.
<mgrwt>
<rscale>  0 0.13100534E+04</rscale>
<asrwt>0</asrwt>
<pdfrwt beam="1">  1        1 0.11920861E+00 0.13100534E+04</pdfrwt>
<pdfrwt beam="2">  1       -1 0.85189032E-01 0.13100534E+04</pdfrwt>
<totfact> 0.31137563E+01</totfact>
</mgrwt>
</event>
<event>
12    1  0.1980523E-007  0.1893641E+04  0.7818608E-02  0.8658028E-01
          1   -1    0    0  501    0  0.00000000000E+00  0.00000000000E+00  0.23269494063E+04  0.23269494063E+04  0.00000000000E+00 0. -1.
         -1   -1    0    0    0  501 -0.00000000000E+00 -0.00000000000E+00 -0.38525510163E+03  0.38525510163E+03  0.00000000000E+00 0.  1.
         23    2    1    2    0    0 -0.25747314189E+03 -0.67341204267E+03  0.59452974463E+03  0.93895446370E+03  0.91616972465E+02 0.  0.
        254    2    1    2    0    0  0.25747314189E+03  0.67341204267E+03  0.13471645601E+04  0.17732500443E+04  0.89988175311E+03 0.  0.
        -24    2    4    4    0    0 -0.12936659422E+03  0.39191430192E+03  0.11915618508E+04  0.12640978072E+04  0.88267128827E+02 0.  0.
         24    2    4    4    0    0  0.38683973611E+03  0.28149774075E+03  0.15560270924E+03  0.50915223708E+03  0.78344354736E+02 0.  0.
         13    1    3    3    0    0 -0.21528682805E+03 -0.48591710529E+03  0.47374409611E+03  0.71196721845E+03  0.00000000000E+00 0. -1.
        -13    1    3    3    0    0 -0.42186313847E+02 -0.18749493738E+03  0.12078564852E+03  0.22698724525E+03  0.00000000000E+00 0.  1.
          2    1    6    6  502    0  0.80059235484E+02  0.55630459281E+02  0.66202982046E+02  0.11784338767E+03  0.00000000000E+00 0. -1.
          3    1    5    5  503    0 -0.21766972502E+02  0.11845126230E+02  0.44596488172E+02  0.51019161739E+02  0.00000000000E+00 0. -1.
         -4    1    5    5    0  503 -0.10759962172E+03  0.38006917569E+03  0.11469653627E+04  0.12130786454E+04  0.00000000000E+00 0.  1.
         -1    1    6    6    0  502  0.30678050063E+03  0.22586728147E+03  0.89399727192E+02  0.39130884941E+03  0.00000000000E+00 0.  1.
<mgrwt>
<rscale>  0 0.18936411E+04</rscale>
<asrwt>0</asrwt>
<pdfrwt beam="1">  1        1 0.35799221E+00 0.18936411E+04</pdfrwt>
<pdfrwt beam="2">  1       -1 0.59270017E-01 0.18936411E+04</pdfrwt>
<totfact> 0.48200146E+00</totfact>
</mgrwt>
</event>
<event>
12    1  0.1980523E-007  0.3270580E+04  0.7818608E-02  0.8170422E-01
         -2   -1    0    0    0  501 -0.00000000000E+00  0.00000000000E+00  0.15352049988E+04  0.15352049988E+04  0.00000000000E+00 0. -1.
          2   -1    0    0  501    0  0.00000000000E+00 -0.00000000000E+00 -0.17418999875E+04  0.17418999875E+04  0.00000000000E+00 0.  1.
         23    2    1    2    0    0 -0.26649566225E+03 -0.14531082790E+04  0.21272496657E+03  0.14952918114E+04  0.90011563102E+02 0.  0.
        254    2    1    2    0    0  0.26649566225E+03  0.14531082790E+04 -0.41941995530E+03  0.17818131748E+04  0.90354938029E+03 0.  0.
        -24    2    4    4    0    0 -0.32296850318E+03  0.52427076488E+03 -0.68654855098E+02  0.62440953948E+03  0.77493837840E+02 0.  0.
         24    2    4    4    0    0  0.58946416544E+03  0.92883751410E+03 -0.35076510020E+03  0.11574036353E+04  0.79623424059E+02 0.  0.
         11    1    3    3    0    0 -0.19005374763E+03 -0.11981195924E+04  0.15568487312E+03  0.12230489624E+04  0.00000000000E+00 0.  1.
        -11    1    3    3    0    0 -0.76441914625E+02 -0.25498868661E+03  0.57040093448E+02  0.27224284908E+03  0.00000000000E+00 0. -1.
          2    1    6    6  502    0  0.49481820302E+03  0.76265507412E+03 -0.25903153095E+03  0.94529632927E+03  0.00000000000E+00 0. -1.
          3    1    5    5  503    0 -0.14535763288E+03  0.22578667871E+03 -0.68295750327E+02  0.27707900540E+03  0.00000000000E+00 0. -1.
         -4    1    5    5    0  503 -0.17761087031E+03  0.29848408617E+03 -0.35910477105E+00  0.34733053408E+03  0.00000000000E+00 0.  1.
         -1    1    6    6    0  502  0.94645962416E+02  0.16618243998E+03 -0.91733569253E+02  0.21210730607E+03  0.00000000000E+00 0.  1.
<mgrwt>
<rscale>  0 0.32705801E+04</rscale>
<asrwt>0</asrwt>
<pdfrwt beam="1">  1        2 0.26798461E+00 0.32705801E+04</pdfrwt>
<pdfrwt beam="2">  1       -2 0.23618539E+00 0.32705801E+04</pdfrwt>
<totfact> 0.60875285E-01</totfact>
</mgrwt>
</event>
<event>
12    1  0.1980523E-007  0.1682151E+04  0.7818608E-02  0.8771610E-01
          2   -1    0    0  501    0  0.00000000000E+00  0.00000000000E+00  0.10992851622E+04  0.10992851622E+04  0.00000000000E+00 0. -1.
         -2   -1    0    0    0  501 -0.00000000000E+00 -0.00000000000E+00 -0.64351650245E+03  0.64351650245E+03  0.00000000000E+00 0.  1.
         23    2    1    2    0    0 -0.23926786842E+03 -0.45923340438E+03  0.45875186729E+03  0.69797034940E+03  0.92546746816E+02 0.  0.
        254    2    1    2    0    0  0.23926786842E+03  0.45923340438E+03 -0.29832075600E+01  0.10448313152E+04  0.90747955634E+03 0.  0.
        -24    2    4    4    0    0  0.42902317836E+02 -0.22215116169E+03  0.18945235280E+03  0.30581914392E+03  0.80258378314E+02 0.  0.
         24    2    4    4    0    0  0.19636555058E+03  0.68138456608E+03 -0.19243556036E+03  0.73901217130E+03  0.79140306391E+02 0.  0.
         13    1    3    3    0    0 -0.23307808960E+03 -0.46173350530E+03  0.45865477731E+03  0.69129402610E+03  0.00000000000E+00 0. -1.
        -13    1    3    3    0    0 -0.61897788211E+01  0.25001009190E+01  0.97089983851E-01  0.66763233089E+01  0.00000000000E+00 0.  1.
          4    1    6    6  502    0  0.18726317983E+03  0.63567596926E+03 -0.15854534511E+03  0.68138686725E+03  0.00000000000E+00 0. -1.
          1    1    5    5  503    0  0.64547348714E+02 -0.14078159974E+03  0.13579641684E+03  0.20597690617E+03  0.00000000000E+00 0. -1.
         -2    1    5    5    0  503 -0.21645030879E+02 -0.81369561951E+02  0.53655935965E+02  0.99842237746E+02  0.00000000000E+00 0.  1.
         -3    1    6    6    0  502  0.91023707586E+01  0.45708596817E+02 -0.33890215254E+02  0.57625304046E+02  0.00000000000E+00 0.  1.
<mgrwt>
<rscale>  0 0.16821512E+04</rscale>
<asrwt>0</asrwt>
<pdfrwt beam="1">  1        2 0.16912079E+00 0.16821512E+04</pdfrwt>
<pdfrwt beam="2">  1       -2 0.99002539E-01 0.16821512E+04</pdfrwt>
<totfact> 0.17580310E+01</totfact>
</mgrwt>
</event>
<event>
12    1  0.1980523E-007  0.2852668E+04  0.7818608E-02  0.8287101E-01
          2   -1    0    0  501    0  0.00000000000E+00  0.00000000000E+00  0.16716645652E+04  0.16716645652E+04  0.00000000000E+00 0. -1.
         -2   -1    0    0    0  501 -0.00000000000E+00 -0.00000000000E+00 -0.12170075301E+04  0.12170075301E+04  0.00000000000E+00 0.  1.
         23    2    1    2    0    0 -0.89960823916E+03  0.83369819864E+03  0.59529505697E+03  0.13666506258E+04  0.94921323784E+02 0.  0.
        254    2    1    2    0    0  0.89960823916E+03 -0.83369819864E+03 -0.14063802186E+03  0.15220214696E+04  0.89018123454E+03 0.  0.
        -24    2    4    4    0    0  0.84642967854E+03 -0.85017793405E+03  0.15376987281E+03  0.12121280797E+04  0.79772098352E+02 0.  0.
         24    2    4    4    0    0  0.53178560621E+02  0.16479735417E+02 -0.29440789467E+03  0.30989338984E+03  0.79109820074E+02 0.  0.
         11    1    3    3    0    0 -0.40411654013E+03  0.39135031500E+03  0.32383931105E+03  0.64910488092E+03  0.00000000000E+00 0.  1.
        -11    1    3    3    0    0 -0.49549169902E+03  0.44234788364E+03  0.27145574593E+03  0.71754574485E+03  0.00000000000E+00 0. -1.
          2    1    6    6  502    0  0.63125770529E+02  0.35696417384E+01 -0.12876292242E+03  0.14344858116E+03  0.00000000000E+00 0. -1.
          3    1    5    5  503    0  0.54620030257E+03 -0.51729494623E+03  0.12818647655E+03  0.76312554975E+03  0.00000000000E+00 0. -1.
         -2    1    5    5    0  503  0.30022937597E+03 -0.33288298782E+03  0.25583396263E+02  0.44900252999E+03  0.00000000000E+00 0.  1.
         -1    1    6    6    0  502 -0.99472099082E+01  0.12910093678E+02 -0.16564497225E+03  0.16644480868E+03  0.00000000000E+00 0.  1.
<mgrwt>
<rscale>  0 0.28526678E+04</rscale>
<asrwt>0</asrwt>
<pdfrwt beam="1">  1        2 0.25717916E+00 0.28526678E+04</pdfrwt>
<pdfrwt beam="2">  1       -2 0.18723193E+00 0.28526678E+04</pdfrwt>
<totfact> 0.14259312E+00</totfact>
</mgrwt>
</event>
<event>
12    1  0.1980523E-007  0.2650385E+04  0.7818608E-02  0.8351285E-01
         -1   -1    0    0    0  501 -0.00000000000E+00  0.00000000000E+00  0.92271726353E+03  0.92271726353E+03  0.00000000000E+00 0.  1.
          1   -1    0    0  501    0  0.00000000000E+00 -0.00000000000E+00 -0.19032220113E+04  0.19032220113E+04  0.00000000000E+00 0. -1.
         23    2    1    2    0    0  0.10970509804E+04 -0.20621191544E+03 -0.81232303142E+03  0.13831855108E+04  0.85377058682E+02 0.  0.
        254    2    1    2    0    0 -0.10970509804E+04  0.20621191544E+03 -0.16818171631E+03  0.14427537640E+04  0.89844817674E+03 0.  0.
        -24    2    4    4    0    0 -0.18183366391E+03  0.11156745556E+03 -0.42613218756E+03  0.48307681310E+03  0.79144093956E+02 0.  0.
         24    2    4    4    0    0 -0.91521731649E+03  0.94644459881E+02  0.25795047125E+03  0.95967695094E+03  0.88662812760E+02 0.  0.
         13    1    3    3    0    0  0.53888520046E+03 -0.10845715467E+03 -0.45203606740E+03  0.71168589975E+03  0.00000000000E+00 0. -1.
        -13    1    3    3    0    0  0.55816577994E+03 -0.97754760767E+02 -0.36028696402E+03  0.67149961101E+03  0.00000000000E+00 0.  1.
          4    1    6    6  502    0 -0.61032921857E+03  0.10434049507E+03  0.18048085541E+03  0.64495118662E+03  0.00000000000E+00 0. -1.
          3    1    5    5  503    0 -0.70651352414E+02  0.12006228961E+02 -0.19695727806E+03  0.20958991510E+03  0.00000000000E+00 0. -1.
         -4    1    5    5    0  503 -0.11118231149E+03  0.99561226598E+02 -0.22917490950E+03  0.27348689799E+03  0.00000000000E+00 0.  1.
         -3    1    6    6    0  502 -0.30488809791E+03 -0.96960351916E+01  0.77469615842E+02  0.31472576432E+03  0.00000000000E+00 0.  1.
<mgrwt>
<rscale>  0 0.26503855E+04</rscale>
<asrwt>0</asrwt>
<pdfrwt beam="1">  1        1 0.29280338E+00 0.26503855E+04</pdfrwt>
<pdfrwt beam="2">  1       -1 0.14195651E+00 0.26503855E+04</pdfrwt>
<totfact> 0.12284597E+00</totfact>
</mgrwt>
</event>
<event>
12    1  0.1980523E-007  0.1466998E+04  0.7818608E-02  0.8906700E-01
         -2   -1    0    0    0  501 -0.00000000000E+00  0.00000000000E+00  0.88599193957E+03  0.88599193957E+03  0.00000000000E+00 0.  1.
          2   -1    0    0  501    0  0.00000000000E+00 -0.00000000000E+00 -0.60725251660E+03  0.60725251660E+03  0.00000000000E+00 0. -1.
         23    2    1    2    0    0 -0.26306621915E+03 -0.14886576373E+03 -0.25558331462E+03  0.40487834301E+03  0.85081082829E+02 0.  0.
        254    2    1    2    0    0  0.26306621915E+03  0.14886576373E+03  0.53432273759E+03  0.10883661132E+04  0.89870749251E+03 0.  0.
        -24    2    4    4    0    0 -0.42999120927E+02  0.32559015867E+03  0.62908175333E+03  0.71401063889E+03  0.78800153939E+02 0.  0.
         24    2    4    4    0    0  0.30606534008E+03 -0.17672439494E+03 -0.94759015735E+02  0.37435547426E+03  0.79090112429E+02 0.  0.
         13    1    3    3    0    0 -0.23140261017E+03 -0.97632334100E+02 -0.18409197760E+03  0.31139861411E+03  0.00000000000E+00 0.  1.
        -13    1    3    3    0    0 -0.31663608986E+02 -0.51233429635E+02 -0.71491337023E+02  0.93479728901E+02  0.00000000000E+00 0. -1.
          4    1    6    6  502    0  0.18778872336E+03 -0.87131469759E+02 -0.19368011826E+02  0.20792214294E+03  0.00000000000E+00 0. -1.
          1    1    5    5  503    0 -0.27861696710E+02  0.31000917735E+02  0.98260253175E+02  0.10673522567E+03  0.00000000000E+00 0. -1.
         -2    1    5    5    0  503 -0.15137424216E+02  0.29458924094E+03  0.53082150015E+03  0.60727541323E+03  0.00000000000E+00 0.  1.
         -3    1    6    6    0  502  0.11827661672E+03 -0.89592925178E+02 -0.75391003909E+02  0.16643333133E+03  0.00000000000E+00 0.  1.
<mgrwt>
<rscale>  0 0.14669981E+04</rscale>
<asrwt>0</asrwt>
<pdfrwt beam="1">  1        2 0.93423464E-01 0.14669981E+04</pdfrwt>
<pdfrwt beam="2">  1       -2 0.13630645E+00 0.14669981E+04</pdfrwt>
<totfact> 0.18212407E+01</totfact>
</mgrwt>
</event>
<event>
12    1  0.1980523E-007  0.5010499E+04  0.7818608E-02  0.7826890E-01
          1   -1    0    0  501    0  0.00000000000E+00  0.00000000000E+00  0.19859335591E+04  0.19859335591E+04  0.00000000000E+00 0. -1.
         -1   -1    0    0    0  501 -0.00000000000E+00 -0.00000000000E+00 -0.31603647118E+04  0.31603647118E+04  0.00000000000E+00 0.  1.
         23    2    1    2    0    0 -0.19707647923E+04  0.73752683207E+03 -0.18041218816E+04  0.27731245602E+04  0.86627755322E+02 0.  0.
        254    2    1    2    0    0  0.19707647923E+04 -0.73752683207E+03  0.62969072887E+03  0.23731737107E+04  0.89865641499E+03 0.  0.
        -24    2    4    4    0    0  0.61431123821E+03  0.16415464446E+03  0.51515839199E+02  0.64294239246E+03  0.79974956404E+02 0.  0.
         24    2    4    4    0    0  0.13564535541E+04 -0.90168147653E+03  0.57817488967E+03  0.17302313182E+04  0.80115428001E+02 0.  0.
         11    1    3    3    0    0 -0.12025024202E+04  0.40556514187E+03 -0.10766375655E+04  0.16642246249E+04  0.00000000000E+00 0.  1.
        -11    1    3    3    0    0 -0.76826237213E+03  0.33196169020E+03 -0.72748431612E+03  0.11088999352E+04  0.00000000000E+00 0. -1.
          4    1    6    6  502    0  0.10334136638E+04 -0.72286662116E+03  0.46320792595E+03  0.13435183419E+04  0.00000000000E+00 0. -1.
          1    1    5    5  503    0  0.30877260290E+03  0.49196679122E+02  0.14124949321E+01  0.31267047939E+03  0.00000000000E+00 0. -1.
         -2    1    5    5    0  503  0.30553863530E+03  0.11495796533E+03  0.50103344267E+02  0.33027191307E+03  0.00000000000E+00 0.  1.
         -3    1    6    6    0  502  0.32303989035E+03 -0.17881485537E+03  0.11496696372E+03  0.38671297625E+03  0.00000000000E+00 0.  1.
<mgrwt>
<rscale>  0 0.50104987E+04</rscale>
<asrwt>0</asrwt>
<pdfrwt beam="1">  1        1 0.30552824E+00 0.50104987E+04</pdfrwt>
<pdfrwt beam="2">  1       -1 0.48620995E+00 0.50104987E+04</pdfrwt>
<totfact> 0.40527580E-03</totfact>
</mgrwt>
</event>
<event>
12    1  0.1980523E-007  0.1644525E+04  0.7818608E-02  0.8793652E-01
          2   -1    0    0  501    0  0.00000000000E+00  0.00000000000E+00  0.12622773286E+04  0.12622773286E+04  0.00000000000E+00 0. -1.
         -2   -1    0    0    0  501 -0.00000000000E+00 -0.00000000000E+00 -0.53563160023E+03  0.53563160023E+03  0.00000000000E+00 0.  1.
         23    2    1    2    0    0 -0.52516796444E+03 -0.21796108092E+03  0.22744301356E+03  0.61925359271E+03  0.91849137152E+02 0.  0.
        254    2    1    2    0    0  0.52516796444E+03  0.21796108092E+03  0.49920271484E+03  0.11786553361E+04  0.90372375604E+03 0.  0.
        -24    2    4    4    0    0  0.46009355475E+03  0.51255066747E+02 -0.15562639309E+03  0.49518127139E+03  0.81680819794E+02 0.  0.
         24    2    4    4    0    0  0.65074409695E+02  0.16670601417E+03  0.65482910792E+03  0.68347406475E+03  0.79435902703E+02 0.  0.
         11    1    3    3    0    0 -0.33134746807E+03 -0.97064946195E+02  0.10982902858E+03  0.36231914646E+03  0.00000000000E+00 0. -1.
        -11    1    3    3    0    0 -0.19382049638E+03 -0.12089613472E+03  0.11761398498E+03  0.25693444625E+03  0.00000000000E+00 0.  1.
          2    1    6    6  502    0 -0.33018142171E+01  0.59548997443E+02  0.12343700016E+03  0.13709003641E+03  0.00000000000E+00 0. -1.
          3    1    5    5  503    0  0.14338029029E+03  0.63606726187E+00 -0.12385447188E+02  0.14391564032E+03  0.00000000000E+00 0. -1.
         -4    1    5    5    0  503  0.31671326446E+03  0.50618999485E+02 -0.14324094590E+03  0.35126563107E+03  0.00000000000E+00 0.  1.
         -1    1    6    6    0  502  0.68376223913E+02  0.10715701673E+03  0.53139210776E+03  0.54638402834E+03  0.00000000000E+00 0.  1.
<mgrwt>
<rscale>  0 0.16445250E+04</rscale>
<asrwt>0</asrwt>
<pdfrwt beam="1">  1        2 0.19419651E+00 0.16445250E+04</pdfrwt>
<pdfrwt beam="2">  1       -2 0.82404862E-01 0.16445250E+04</pdfrwt>
<totfact> 0.21494675E+01</totfact>
</mgrwt>
</event>
<event>
12    1  0.1980523E-007  0.3349291E+04  0.7818608E-02  0.8150465E-01
         -1   -1    0    0    0  501 -0.00000000000E+00  0.00000000000E+00  0.88973837111E+03  0.88973837111E+03  0.00000000000E+00 0. -1.
          1   -1    0    0  501    0  0.00000000000E+00 -0.00000000000E+00 -0.31519803562E+04  0.31519803562E+04  0.00000000000E+00 0.  1.
         23    2    1    2    0    0  0.13827769093E+04 -0.32098882448E+03 -0.18085854763E+04  0.23012629124E+04  0.98609128709E+02 0.  0.
        254    2    1    2    0    0 -0.13827769093E+04  0.32098882448E+03 -0.45365650876E+03  0.17404558149E+04  0.89904193967E+03 0.  0.
        -24    2    4    4    0    0  0.10709535104E+03  0.96467186324E+02  0.14355157171E+01  0.16444690146E+03  0.79154219375E+02 0.  0.
         24    2    4    4    0    0 -0.14898722604E+04  0.22452163816E+03 -0.45509202447E+03  0.15760089135E+04  0.81031020615E+02 0.  0.
         13    1    3    3    0    0  0.13507318721E+03 -0.19019966085E+02 -0.13368734131E+03  0.19099431992E+03  0.00000000000E+00 0. -1.
        -13    1    3    3    0    0  0.12477037221E+04 -0.30196885840E+03 -0.16748981350E+04  0.21102685925E+04  0.00000000000E+00 0.  1.
          2    1    6    6  502    0 -0.14472127396E+04  0.23154619683E+03 -0.44338139871E+03  0.15312169734E+04  0.00000000000E+00 0. -1.
          3    1    5    5  503    0  0.57869229280E+02  0.97619532502E+01  0.21943379265E+02  0.62655050253E+02  0.00000000000E+00 0. -1.
         -4    1    5    5    0  503  0.49226121756E+02  0.86705233074E+02 -0.20507863548E+02  0.10179185121E+03  0.00000000000E+00 0.  1.
         -1    1    6    6    0  502 -0.42659520738E+02 -0.70245586684E+01 -0.11710625765E+02  0.44791940010E+02  0.00000000000E+00 0.  1.
<mgrwt>
<rscale>  0 0.33492912E+04</rscale>
<asrwt>0</asrwt>
<pdfrwt beam="1">  1        1 0.48492005E+00 0.33492912E+04</pdfrwt>
<pdfrwt beam="2">  1       -1 0.13688283E+00 0.33492912E+04</pdfrwt>
<totfact> 0.16940010E-01</totfact>
</mgrwt>
</event>
<event>
12    1  0.1980523E-007  0.1804876E+04  0.7818608E-02  0.8703711E-01
          1   -1    0    0  501    0  0.00000000000E+00  0.00000000000E+00  0.11108761665E+04  0.11108761665E+04  0.00000000000E+00 0. -1.
         -1   -1    0    0    0  501 -0.00000000000E+00 -0.00000000000E+00 -0.73310989454E+03  0.73310989454E+03  0.00000000000E+00 0.  1.
         23    2    1    2    0    0 -0.52323095742E+03 -0.31702086073E+03 -0.14630153854E+03  0.63563649110E+03  0.91415248719E+02 0.  0.
        254    2    1    2    0    0  0.52323095742E+03  0.31702086073E+03  0.52406781052E+03  0.12083495700E+04  0.90066017581E+03 0.  0.
        -24    2    4    4    0    0  0.52176640380E+03 -0.10354697770E+03  0.82729226293E+01  0.53822465460E+03  0.81579291774E+02 0.  0.
         24    2    4    4    0    0  0.14645536189E+01  0.42056783843E+03  0.51579488789E+03  0.67012491537E+03  0.78381019326E+02 0.  0.
         11    1    3    3    0    0 -0.14795723219E+02  0.45271031719E+01  0.31025602715E+01  0.15780810148E+02  0.00000000000E+00 0. -1.
        -11    1    3    3    0    0 -0.50843523420E+03 -0.32154796390E+03 -0.14940409881E+03  0.61985568095E+03  0.00000000000E+00 0.  1.
          4    1    6    6  502    0  0.73401624303E+01  0.30247117830E+03  0.31268001853E+03  0.43509939747E+03  0.00000000000E+00 0. -1.
          3    1    5    5  503    0  0.22796882733E+03 -0.85826188577E+02  0.11745261348E+02  0.24387265538E+03  0.00000000000E+00 0. -1.
         -4    1    5    5    0  503  0.29379757647E+03 -0.17720789121E+02 -0.34723387183E+01  0.29435199922E+03  0.00000000000E+00 0.  1.
         -3    1    6    6    0  502 -0.58756088114E+01  0.11809666013E+03  0.20311486935E+03  0.23502551790E+03  0.00000000000E+00 0.  1.
<mgrwt>
<rscale>  0 0.18048760E+04</rscale>
<asrwt>0</asrwt>
<pdfrwt beam="1">  1        1 0.17090403E+00 0.18048760E+04</pdfrwt>
<pdfrwt beam="2">  1       -1 0.11278614E+00 0.18048760E+04</pdfrwt>
<totfact> 0.84403799E+00</totfact>
</mgrwt>
</event>
<event>
12    1  0.1980523E-007  0.2579612E+04  0.7818608E-02  0.8375160E-01
          2   -1    0    0  501    0  0.00000000000E+00  0.00000000000E+00  0.31844211239E+04  0.31844211239E+04  0.00000000000E+00 0. -1.
         -2   -1    0    0    0  501 -0.00000000000E+00 -0.00000000000E+00 -0.52241801290E+03  0.52241801290E+03  0.00000000000E+00 0.  1.
         23    2    1    2    0    0  0.82890939609E+03  0.74168762602E+03  0.87836782983E+03  0.14201149861E+04  0.89471827251E+02 0.  0.
        254    2    1    2    0    0 -0.82890939609E+03 -0.74168762602E+03  0.17836352812E+04  0.22867241507E+04  0.90031172570E+03 0.  0.
        -24    2    4    4    0    0 -0.26115701408E+03 -0.78453242593E+03  0.12553867923E+04  0.15053007379E+04  0.78994936643E+02 0.  0.
         24    2    4    4    0    0 -0.56775238202E+03  0.42844799906E+02  0.52824848892E+03  0.78142341276E+03  0.86009533190E+02 0.  0.
         11    1    3    3    0    0  0.18405993014E+03  0.17376870549E+03  0.15434345461E+03  0.29647179102E+03  0.00000000000E+00 0. -1.
        -11    1    3    3    0    0  0.64484946596E+03  0.56791892053E+03  0.72402437521E+03  0.11236431951E+04  0.00000000000E+00 0.  1.
          4    1    6    6  502    0 -0.44482238971E+03  0.37055446608E+02  0.36270943094E+03  0.57515058533E+03  0.00000000000E+00 0. -1.
          1    1    5    5  503    0 -0.18196339834E+01 -0.11755083414E+02  0.41137122985E+02  0.42822376644E+02  0.00000000000E+00 0. -1.
         -2    1    5    5    0  503 -0.25933738009E+03 -0.77277734252E+03  0.12142496693E+04  0.14624783613E+04  0.00000000000E+00 0.  1.
         -3    1    6    6    0  502 -0.12292999231E+03  0.57893532976E+01  0.16553905798E+03  0.20627282743E+03  0.00000000000E+00 0.  1.
<mgrwt>
<rscale>  0 0.25796116E+04</rscale>
<asrwt>0</asrwt>
<pdfrwt beam="1">  1        2 0.48991093E+00 0.25796116E+04</pdfrwt>
<pdfrwt beam="2">  1       -2 0.80372004E-01 0.25796116E+04</pdfrwt>
<totfact> 0.16092529E+00</totfact>
</mgrwt>
</event>
<event>
12    1  0.1980523E-007  0.4070557E+04  0.7818608E-02  0.7990462E-01
         -3   -1    0    0    0  501 -0.00000000000E+00  0.00000000000E+00  0.26702191321E+04  0.26702191321E+04  0.00000000000E+00 0.  1.
          3   -1    0    0  501    0  0.00000000000E+00 -0.00000000000E+00 -0.15513174658E+04  0.15513174658E+04  0.00000000000E+00 0. -1.
         23    2    1    2    0    0 -0.15832203428E+04  0.60862434659E+03  0.14976113738E+04  0.22646963972E+04  0.94866722435E+02 0.  0.
        254    2    1    2    0    0  0.15832203428E+04 -0.60862434659E+03 -0.37870970751E+03  0.19568402008E+04  0.89932879401E+03 0.  0.
        -24    2    4    4    0    0  0.30143610508E+03 -0.55236496589E+03 -0.12191120803E+03  0.64593949869E+03  0.80029446706E+02 0.  0.
         24    2    4    4    0    0  0.12817842378E+04 -0.56259380703E+02 -0.25679849948E+03  0.13109007021E+04  0.79870090866E+02 0.  0.
         11    1    3    3    0    0 -0.75833238702E+03  0.34222470798E+03  0.73743416358E+03  0.11117530776E+04  0.00000000000E+00 0. -1.
        -11    1    3    3    0    0 -0.82488795582E+03  0.26639963860E+03  0.76017721025E+03  0.11529433195E+04  0.00000000000E+00 0.  1.
          2    1    6    6  502    0  0.51493091271E+03 -0.56869381025E+02 -0.12298522606E+03  0.53245970476E+03  0.00000000000E+00 0. -1.
          3    1    5    5  503    0 -0.21255638350E+01 -0.30658280878E+02 -0.54563087302E+01  0.31212489696E+02  0.00000000000E+00 0. -1.
         -4    1    5    5    0  503  0.30356166891E+03 -0.52170668501E+03 -0.11645489930E+03  0.61472700899E+03  0.00000000000E+00 0.  1.
         -1    1    6    6    0  502  0.76685332505E+03  0.61000032230E+00 -0.13381327342E+03  0.77844099737E+03  0.00000000000E+00 0.  1.
<mgrwt>
<rscale>  0 0.40705565E+04</rscale>
<asrwt>0</asrwt>
<pdfrwt beam="1">  1        3 0.23866423E+00 0.40705565E+04</pdfrwt>
<pdfrwt beam="2">  1       -3 0.41080294E+00 0.40705565E+04</pdfrwt>
<totfact> 0.15998881E-03</totfact>
</mgrwt>
</event>
<event>
12    1  0.1980523E-007  0.4566941E+04  0.7818608E-02  0.7899021E-01
         -2   -1    0    0    0  501 -0.00000000000E+00  0.00000000000E+00  0.22984614478E+04  0.22984614478E+04  0.00000000000E+00 0.  1.
          2   -1    0    0  501    0  0.00000000000E+00 -0.00000000000E+00 -0.22685770237E+04  0.22685770237E+04  0.00000000000E+00 0. -1.
         23    2    1    2    0    0 -0.19966660143E+04 -0.84963486198E+03  0.32859378502E+03  0.21965881421E+04  0.92038139650E+02 0.  0.
        254    2    1    2    0    0  0.19966660143E+04  0.84963486198E+03 -0.29870936086E+03  0.23704503294E+04  0.90623005405E+03 0.  0.
        -24    2    4    4    0    0  0.71562922165E+03  0.78117890012E+03 -0.20076534516E+03  0.10813303614E+04  0.81258659915E+02 0.  0.
         24    2    4    4    0    0  0.12810367926E+04  0.68455961860E+02 -0.97944015704E+02  0.12891199680E+04  0.80596395849E+02 0.  0.
         11    1    3    3    0    0 -0.13393594007E+04 -0.53607533062E+03  0.24895534702E+03  0.14639805768E+04  0.00000000000E+00 0.  1.
        -11    1    3    3    0    0 -0.65730661355E+03 -0.31355953136E+03  0.79638438003E+02  0.73260756530E+03  0.00000000000E+00 0. -1.
          2    1    6    6  502    0  0.20449756680E+03 -0.15896148519E+02 -0.28020830871E+02  0.20701958682E+03  0.00000000000E+00 0. -1.
          3    1    5    5  503    0  0.71651510777E+02  0.50249239509E+02 -0.28709400456E+02  0.92104043030E+02  0.00000000000E+00 0. -1.
         -4    1    5    5    0  503  0.64397771087E+03  0.73092966061E+03 -0.17205594470E+03  0.98922631838E+03  0.00000000000E+00 0.  1.
         -1    1    6    6    0  502  0.10765392258E+04  0.84352110379E+02 -0.69923184834E+02  0.10821003812E+04  0.00000000000E+00 0.  1.
<mgrwt>
<rscale>  0 0.45669407E+04</rscale>
<asrwt>0</asrwt>
<pdfrwt beam="1">  1        2 0.34901185E+00 0.45669407E+04</pdfrwt>
<pdfrwt beam="2">  1       -2 0.35360945E+00 0.45669407E+04</pdfrwt>
<totfact> 0.52550967E-02</totfact>
</mgrwt>
</event>
<event>
12    1  0.1980523E-007  0.2526333E+04  0.7818608E-02  0.8393664E-01
          1   -1    0    0  501    0  0.00000000000E+00  0.00000000000E+00  0.13395962543E+04  0.13395962543E+04  0.00000000000E+00 0. -1.
         -1   -1    0    0    0  501 -0.00000000000E+00 -0.00000000000E+00 -0.11910975795E+04  0.11910975795E+04  0.00000000000E+00 0.  1.
         23    2    1    2    0    0  0.88664842338E+03 -0.65034062359E+03  0.85653871258E+02  0.11072965842E+04  0.98390987095E+02 0.  0.
        254    2    1    2    0    0 -0.88664842338E+03  0.65034062359E+03  0.62844803549E+02  0.14233972496E+04  0.90167727460E+03 0.  0.
        -24    2    4    4    0    0 -0.57883670849E+03  0.86074116261E+03  0.27380190163E+02  0.10407113533E+04  0.80019759623E+02 0.  0.
         24    2    4    4    0    0 -0.30781171489E+03 -0.21040053901E+03  0.35464613387E+02  0.38268589635E+03  0.78576827486E+02 0.  0.
         11    1    3    3    0    0  0.24682502211E+03 -0.13436281255E+03  0.13345786902E+01  0.28102978140E+03  0.00000000000E+00 0.  1.
        -11    1    3    3    0    0  0.63982340127E+03 -0.51597781105E+03  0.84319292567E+02  0.82626680280E+03  0.00000000000E+00 0. -1.
          2    1    6    6  502    0 -0.19802211268E+03 -0.16460024739E+03  0.51654922745E+02  0.26262945302E+03  0.00000000000E+00 0. -1.
          3    1    5    5  503    0 -0.16250507506E+03  0.22315915309E+03 -0.26539579083E+02  0.27733059025E+03  0.00000000000E+00 0. -1.
         -4    1    5    5    0  503 -0.41633163342E+03  0.63758200952E+03  0.53919769246E+02  0.76338076303E+03  0.00000000000E+00 0.  1.
         -1    1    6    6    0  502 -0.10978960221E+03 -0.45800291627E+02 -0.16190309359E+02  0.12005644333E+03  0.00000000000E+00 0.  1.
<mgrwt>
<rscale>  0 0.25263332E+04</rscale>
<asrwt>0</asrwt>
<pdfrwt beam="1">  1        1 0.20609173E+00 0.25263332E+04</pdfrwt>
<pdfrwt beam="2">  1       -1 0.18324578E+00 0.25263332E+04</pdfrwt>
<totfact> 0.14821778E+00</totfact>
</mgrwt>
</event>
<event>
12    1  0.1980523E-007  0.1274631E+04  0.7818608E-02  0.9049928E-01
          2   -1    0    0  501    0  0.00000000000E+00  0.00000000000E+00  0.97434725317E+03  0.97434725317E+03  0.00000000000E+00 0. -1.
         -2   -1    0    0    0  501 -0.00000000000E+00 -0.00000000000E+00 -0.41686504604E+03  0.41686504604E+03  0.00000000000E+00 0.  1.
         23    2    1    2    0    0  0.30768147506E+03 -0.34759301349E+02  0.20007517080E+03  0.37728332613E+03  0.80228019295E+02 0.  0.
        254    2    1    2    0    0 -0.30768147506E+03  0.34759301349E+02  0.35740703632E+03  0.10139289731E+04  0.89690360336E+03 0.  0.
        -24    2    4    4    0    0  0.27416285937E+03  0.14833229397E+03  0.24785391793E+03  0.40602035552E+03  0.79077313909E+02 0.  0.
         24    2    4    4    0    0 -0.58184433443E+03 -0.11357299262E+03  0.10955311840E+03  0.60790861756E+03  0.78162314375E+02 0.  0.
         13    1    3    3    0    0  0.17976974322E+03 -0.59817050135E+02  0.11493082759E+03  0.22159498007E+03  0.00000000000E+00 0.  1.
        -13    1    3    3    0    0  0.12791173184E+03  0.25057748786E+02  0.85144343213E+02  0.15568834606E+03  0.00000000000E+00 0. -1.
          2    1    6    6  502    0 -0.15770807585E+03 -0.64601515796E+02  0.43338749418E+02  0.17585061909E+03  0.00000000000E+00 0. -1.
          3    1    5    5  503    0  0.10820435269E+03  0.37066524210E+02  0.13353284146E+03  0.17582129822E+03  0.00000000000E+00 0. -1.
         -4    1    5    5    0  503  0.16595850669E+03  0.11126576976E+03  0.11432107646E+03  0.23019905731E+03  0.00000000000E+00 0.  1.
         -1    1    6    6    0  502 -0.42413625858E+03 -0.48971476824E+02  0.66214368980E+02  0.43205799847E+03  0.00000000000E+00 0.  1.
<mgrwt>
<rscale>  0 0.12746314E+04</rscale>
<asrwt>0</asrwt>
<pdfrwt beam="1">  1        2 0.14989958E+00 0.12746314E+04</pdfrwt>
<pdfrwt beam="2">  1       -2 0.64133084E-01 0.12746314E+04</pdfrwt>
<totfact> 0.57752965E+01</totfact>
</mgrwt>
</event>
<event>
12    1  0.1980523E-007  0.1396518E+04  0.7818608E-02  0.8956343E-01
          2   -1    0    0  501    0  0.00000000000E+00  0.00000000000E+00  0.42942530462E+03  0.42942530462E+03  0.00000000000E+00 0. -1.
         -2   -1    0    0    0  501 -0.00000000000E+00 -0.00000000000E+00 -0.11353909225E+04  0.11353909225E+04  0.00000000000E+00 0.  1.
         23    2    1    2    0    0 -0.14883152404E+02  0.34624981658E+02 -0.65534389126E+03  0.66292912209E+03  0.92622931952E+02 0.  0.
        254    2    1    2    0    0  0.14883152404E+02 -0.34624981658E+02 -0.50621726663E+02  0.90188710508E+03  0.89967627151E+03 0.  0.
        -24    2    4    4    0    0 -0.12666114799E+02  0.25069153327E+03 -0.37767323864E+03  0.45991162758E+03  0.76648252969E+02 0.  0.
         24    2    4    4    0    0  0.27549267204E+02 -0.28531651493E+03  0.32705151197E+03  0.44197547750E+03  0.78836256965E+02 0.  0.
         11    1    3    3    0    0 -0.28557171549E+02  0.45579846663E+02 -0.19585830719E+03  0.20310960333E+03  0.00000000000E+00 0. -1.
        -11    1    3    3    0    0  0.13674019145E+02 -0.10954865005E+02 -0.45948558406E+03  0.45981951876E+03  0.00000000000E+00 0.  1.
          4    1    6    6  502    0  0.47222481552E+02 -0.10790004705E+03  0.11248950010E+03  0.16286887532E+03  0.00000000000E+00 0. -1.
          3    1    5    5  503    0  0.43809089808E+01 -0.11517830656E+00  0.17898316412E+01  0.47338279272E+01  0.00000000000E+00 0. -1.
         -4    1    5    5    0  503 -0.17047023780E+02  0.25080671158E+03 -0.37946307028E+03  0.45517779965E+03  0.00000000000E+00 0.  1.
         -3    1    6    6    0  502 -0.19673214348E+02 -0.17741646788E+03  0.21456201188E+03  0.27910660218E+03  0.00000000000E+00 0.  1.
<mgrwt>
<rscale>  0 0.13965179E+04</rscale>
<asrwt>0</asrwt>
<pdfrwt beam="1">  1        2 0.66065431E-01 0.13965179E+04</pdfrwt>
<pdfrwt beam="2">  1       -2 0.17467553E+00 0.13965179E+04</pdfrwt>
<totfact> 0.14091161E+01</totfact>
</mgrwt>
</event>
<event>
12    1  0.1980523E-007  0.2210754E+04  0.7818608E-02  0.8513965E-01
          2   -1    0    0  501    0  0.00000000000E+00  0.00000000000E+00  0.15568051757E+04  0.15568051757E+04  0.00000000000E+00 0.  1.
         -2   -1    0    0    0  501 -0.00000000000E+00 -0.00000000000E+00 -0.78484973811E+03  0.78484973811E+03  0.00000000000E+00 0. -1.
         23    2    1    2    0    0  0.15555946123E+03  0.80225257866E+03  0.76833770754E+03  0.11253397494E+04  0.90767685468E+02 0.  0.
        254    2    1    2    0    0 -0.15555946123E+03 -0.80225257866E+03  0.36177300665E+01  0.12163151645E+04  0.90088930806E+03 0.  0.
        -24    2    4    4    0    0 -0.27433948724E+03 -0.77609648300E+03  0.30517131124E+03  0.88167529395E+03  0.81448692865E+02 0.  0.
         24    2    4    4    0    0  0.11878002601E+03 -0.26156095665E+02 -0.30155358117E+03  0.33463987051E+03  0.79097690868E+02 0.  0.
         11    1    3    3    0    0  0.24112331330E+02  0.35645607428E+03  0.34556098312E+03  0.49704600438E+03  0.00000000000E+00 0. -1.
        -11    1    3    3    0    0  0.13144712990E+03  0.44579650439E+03  0.42277672442E+03  0.62829374499E+03  0.00000000000E+00 0.  1.
          2    1    6    6  502    0  0.98986983448E+02  0.82452996373E-01 -0.27536165838E+03  0.29261317912E+03  0.00000000000E+00 0. -1.
          3    1    5    5  503    0 -0.80146923082E+02 -0.25559738184E+03  0.60377636867E+02  0.27458880152E+03  0.00000000000E+00 0. -1.
         -4    1    5    5    0  503 -0.19419256416E+03 -0.52049910116E+03  0.24479367437E+03  0.60708649243E+03  0.00000000000E+00 0.  1.
         -1    1    6    6    0  502  0.19793042562E+02 -0.26238548662E+02 -0.26191922791E+02  0.42026691391E+02  0.00000000000E+00 0.  1.
<mgrwt>
<rscale>  0 0.22107538E+04</rscale>
<asrwt>0</asrwt>
<pdfrwt beam="1">  1        2 0.23950849E+00 0.22107538E+04</pdfrwt>
<pdfrwt beam="2">  1       -2 0.12074611E+00 0.22107538E+04</pdfrwt>
<totfact> 0.56314869E+00</totfact>
</mgrwt>
</event>
<event>
12    1  0.1980523E-007  0.1799346E+04  0.7818608E-02  0.8706647E-01
         -2   -1    0    0    0  501 -0.00000000000E+00  0.00000000000E+00  0.51800778836E+03  0.51800778836E+03  0.00000000000E+00 0.  1.
          2   -1    0    0  501    0  0.00000000000E+00 -0.00000000000E+00 -0.15625477304E+04  0.15625477304E+04  0.00000000000E+00 0. -1.
         23    2    1    2    0    0  0.50692694393E+03  0.15052849048E+03  0.86566175558E+02  0.54382416391E+03  0.92829227974E+02 0.  0.
        254    2    1    2    0    0 -0.50692694393E+03 -0.15052849048E+03 -0.11311061176E+04  0.15367313548E+04  0.89582836234E+03 0.  0.
        -24    2    4    4    0    0 -0.20276256836E+03 -0.39766973855E+03 -0.10273976710E+04  0.11233684779E+04  0.84598360680E+02 0.  0.
         24    2    4    4    0    0 -0.30416437558E+03  0.24714124807E+03 -0.10370844653E+03  0.41336287691E+03  0.80738232967E+02 0.  0.
         11    1    3    3    0    0  0.99868237084E+02  0.20793185899E+02 -0.18947483801E+02  0.10375465532E+03  0.00000000000E+00 0. -1.
        -11    1    3    3    0    0  0.40705870685E+03  0.12973530458E+03  0.10551365936E+03  0.44006950859E+03  0.00000000000E+00 0.  1.
          4    1    6    6  502    0 -0.15202216987E+03  0.11389435949E+03 -0.93310958792E+01  0.19018342359E+03  0.00000000000E+00 0. -1.
          1    1    5    5  503    0 -0.10736360926E+03 -0.24183838341E+03 -0.70154469597E+03  0.74978510836E+03  0.00000000000E+00 0. -1.
         -2    1    5    5    0  503 -0.95398959093E+02 -0.15583135514E+03 -0.32585297506E+03  0.37358336954E+03  0.00000000000E+00 0.  1.
         -3    1    6    6    0  502 -0.15214220570E+03  0.13324688858E+03 -0.94377350650E+02  0.22317945333E+03  0.00000000000E+00 0.  1.
<mgrwt>
<rscale>  0 0.17993464E+04</rscale>
<asrwt>0</asrwt>
<pdfrwt beam="1">  1        2 0.24039196E+00 0.17993464E+04</pdfrwt>
<pdfrwt beam="2">  1       -2 0.79693505E-01 0.17993464E+04</pdfrwt>
<totfact> 0.15406957E+01</totfact>
</mgrwt>
</event>
<event>
12    1  0.1980523E-007  0.2374354E+04  0.7818608E-02  0.8449168E-01
          2   -1    0    0  501    0  0.00000000000E+00  0.00000000000E+00  0.15469066661E+04  0.15469066661E+04  0.00000000000E+00 0. -1.
         -2   -1    0    0    0  501 -0.00000000000E+00 -0.00000000000E+00 -0.91110167822E+03  0.91110167822E+03  0.00000000000E+00 0.  1.
         23    2    1    2    0    0  0.87171353314E+02 -0.10075400790E+04  0.33725403950E+03  0.10702042603E+04  0.94132968978E+02 0.  0.
        254    2    1    2    0    0 -0.87171353314E+02  0.10075400790E+04  0.29855094834E+03  0.13878040840E+04  0.90229244212E+03 0.  0.
        -24    2    4    4    0    0 -0.20252630554E+03  0.98181822423E+03 -0.55214208130E+02  0.10067546779E+04  0.74313140013E+02 0.  0.
         24    2    4    4    0    0  0.11535495223E+03  0.25721854818E+02  0.35376515647E+03  0.38104940613E+03  0.77977465752E+02 0.  0.
         13    1    3    3    0    0 -0.47275287984E+01 -0.42387665327E+03  0.16337769359E+03  0.45429730076E+03  0.00000000000E+00 0. -1.
        -13    1    3    3    0    0  0.91898882112E+02 -0.58366342577E+03  0.17387634591E+03  0.61590695952E+03  0.00000000000E+00 0.  1.
          4    1    6    6  502    0  0.27141176889E+02 -0.26449898579E+02  0.74773217526E+02  0.83828841558E+02  0.00000000000E+00 0. -1.
          1    1    5    5  503    0 -0.38984964948E+02  0.10750856322E+03 -0.23303521305E+02  0.11670892323E+03  0.00000000000E+00 0. -1.
         -2    1    5    5    0  503 -0.16354134059E+03  0.87430966101E+03 -0.31910686825E+02  0.89004575464E+03  0.00000000000E+00 0.  1.
         -3    1    6    6    0  502  0.88213775340E+02  0.52171753397E+02  0.27899193894E+03  0.29722056457E+03  0.00000000000E+00 0.  1.
<mgrwt>
<rscale>  0 0.23743540E+04</rscale>
<asrwt>0</asrwt>
<pdfrwt beam="1">  1        2 0.23798564E+00 0.23743540E+04</pdfrwt>
<pdfrwt beam="2">  1       -2 0.14016949E+00 0.23743540E+04</pdfrwt>
<totfact> 0.38541173E+00</totfact>
</mgrwt>
</event>
<event>
12    1  0.1980523E-007  0.1293468E+04  0.7818608E-02  0.9034761E-01
          1   -1    0    0  501    0  0.00000000000E+00  0.00000000000E+00  0.16654861064E+04  0.16654861064E+04  0.00000000000E+00 0. -1.
         -1   -1    0    0    0  501 -0.00000000000E+00 -0.00000000000E+00 -0.25113675096E+03  0.25113675096E+03  0.00000000000E+00 0.  1.
         23    2    1    2    0    0  0.17230399087E+03 -0.27458249773E+03  0.35534545150E+03  0.49000382289E+03  0.93536854837E+02 0.  0.
        254    2    1    2    0    0 -0.17230399087E+03  0.27458249773E+03  0.10590039039E+04  0.14266190345E+04  0.89925991105E+03 0.  0.
        -24    2    4    4    0    0 -0.12264224627E+03 -0.30722527378E+03  0.55543623670E+03  0.65133095490E+03  0.79335429321E+02 0.  0.
         24    2    4    4    0    0 -0.49661744599E+02  0.58180777151E+03  0.50356766722E+03  0.77528807956E+03  0.80775237366E+02 0.  0.
         11    1    3    3    0    0  0.97484253976E+02 -0.22953825580E+03  0.27645564935E+03  0.37231534578E+03  0.00000000000E+00 0. -1.
        -11    1    3    3    0    0  0.74819736895E+02 -0.45044241939E+02  0.78889802158E+02  0.11768847711E+03  0.00000000000E+00 0.  1.
          4    1    6    6  502    0 -0.52058316248E+02  0.20547477298E+03  0.15820909193E+03  0.26449965481E+03  0.00000000000E+00 0. -1.
          3    1    5    5  503    0 -0.55544639294E+02 -0.23476786219E+03  0.40355502711E+03  0.47016785937E+03  0.00000000000E+00 0. -1.
         -4    1    5    5    0  503 -0.67097606978E+02 -0.72457411589E+02  0.15188120959E+03  0.18116309553E+03  0.00000000000E+00 0.  1.
         -1    1    6    6    0  502  0.23965716496E+01  0.37633299853E+03  0.34535857529E+03  0.51078842476E+03  0.00000000000E+00 0.  1.
<mgrwt>
<rscale>  0 0.12934678E+04</rscale>
<asrwt>0</asrwt>
<pdfrwt beam="1">  1        1 0.25622862E+00 0.12934678E+04</pdfrwt>
<pdfrwt beam="2">  1       -1 0.38636424E-01 0.12934678E+04</pdfrwt>
<totfact> 0.32104260E+01</totfact>
</mgrwt>
</event>
<event>
12    1  0.1980523E-007  0.3263246E+04  0.7818608E-02  0.8172311E-01
         -2   -1    0    0    0  501 -0.00000000000E+00  0.00000000000E+00  0.19431891182E+04  0.19431891182E+04  0.00000000000E+00 0.  1.
          2   -1    0    0  501    0  0.00000000000E+00 -0.00000000000E+00 -0.13700126609E+04  0.13700126609E+04  0.00000000000E+00 0. -1.
         23    2    1    2    0    0  0.14133830069E+04  0.15950075126E+03 -0.21697305769E+03  0.14417736992E+04  0.92423363754E+02 0.  0.
        254    2    1    2    0    0 -0.14133830069E+04 -0.15950075126E+03  0.79014951502E+03  0.18714280799E+04  0.92456194404E+03 0.  0.
        -24    2    4    4    0    0 -0.13987360554E+04  0.10274636202E+03  0.55738016454E+03  0.15111732892E+04  0.77153707309E+02 0.  0.
         24    2    4    4    0    0 -0.14646951491E+02 -0.26224711328E+03  0.23276935047E+03  0.36025479072E+03  0.81325654670E+02 0.  0.
         13    1    3    3    0    0  0.22176394530E+03  0.46526398771E+02 -0.81981167828E+01  0.22674029712E+03  0.00000000000E+00 0.  1.
        -13    1    3    3    0    0  0.11916190616E+04  0.11297435249E+03 -0.20877494091E+03  0.12150334021E+04  0.00000000000E+00 0. -1.
          2    1    6    6  502    0 -0.33748470495E+02 -0.83450427567E+02  0.11180989707E+03  0.14354228020E+03  0.00000000000E+00 0. -1.
          1    1    5    5  503    0 -0.50416537436E+03  0.53846194417E+00  0.20726548087E+03  0.54510732357E+03  0.00000000000E+00 0. -1.
         -2    1    5    5    0  503 -0.89457068103E+03  0.10220790008E+03  0.35011468367E+03  0.96606596562E+03  0.00000000000E+00 0.  1.
         -1    1    6    6    0  502  0.19101519003E+02 -0.17879668571E+03  0.12095945340E+03  0.21671251052E+03  0.00000000000E+00 0.  1.
<mgrwt>
<rscale>  0 0.32632460E+04</rscale>
<asrwt>0</asrwt>
<pdfrwt beam="1">  1        2 0.21077118E+00 0.32632460E+04</pdfrwt>
<pdfrwt beam="2">  1       -2 0.29895217E+00 0.32632460E+04</pdfrwt>
<totfact> 0.40679787E-01</totfact>
</mgrwt>
</event>
<event>
12    1  0.1980523E-007  0.2759441E+04  0.7818608E-02  0.8315972E-01
         -2   -1    0    0    0  501 -0.00000000000E+00  0.00000000000E+00  0.19489462585E+04  0.19489462585E+04  0.00000000000E+00 0.  1.
          2   -1    0    0  501    0  0.00000000000E+00 -0.00000000000E+00 -0.97674743812E+03  0.97674743812E+03  0.00000000000E+00 0. -1.
         23    2    1    2    0    0 -0.10498846668E+04  0.61507527525E+03  0.23471056847E+03  0.12425498445E+04  0.90915659899E+02 0.  0.
        254    2    1    2    0    0  0.10498846668E+04 -0.61507527525E+03  0.73748825193E+03  0.16831438522E+04  0.89917122813E+03 0.  0.
        -24    2    4    4    0    0  0.94915051305E+02  0.39242428983E+02 -0.16741457139E+03  0.21169871722E+03  0.78992866521E+02 0.  0.
         24    2    4    4    0    0  0.95496961552E+03 -0.65431770424E+03  0.90490282332E+03  0.14714451350E+04  0.78759385946E+02 0.  0.
         11    1    3    3    0    0 -0.41235581921E+03  0.28234007502E+03  0.12439636601E+03  0.51500261695E+03  0.00000000000E+00 0. -1.
        -11    1    3    3    0    0 -0.63752884762E+03  0.33273520024E+03  0.11031420247E+03  0.72754722753E+03  0.00000000000E+00 0.  1.
          4    1    6    6  502    0  0.44254014291E+03 -0.26029488499E+03  0.37952203809E+03  0.63846079178E+03  0.00000000000E+00 0. -1.
          3    1    5    5  503    0  0.88111295404E+02  0.35692464262E+02 -0.80856584867E+02  0.12480120071E+03  0.00000000000E+00 0. -1.
         -4    1    5    5    0  503  0.68037559009E+01  0.35499647205E+01 -0.86557986523E+02  0.86897516505E+02  0.00000000000E+00 0.  1.
         -3    1    6    6    0  502  0.51242947261E+03 -0.39402281925E+03  0.52538078523E+03  0.83298434317E+03  0.00000000000E+00 0.  1.
<mgrwt>
<rscale>  0 0.27594407E+04</rscale>
<asrwt>0</asrwt>
<pdfrwt beam="1">  1        2 0.15026884E+00 0.27594407E+04</pdfrwt>
<pdfrwt beam="2">  1       -2 0.29983789E+00 0.27594407E+04</pdfrwt>
<totfact> 0.72524313E-01</totfact>
</mgrwt>
</event>
<event>
12    1  0.1980523E-007  0.2328962E+04  0.7818608E-02  0.8466589E-01
          1   -1    0    0  501    0  0.00000000000E+00  0.00000000000E+00  0.33465336718E+04  0.33465336718E+04  0.00000000000E+00 0. -1.
         -1   -1    0    0    0  501 -0.00000000000E+00 -0.00000000000E+00 -0.40520005391E+03  0.40520005391E+03  0.00000000000E+00 0.  1.
         23    2    1    2    0    0  0.94867861789E+03  0.49037585834E+01  0.79332007401E+03  0.12400613500E+04  0.91543678100E+02 0.  0.
        254    2    1    2    0    0 -0.94867861789E+03 -0.49037585834E+01  0.21480135439E+04  0.25116723758E+04  0.89135894645E+03 0.  0.
        -24    2    4    4    0    0 -0.46384719958E+03  0.25681000999E+03  0.37725554734E+03  0.65558618653E+03  0.79786553899E+02 0.  0.
         24    2    4    4    0    0 -0.48483141831E+03 -0.26171376857E+03  0.17707579966E+04  0.18560861892E+04  0.76918518874E+02 0.  0.
         13    1    3    3    0    0  0.63709833032E+03 -0.37919632832E+02  0.51524689281E+03  0.82025090161E+03  0.00000000000E+00 0.  1.
        -13    1    3    3    0    0  0.31158028757E+03  0.42823391416E+02  0.27807318119E+03  0.41981044837E+03  0.00000000000E+00 0. -1.
          4    1    6    6  502    0 -0.22901523352E+03 -0.92924792581E+02  0.70110843307E+03  0.74339493487E+03  0.00000000000E+00 0. -1.
          1    1    5    5  503    0 -0.14475554988E+01  0.57624186705E+01 -0.27571280890E+01  0.65500107753E+01  0.00000000000E+00 0. -1.
         -2    1    5    5    0  503 -0.46239964408E+03  0.25104759132E+03  0.38001267542E+03  0.64903617575E+03  0.00000000000E+00 0.  1.
         -3    1    6    6    0  502 -0.25581618479E+03 -0.16878897599E+03  0.10696495635E+04  0.11126912544E+04  0.00000000000E+00 0.  1.
<mgrwt>
<rscale>  0 0.23289617E+04</rscale>
<asrwt>0</asrwt>
<pdfrwt beam="1">  1        1 0.51485132E+00 0.23289617E+04</pdfrwt>
<pdfrwt beam="2">  1       -1 0.62338472E-01 0.23289617E+04</pdfrwt>
<totfact> 0.77531009E-01</totfact>
</mgrwt>
</event>
<event>
12    1  0.1980523E-007  0.2168384E+04  0.7818608E-02  0.8531704E-01
         -2   -1    0    0    0  501 -0.00000000000E+00  0.00000000000E+00  0.48221810760E+03  0.48221810760E+03  0.00000000000E+00 0.  1.
          2   -1    0    0  501    0  0.00000000000E+00 -0.00000000000E+00 -0.24376363383E+04  0.24376363383E+04  0.00000000000E+00 0. -1.
         23    2    1    2    0    0  0.61138005052E+03  0.48264357733E+02 -0.17065431521E+04  0.18157472207E+04  0.92376539345E+02 0.  0.
        254    2    1    2    0    0 -0.61138005052E+03 -0.48264357733E+02 -0.24887507856E+03  0.11041072252E+04  0.88374144723E+03 0.  0.
        -24    2    4    4    0    0  0.11966734015E+03 -0.27098956911E+03 -0.55615413492E+02  0.31182885929E+03  0.79928370456E+02 0.  0.
         24    2    4    4    0    0 -0.73104739068E+03  0.22272521138E+03 -0.19325966507E+03  0.79227836589E+03  0.79491532325E+02 0.  0.
         11    1    3    3    0    0  0.37634763335E+03  0.73284886089E+02 -0.10228700688E+04  0.10923696230E+04  0.00000000000E+00 0. -1.
        -11    1    3    3    0    0  0.23503241717E+03 -0.25020528357E+02 -0.68367308334E+03  0.72337759769E+03  0.00000000000E+00 0.  1.
          4    1    6    6  502    0 -0.67926507132E+03  0.22124868335E+03 -0.19473125209E+03  0.74045410225E+03  0.00000000000E+00 0. -1.
          1    1    5    5  503    0  0.56344995401E+02 -0.17188062172E+03  0.19387714042E+01  0.18089075560E+03  0.00000000000E+00 0. -1.
         -2    1    5    5    0  503  0.63322344754E+02 -0.99108947394E+02 -0.57554184896E+02  0.13093810369E+03  0.00000000000E+00 0.  1.
         -3    1    6    6    0  502 -0.51782319359E+02  0.14765280307E+01  0.14715870264E+01  0.51824263637E+02  0.00000000000E+00 0.  1.
<mgrwt>
<rscale>  0 0.21683841E+04</rscale>
<asrwt>0</asrwt>
<pdfrwt beam="1">  1        2 0.37502098E+00 0.21683841E+04</pdfrwt>
<pdfrwt beam="2">  1       -2 0.74187401E-01 0.21683841E+04</pdfrwt>
<totfact> 0.56705986E+00</totfact>
</mgrwt>
</event>
<event>
12    1  0.1980523E-007  0.2782892E+04  0.7818608E-02  0.8308600E-01
          1   -1    0    0  501    0  0.00000000000E+00  0.00000000000E+00  0.15711876980E+04  0.15711876980E+04  0.00000000000E+00 0. -1.
         -1   -1    0    0    0  501 -0.00000000000E+00 -0.00000000000E+00 -0.12322663038E+04  0.12322663038E+04  0.00000000000E+00 0.  1.
         23    2    1    2    0    0 -0.11652505276E+04 -0.32194682731E+03 -0.13626652265E+03  0.12199120929E+04  0.90323848338E+02 0.  0.
        254    2    1    2    0    0  0.11652505276E+04  0.32194682731E+03  0.47518791687E+03  0.15835419089E+04  0.90572781188E+03 0.  0.
        -24    2    4    4    0    0  0.94057728241E+03 -0.13955730440E+03  0.46820272708E+03  0.10625815326E+04  0.75523866014E+02 0.  0.
         24    2    4    4    0    0  0.22467324517E+03  0.46150413171E+03  0.69851897917E+01  0.52096037631E+03  0.88807601746E+02 0.  0.
         13    1    3    3    0    0 -0.88996097348E+03 -0.21178187405E+03 -0.12363156280E+03  0.92312884248E+03  0.00000000000E+00 0.  1.
        -13    1    3    3    0    0 -0.27528955410E+03 -0.11016495326E+03 -0.12634959849E+02  0.29678325043E+03  0.00000000000E+00 0. -1.
          4    1    6    6  502    0  0.93330790239E+02  0.13907323138E+03  0.36958759032E+02  0.17151661716E+03  0.00000000000E+00 0. -1.
          3    1    5    5  503    0  0.59290217311E+03 -0.12421883989E+03  0.29070860561E+03  0.67191874541E+03  0.00000000000E+00 0. -1.
         -4    1    5    5    0  503  0.34767510930E+03 -0.15338464508E+02  0.17749412147E+03  0.39066278717E+03  0.00000000000E+00 0.  1.
         -3    1    6    6    0  502  0.13134245493E+03  0.32243090033E+03 -0.29973569240E+02  0.34944375915E+03  0.00000000000E+00 0.  1.
<mgrwt>
<rscale>  0 0.27828918E+04</rscale>
<asrwt>0</asrwt>
<pdfrwt beam="1">  1        1 0.24172118E+00 0.27828918E+04</pdfrwt>
<pdfrwt beam="2">  1       -1 0.18957943E+00 0.27828918E+04</pdfrwt>
<totfact> 0.90094775E-01</totfact>
</mgrwt>
</event>
<event>
12    1  0.1980523E-007  0.2351469E+04  0.7818608E-02  0.8457900E-01
          2   -1    0    0  501    0  0.00000000000E+00  0.00000000000E+00  0.16909662862E+04  0.16909662862E+04  0.00000000000E+00 0. -1.
         -2   -1    0    0    0  501 -0.00000000000E+00 -0.00000000000E+00 -0.81749225201E+03  0.81749225201E+03  0.00000000000E+00 0.  1.
         23    2    1    2    0    0  0.67935564064E+03  0.61122063022E+03  0.80108760543E+03  0.12186371099E+04  0.90665918854E+02 0.  0.
        254    2    1    2    0    0 -0.67935564064E+03 -0.61122063022E+03  0.72386428777E+02  0.12898214283E+04  0.90735041552E+03 0.  0.
        -24    2    4    4    0    0 -0.67467046225E+03 -0.76683113882E+03  0.23404292022E+03  0.10513634694E+04  0.85900106012E+02 0.  0.
         24    2    4    4    0    0 -0.46851783914E+01  0.15561050860E+03 -0.16165649144E+03  0.23845795889E+03  0.80577885596E+02 0.  0.
         13    1    3    3    0    0  0.10167832185E+03  0.88950510286E+02  0.78330715300E+02  0.15616137606E+03  0.00000000000E+00 0.  1.
        -13    1    3    3    0    0  0.57767731879E+03  0.52227011994E+03  0.72275689013E+03  0.10624757339E+04  0.00000000000E+00 0. -1.
          2    1    6    6  502    0  0.37588733684E+02  0.82907678713E+02 -0.89225783588E+02  0.12746700179E+03  0.00000000000E+00 0. -1.
          3    1    5    5  503    0 -0.35326580451E+03 -0.35301992948E+03  0.84900918370E+02  0.50658460813E+03  0.00000000000E+00 0. -1.
         -4    1    5    5    0  503 -0.32140465773E+03 -0.41381120934E+03  0.14914200185E+03  0.54477886129E+03  0.00000000000E+00 0.  1.
         -1    1    6    6    0  502 -0.42273912076E+02  0.72702829889E+02 -0.72430707853E+02  0.11099095709E+03  0.00000000000E+00 0.  1.
<mgrwt>
<rscale>  0 0.23514692E+04</rscale>
<asrwt>0</asrwt>
<pdfrwt beam="1">  1        2 0.26014866E+00 0.23514692E+04</pdfrwt>
<pdfrwt beam="2">  1       -2 0.12576804E+00 0.23514692E+04</pdfrwt>
<totfact> 0.42296009E+00</totfact>
</mgrwt>
</event>
<event>
12    1  0.1980523E-007  0.2456949E+04  0.7818608E-02  0.8418485E-01
         -1   -1    0    0    0  501 -0.00000000000E+00  0.00000000000E+00  0.49310222202E+03  0.49310222202E+03  0.00000000000E+00 0.  1.
          1   -1    0    0  501    0  0.00000000000E+00 -0.00000000000E+00 -0.30605213721E+04  0.30605213721E+04  0.00000000000E+00 0. -1.
         23    2    1    2    0    0  0.67066517442E+03  0.24628412177E+03 -0.22482549515E+04  0.23609081165E+04  0.93750533596E+02 0.  0.
        254    2    1    2    0    0 -0.67066517442E+03 -0.24628412177E+03 -0.31916419855E+03  0.11927154776E+04  0.90014264433E+03 0.  0.
        -24    2    4    4    0    0 -0.57396292902E+03 -0.14485082890E+03  0.21489121245E+03  0.63488869118E+03  0.80561842583E+02 0.  0.
         24    2    4    4    0    0 -0.96702245402E+02 -0.10143329287E+03 -0.53405541100E+03  0.55782678646E+03  0.79470148516E+02 0.  0.
         13    1    3    3    0    0  0.38836502057E+03  0.19037812996E+03 -0.13821168419E+04  0.14482120653E+04  0.00000000000E+00 0. -1.
        -13    1    3    3    0    0  0.28230015385E+03  0.55905991810E+02 -0.86613810967E+03  0.91269605116E+03  0.00000000000E+00 0.  1.
          4    1    6    6  502    0 -0.49795222150E+02 -0.57981371397E+02 -0.42153898103E+03  0.42841161994E+03  0.00000000000E+00 0. -1.
          3    1    5    5  503    0 -0.42914172197E+03 -0.80614885811E+02  0.18212545742E+03  0.47310787310E+03  0.00000000000E+00 0. -1.
         -4    1    5    5    0  503 -0.14482120706E+03 -0.64235943089E+02  0.32765755023E+02  0.16178081808E+03  0.00000000000E+00 0.  1.
         -3    1    6    6    0  502 -0.46907023252E+02 -0.43451921477E+02 -0.11251642997E+03  0.12941516651E+03  0.00000000000E+00 0.  1.
<mgrwt>
<rscale>  0 0.24569492E+04</rscale>
<asrwt>0</asrwt>
<pdfrwt beam="1">  1        1 0.47084944E+00 0.24569492E+04</pdfrwt>
<pdfrwt beam="2">  1       -1 0.75861881E-01 0.24569492E+04</pdfrwt>
<totfact> 0.84019004E-01</totfact>
</mgrwt>
</event>
<event>
12    1  0.1980523E-007  0.2517962E+04  0.7818608E-02  0.8396614E-01
         -2   -1    0    0    0  501 -0.00000000000E+00  0.00000000000E+00  0.12179488480E+04  0.12179488480E+04  0.00000000000E+00 0.  1.
          2   -1    0    0  501    0  0.00000000000E+00 -0.00000000000E+00 -0.13013949968E+04  0.13013949968E+04  0.00000000000E+00 0. -1.
         23    2    1    2    0    0  0.12403621484E+03  0.99006525705E+03  0.40944282028E+03  0.10823617624E+04  0.90826020095E+02 0.  0.
        254    2    1    2    0    0 -0.12403621484E+03 -0.99006525705E+03 -0.49288896906E+03  0.14369820823E+04  0.90904552867E+03 0.  0.
        -24    2    4    4    0    0  0.96415274939E+01 -0.82052308192E+03  0.71466730003E+02  0.82770985086E+03  0.81516971770E+02 0.  0.
         24    2    4    4    0    0 -0.13367774233E+03 -0.16954217513E+03 -0.56435569907E+03  0.60927223144E+03  0.78108955885E+02 0.  0.
         11    1    3    3    0    0  0.17433315904E+02  0.32450241347E+03  0.94946027242E+02  0.33855647230E+03  0.00000000000E+00 0. -1.
        -11    1    3    3    0    0  0.10660289894E+03  0.66556284358E+03  0.31449679303E+03  0.74380529014E+03  0.00000000000E+00 0.  1.
          2    1    6    6  502    0 -0.11289670493E+03 -0.91450673247E+02 -0.41107147855E+03  0.43599157342E+03  0.00000000000E+00 0. -1.
          3    1    5    5  503    0 -0.24678095997E+02 -0.52589985065E+03  0.21516461413E+02  0.52691803864E+03  0.00000000000E+00 0. -1.
         -4    1    5    5    0  503  0.34319623491E+02 -0.29462323127E+03  0.49950268590E+02  0.30079181221E+03  0.00000000000E+00 0.  1.
         -1    1    6    6    0  502 -0.20781037404E+02 -0.78091501880E+02 -0.15328422052E+03  0.17328065801E+03  0.00000000000E+00 0.  1.
<mgrwt>
<rscale>  0 0.25179615E+04</rscale>
<asrwt>0</asrwt>
<pdfrwt beam="1">  1        2 0.20021461E+00 0.25179615E+04</pdfrwt>
<pdfrwt beam="2">  1       -2 0.18737675E+00 0.25179615E+04</pdfrwt>
<totfact> 0.23724631E+00</totfact>
</mgrwt>
</event>
<event>
12    1  0.1980523E-007  0.2138752E+04  0.7818608E-02  0.8544362E-01
         -2   -1    0    0    0  501 -0.00000000000E+00  0.00000000000E+00  0.15630766561E+04  0.15630766561E+04  0.00000000000E+00 0.  1.
          2   -1    0    0  501    0  0.00000000000E+00 -0.00000000000E+00 -0.73161170412E+03  0.73161170412E+03  0.00000000000E+00 0. -1.
         23    2    1    2    0    0 -0.44035801061E+03  0.60125141295E+03  0.84137294892E+03  0.11277247009E+04  0.91848368534E+02 0.  0.
        254    2    1    2    0    0  0.44035801061E+03 -0.60125141295E+03 -0.99079969852E+01  0.11669636593E+04  0.89793517281E+03 0.  0.
        -24    2    4    4    0    0  0.10798656053E+03  0.21142654527E+03  0.11156635083E+03  0.27694628259E+03  0.88825173813E+02 0.  0.
         24    2    4    4    0    0  0.33237145008E+03 -0.81267795821E+03 -0.12147434781E+03  0.89001737668E+03  0.80365844829E+02 0.  0.
         11    1    3    3    0    0 -0.32196939628E+03  0.36722964793E+03  0.56126026630E+03  0.74399932324E+03  0.00000000000E+00 0. -1.
        -11    1    3    3    0    0 -0.11838861433E+03  0.23402176502E+03  0.28011268262E+03  0.38372537767E+03  0.00000000000E+00 0.  1.
          4    1    6    6  502    0  0.32589092419E+03 -0.81120976681E+03 -0.12386731363E+03  0.88295486386E+03  0.00000000000E+00 0. -1.
          3    1    5    5  503    0  0.12344801698E+03  0.18547440668E+03  0.92604246391E+02  0.24127932957E+03  0.00000000000E+00 0. -1.
         -4    1    5    5    0  503 -0.15461456447E+02  0.25952138590E+02  0.18962104438E+02  0.35666953018E+02  0.00000000000E+00 0.  1.
         -3    1    6    6    0  502  0.64805258940E+01 -0.14681914068E+01  0.23929658172E+01  0.70625128157E+01  0.00000000000E+00 0.  1.
<mgrwt>
<rscale>  0 0.21387521E+04</rscale>
<asrwt>0</asrwt>
<pdfrwt beam="1">  1        2 0.11255565E+00 0.21387521E+04</pdfrwt>
<pdfrwt beam="2">  1       -2 0.24047333E+00 0.21387521E+04</pdfrwt>
<totfact> 0.26165832E+00</totfact>
</mgrwt>
</event>
<event>
12    1  0.1980523E-007  0.1959237E+04  0.7818608E-02  0.8625919E-01
          2   -1    0    0  501    0  0.00000000000E+00  0.00000000000E+00  0.20137015947E+04  0.20137015947E+04  0.00000000000E+00 0. -1.
         -2   -1    0    0    0  501 -0.00000000000E+00 -0.00000000000E+00 -0.47656131313E+03  0.47656131313E+03  0.00000000000E+00 0.  1.
         23    2    1    2    0    0 -0.33960829361E+03  0.67171964838E+03  0.81300708808E+03  0.11115136478E+04  0.89112203692E+02 0.  0.
        254    2    1    2    0    0  0.33960829361E+03 -0.67171964838E+03  0.72413319351E+03  0.13787492601E+04  0.90002197809E+03 0.  0.
        -24    2    4    4    0    0  0.60159277833E+03 -0.37525813003E+03  0.24902421084E+03  0.75535124721E+03  0.76222791766E+02 0.  0.
         24    2    4    4    0    0 -0.26198448472E+03 -0.29646151835E+03  0.47510898267E+03  0.62339801284E+03  0.79820015683E+02 0.  0.
         13    1    3    3    0    0 -0.11228858026E+03  0.18585465779E+03  0.18208743195E+03  0.28338403616E+03  0.00000000000E+00 0. -1.
        -13    1    3    3    0    0 -0.22731971335E+03  0.48586499059E+03  0.63091965613E+03  0.82812961163E+03  0.00000000000E+00 0.  1.
          2    1    6    6  502    0 -0.15975874761E+03 -0.13684540811E+03  0.29176344550E+03  0.35968796378E+03  0.00000000000E+00 0. -1.
          1    1    5    5  503    0  0.52259385277E+03 -0.34730742968E+03  0.23677338241E+03  0.67066267250E+03  0.00000000000E+00 0. -1.
         -2    1    5    5    0  503  0.78998925561E+02 -0.27950700355E+02  0.12250828430E+02  0.84688574716E+02  0.00000000000E+00 0.  1.
         -1    1    6    6    0  502 -0.10222573711E+03 -0.15961611023E+03  0.18334553718E+03  0.26371004906E+03  0.00000000000E+00 0.  1.
<mgrwt>
<rscale>  0 0.19592369E+04</rscale>
<asrwt>0</asrwt>
<pdfrwt beam="1">  1        2 0.30980024E+00 0.19592369E+04</pdfrwt>
<pdfrwt beam="2">  1       -2 0.73317126E-01 0.19592369E+04</pdfrwt>
<totfact> 0.10274062E+01</totfact>
</mgrwt>
</event>
<event>
12    1  0.1980523E-007  0.2078732E+04  0.7818608E-02  0.8570670E-01
         -2   -1    0    0    0  501 -0.00000000000E+00  0.00000000000E+00  0.26000294753E+04  0.26000294753E+04  0.00000000000E+00 0.  1.
          2   -1    0    0  501    0  0.00000000000E+00 -0.00000000000E+00 -0.41548827804E+03  0.41548827804E+03  0.00000000000E+00 0. -1.
         23    2    1    2    0    0 -0.12988281800E+03  0.82912533020E+03  0.92501323632E+03  0.12522914326E+04  0.90917463179E+02 0.  0.
        254    2    1    2    0    0  0.12988281800E+03 -0.82912533020E+03  0.12595279610E+04  0.17632263208E+04  0.90456509680E+03 0.  0.
        -24    2    4    4    0    0  0.31301462145E+03 -0.42813724436E+03  0.13731973056E+03  0.55418822450E+03  0.83595613069E+02 0.  0.
         24    2    4    4    0    0 -0.18313180344E+03 -0.40098808584E+03  0.11222082304E+04  0.12090380963E+04  0.89961678058E+02 0.  0.
         11    1    3    3    0    0 -0.13194549386E+02  0.37599111791E+03  0.40972013252E+03  0.55624994730E+03  0.00000000000E+00 0. -1.
        -11    1    3    3    0    0 -0.11668826862E+03  0.45313421229E+03  0.51529310380E+03  0.69604148526E+03  0.00000000000E+00 0.  1.
          4    1    6    6  502    0 -0.67485178031E+02 -0.23434605641E+03  0.68363236354E+03  0.72582748080E+03  0.00000000000E+00 0. -1.
          1    1    5    5  503    0  0.15406433321E+03 -0.28018725114E+03  0.82855257251E+02  0.33031153193E+03  0.00000000000E+00 0. -1.
         -4    1    5    5    0  503  0.15895028824E+03 -0.14794999322E+03  0.54464473311E+02  0.22387669258E+03  0.00000000000E+00 0.  1.
         -1    1    6    6    0  502 -0.11564662541E+03 -0.16664202943E+03  0.43857586687E+03  0.48321061551E+03  0.00000000000E+00 0.  1.
<mgrwt>
<rscale>  0 0.20787321E+04</rscale>
<asrwt>0</asrwt>
<pdfrwt beam="1">  1        2 0.63921275E-01 0.20787321E+04</pdfrwt>
<pdfrwt beam="2">  1       -2 0.40000453E+00 0.20787321E+04</pdfrwt>
<totfact> 0.52311819E-01</totfact>
</mgrwt>
</event>
<event>
12    1  0.1980523E-007  0.3349604E+04  0.7818608E-02  0.8150387E-01
         -2   -1    0    0    0  501 -0.00000000000E+00  0.00000000000E+00  0.79310499023E+03  0.79310499023E+03  0.00000000000E+00 0.  1.
          2   -1    0    0  501    0  0.00000000000E+00 -0.00000000000E+00 -0.35366839479E+04  0.35366839479E+04  0.00000000000E+00 0. -1.
         23    2    1    2    0    0  0.66342649540E+02  0.15527775509E+04 -0.12574440745E+04  0.20012311555E+04  0.90780326086E+02 0.  0.
        254    2    1    2    0    0 -0.66342649540E+02 -0.15527775509E+04 -0.14861348832E+04  0.23285577826E+04  0.89334483061E+03 0.  0.
        -24    2    4    4    0    0 -0.22091315799E+03 -0.10158332729E+04 -0.14178222231E+04  0.17599546065E+04  0.80625672231E+02 0.  0.
         24    2    4    4    0    0  0.15457050845E+03 -0.53694427799E+03 -0.68312660110E+02  0.56860317613E+03  0.80260529732E+02 0.  0.
         11    1    3    3    0    0 -0.18086130796E+02  0.35044430801E+03 -0.25987163127E+03  0.43665957666E+03  0.00000000000E+00 0.  1.
        -11    1    3    3    0    0  0.84428780336E+02  0.12023332429E+04 -0.99757244327E+03  0.15645715789E+04  0.00000000000E+00 0. -1.
          2    1    6    6  502    0  0.14285462626E+01 -0.49785926270E+02  0.13080172638E+02  0.51495340713E+02  0.00000000000E+00 0. -1.
          3    1    5    5  503    0 -0.13631843874E+03 -0.72490765288E+03 -0.10546737105E+04  0.12870161062E+04  0.00000000000E+00 0. -1.
         -4    1    5    5    0  503 -0.84594719250E+02 -0.29092562002E+03 -0.36314851258E+03  0.47293850034E+03  0.00000000000E+00 0.  1.
         -1    1    6    6    0  502  0.15314196218E+03 -0.48715835172E+03 -0.81392832748E+02  0.51710783542E+03  0.00000000000E+00 0.  1.
<mgrwt>
<rscale>  0 0.33496040E+04</rscale>
<asrwt>0</asrwt>
<pdfrwt beam="1">  1        2 0.54410523E+00 0.33496040E+04</pdfrwt>
<pdfrwt beam="2">  1       -2 0.12201615E+00 0.33496040E+04</pdfrwt>
<totfact> 0.32410724E-01</totfact>
</mgrwt>
</event>
<event>
12    1  0.1980523E-007  0.1780615E+04  0.7818608E-02  0.8716677E-01
          2   -1    0    0  501    0  0.00000000000E+00  0.00000000000E+00  0.18783321352E+04  0.18783321352E+04  0.00000000000E+00 0. -1.
         -2   -1    0    0    0  501 -0.00000000000E+00 -0.00000000000E+00 -0.42199536470E+03  0.42199536470E+03  0.00000000000E+00 0.  1.
         23    2    1    2    0    0  0.48287318993E+03  0.86481417118E+02  0.11084126924E+04  0.12156578121E+04  0.92734385866E+02 0.  0.
        254    2    1    2    0    0 -0.48287318993E+03 -0.86481417118E+02  0.34792407809E+03  0.10846696878E+04  0.90266916115E+03 0.  0.
        -24    2    4    4    0    0  0.76424322076E+02  0.21216174435E+03 -0.14233206481E+03  0.27937511543E+03  0.83299193748E+02 0.  0.
         24    2    4    4    0    0 -0.55929751201E+03 -0.29864316147E+03  0.49025614291E+03  0.80529457239E+03  0.78401644266E+02 0.  0.
         13    1    3    3    0    0  0.31544190686E+03  0.41289207285E+02  0.61066932039E+03  0.68856765398E+03  0.00000000000E+00 0.  1.
        -13    1    3    3    0    0  0.16743128307E+03  0.45192209833E+02  0.49774337199E+03  0.52709015808E+03  0.00000000000E+00 0. -1.
          2    1    6    6  502    0 -0.16170351099E+03 -0.70955101815E+02  0.96871477757E+02  0.20141185453E+03  0.00000000000E+00 0. -1.
          1    1    5    5  503    0 -0.11420913324E+02  0.68455309360E+01  0.20137608912E+01  0.13466766051E+02  0.00000000000E+00 0. -1.
         -2    1    5    5    0  503  0.87845235400E+02  0.20531621341E+03 -0.14434582571E+03  0.26590834938E+03  0.00000000000E+00 0.  1.
         -1    1    6    6    0  502 -0.39759400102E+03 -0.22768805965E+03  0.39338466515E+03  0.60388271786E+03  0.00000000000E+00 0.  1.
<mgrwt>
<rscale>  0 0.17806150E+04</rscale>
<asrwt>0</asrwt>
<pdfrwt beam="1">  1        2 0.28897417E+00 0.17806150E+04</pdfrwt>
<pdfrwt beam="2">  1       -2 0.64922365E-01 0.17806150E+04</pdfrwt>
<totfact> 0.16155051E+01</totfact>
</mgrwt>
</event>
<event>
12    1  0.1980523E-007  0.1757049E+04  0.7818608E-02  0.8729480E-01
          1   -1    0    0  501    0  0.00000000000E+00  0.00000000000E+00  0.95451086083E+03  0.95451086083E+03  0.00000000000E+00 0. -1.
         -1   -1    0    0    0  501 -0.00000000000E+00 -0.00000000000E+00 -0.80858685342E+03  0.80858685342E+03  0.00000000000E+00 0.  1.
         23    2    1    2    0    0  0.43536101291E+03 -0.17787328396E+03 -0.38838526208E+03  0.61723522095E+03  0.94647184145E+02 0.  0.
        254    2    1    2    0    0 -0.43536101291E+03  0.17787328396E+03  0.53430926950E+03  0.11458624933E+04  0.89796232737E+03 0.  0.
        -24    2    4    4    0    0 -0.31755653778E+03  0.48610277565E+03  0.99593018345E+02  0.59426562089E+03  0.78069172472E+02 0.  0.
         24    2    4    4    0    0 -0.11780447513E+03 -0.30822949168E+03  0.43471625116E+03  0.55159687241E+03  0.79984853119E+02 0.  0.
         11    1    3    3    0    0  0.31309323538E+03 -0.17190558937E+03 -0.28293806157E+03  0.45566748006E+03  0.00000000000E+00 0.  1.
        -11    1    3    3    0    0  0.12226777753E+03 -0.59676945958E+01 -0.10544720051E+03  0.16156774089E+03  0.00000000000E+00 0. -1.
          4    1    6    6  502    0 -0.10064199373E+03 -0.21730803139E+03  0.25730853899E+03  0.35150999366E+03  0.00000000000E+00 0. -1.
          3    1    5    5  503    0 -0.20778356495E+03  0.34433897386E+03  0.10218068426E+03  0.41495087784E+03  0.00000000000E+00 0. -1.
         -4    1    5    5    0  503 -0.10977297283E+03  0.14176380178E+03 -0.25876659146E+01  0.17931474305E+03  0.00000000000E+00 0.  1.
         -3    1    6    6    0  502 -0.17162481400E+02 -0.90921460291E+02  0.17740771217E+03  0.20008687874E+03  0.00000000000E+00 0.  1.
<mgrwt>
<rscale>  0 0.17570486E+04</rscale>
<asrwt>0</asrwt>
<pdfrwt beam="1">  1        1 0.14684782E+00 0.17570486E+04</pdfrwt>
<pdfrwt beam="2">  1       -1 0.12439798E+00 0.17570486E+04</pdfrwt>
<totfact> 0.88188954E+00</totfact>
</mgrwt>
</event>
<event>
12    1  0.1980523E-007  0.1629977E+04  0.7818608E-02  0.8802341E-01
         -3   -1    0    0    0  501 -0.00000000000E+00  0.00000000000E+00  0.54442322003E+03  0.54442322003E+03  0.00000000000E+00 0.  1.
          3   -1    0    0  501    0  0.00000000000E+00 -0.00000000000E+00 -0.12200176597E+04  0.12200176597E+04  0.00000000000E+00 0. -1.
         23    2    1    2    0    0  0.19241678522E+03  0.35904874583E+03 -0.65603606293E+03  0.77776463041E+03  0.92705357643E+02 0.  0.
        254    2    1    2    0    0 -0.19241678522E+03 -0.35904874583E+03 -0.19558376785E+02  0.98667624936E+03  0.89844714359E+03 0.  0.
        -24    2    4    4    0    0 -0.60718764319E+02 -0.30618041797E+03  0.41344221655E+03  0.52368961179E+03  0.76701540903E+02 0.  0.
         24    2    4    4    0    0 -0.13169802090E+03 -0.52868327863E+02 -0.43300059334E+03  0.46298663757E+03  0.82022459954E+02 0.  0.
         13    1    3    3    0    0  0.14863879268E+03  0.18326063285E+03 -0.39254719469E+03  0.45800791511E+03  0.00000000000E+00 0. -1.
        -13    1    3    3    0    0  0.43777992547E+02  0.17578811298E+03 -0.26348886825E+03  0.31975671531E+03  0.00000000000E+00 0.  1.
          2    1    6    6  502    0 -0.10701461473E+03 -0.69478202970E+01 -0.33821616038E+03  0.35481061302E+03  0.00000000000E+00 0. -1.
          3    1    5    5  503    0 -0.50181308242E+02 -0.24859334710E+03  0.37819336074E+03  0.45535374603E+03  0.00000000000E+00 0. -1.
         -4    1    5    5    0  503 -0.10537456077E+02 -0.57587070872E+02  0.35248855811E+02  0.68335865753E+02  0.00000000000E+00 0.  1.
         -1    1    6    6    0  502 -0.24683406173E+02 -0.45920507566E+02 -0.94784432962E+02  0.10817602455E+03  0.00000000000E+00 0.  1.
<mgrwt>
<rscale>  0 0.16299766E+04</rscale>
<asrwt>0</asrwt>
<pdfrwt beam="1">  1        3 0.18769503E+00 0.16299766E+04</pdfrwt>
<pdfrwt beam="2">  1       -3 0.83757418E-01 0.16299766E+04</pdfrwt>
<totfact> 0.58058814E-01</totfact>
</mgrwt>
</event>
<event>
12    1  0.1980523E-007  0.4258716E+04  0.7818608E-02  0.7954296E-01
         -2   -1    0    0    0  501 -0.00000000000E+00  0.00000000000E+00  0.12248022708E+04  0.12248022708E+04  0.00000000000E+00 0.  1.
          2   -1    0    0  501    0  0.00000000000E+00 -0.00000000000E+00 -0.37019577290E+04  0.37019577290E+04  0.00000000000E+00 0. -1.
         23    2    1    2    0    0  0.11632936664E+03  0.19390754943E+04 -0.18778742084E+04  0.27033657241E+04  0.90710536178E+02 0.  0.
        254    2    1    2    0    0 -0.11632936664E+03 -0.19390754943E+04 -0.59928124980E+03  0.22233942757E+04  0.90044311015E+03 0.  0.
        -24    2    4    4    0    0 -0.45732038864E+03 -0.72313471846E+03 -0.11150755451E+03  0.86748740117E+03  0.89636474598E+02 0.  0.
         24    2    4    4    0    0  0.34099102199E+03 -0.12159407758E+04 -0.48777369529E+03  0.13559068745E+04  0.75983071041E+02 0.  0.
         13    1    3    3    0    0  0.61813101507E+02  0.10283044698E+04 -0.10586663048E+04  0.14771612258E+04  0.00000000000E+00 0.  1.
        -13    1    3    3    0    0  0.54516265134E+02  0.91077102447E+03 -0.81920790364E+03  0.12262044983E+04  0.00000000000E+00 0. -1.
          2    1    6    6  502    0  0.16490760825E+03 -0.57871143085E+03 -0.27304679850E+03  0.66079951092E+03  0.00000000000E+00 0. -1.
          3    1    5    5  503    0 -0.18905200600E+03 -0.30156657076E+03 -0.19523908693E+01  0.35593098966E+03  0.00000000000E+00 0. -1.
         -4    1    5    5    0  503 -0.26826838264E+03 -0.42156814770E+03 -0.10955516364E+03  0.51155641151E+03  0.00000000000E+00 0.  1.
         -1    1    6    6    0  502  0.17608341374E+03 -0.63722934497E+03 -0.21472689678E+03  0.69510736357E+03  0.00000000000E+00 0.  1.
<mgrwt>
<rscale>  0 0.42587163E+04</rscale>
<asrwt>0</asrwt>
<pdfrwt beam="1">  1        2 0.56953195E+00 0.42587163E+04</pdfrwt>
<pdfrwt beam="2">  1       -2 0.18843112E+00 0.42587163E+04</pdfrwt>
<totfact> 0.71196675E-02</totfact>
</mgrwt>
</event>
<event>
12    1  0.1980523E-007  0.1543600E+04  0.7818608E-02  0.8855966E-01
         -2   -1    0    0    0  501 -0.00000000000E+00  0.00000000000E+00  0.22112821257E+03  0.22112821257E+03  0.00000000000E+00 0.  1.
          2   -1    0    0  501    0  0.00000000000E+00 -0.00000000000E+00 -0.26938014200E+04  0.26938014200E+04  0.00000000000E+00 0. -1.
         23    2    1    2    0    0 -0.12188401277E+02 -0.47634471633E+03 -0.11272445365E+04  0.12271783964E+04  0.90739880009E+02 0.  0.
        254    2    1    2    0    0  0.12188401277E+02  0.47634471633E+03 -0.13454286710E+04  0.16877512362E+04  0.90070698926E+03 0.  0.
        -24    2    4    4    0    0  0.34291832638E+03  0.18526876982E+03 -0.11154757448E+04  0.11842227507E+04  0.78612278775E+02 0.  0.
         24    2    4    4    0    0 -0.33072992510E+03  0.29107594651E+03 -0.22995292620E+03  0.50352848547E+03  0.80963556094E+02 0.  0.
         11    1    3    3    0    0 -0.28013559834E+02 -0.88246652267E+02 -0.15999480296E+03  0.18485282834E+03  0.00000000000E+00 0.  1.
        -11    1    3    3    0    0  0.15825158557E+02 -0.38809806406E+03 -0.96724973350E+03  0.10423255681E+04  0.00000000000E+00 0. -1.
          2    1    6    6  502    0 -0.20272170052E+03  0.19529421014E+03 -0.10432378389E+03  0.30019888118E+03  0.00000000000E+00 0. -1.
          1    1    5    5  503    0  0.15823970412E+03  0.85521344719E+02 -0.63318723141E+03  0.65823990640E+03  0.00000000000E+00 0. -1.
         -2    1    5    5    0  503  0.18467862226E+03  0.99747425098E+02 -0.48228851339E+03  0.52598284428E+03  0.00000000000E+00 0.  1.
         -1    1    6    6    0  502 -0.12800822458E+03  0.95781736371E+02 -0.12562914231E+03  0.20332960429E+03  0.00000000000E+00 0.  1.
<mgrwt>
<rscale>  0 0.15436003E+04</rscale>
<asrwt>0</asrwt>
<pdfrwt beam="1">  1        2 0.41443097E+00 0.15436003E+04</pdfrwt>
<pdfrwt beam="2">  1       -2 0.34019727E-01 0.15436003E+04</pdfrwt>
<totfact> 0.20941995E+01</totfact>
</mgrwt>
</event>
<event>
12    1  0.1980523E-007  0.1417183E+04  0.7818608E-02  0.8941474E-01
         -1   -1    0    0    0  501 -0.00000000000E+00  0.00000000000E+00  0.26647236942E+03  0.26647236942E+03  0.00000000000E+00 0.  1.
          1   -1    0    0  501    0  0.00000000000E+00 -0.00000000000E+00 -0.18842554269E+04  0.18842554269E+04  0.00000000000E+00 0. -1.
         23    2    1    2    0    0 -0.28225397143E+03 -0.27897625758E+03 -0.29398286337E+03  0.50212659118E+03  0.90609783840E+02 0.  0.
        254    2    1    2    0    0  0.28225397143E+03  0.27897625758E+03 -0.13238001941E+04  0.16486012051E+04  0.89885700920E+03 0.  0.
        -24    2    4    4    0    0  0.55100930517E+03  0.35615373527E+03 -0.71561604520E+03  0.97416889344E+03  0.80261891743E+02 0.  0.
         24    2    4    4    0    0 -0.26875533374E+03 -0.77177477687E+02 -0.60818414892E+03  0.67443231171E+03  0.82372274523E+02 0.  0.
         11    1    3    3    0    0 -0.22129676411E+03 -0.24131210061E+03 -0.27605310511E+03  0.42826289186E+03  0.00000000000E+00 0. -1.
        -11    1    3    3    0    0 -0.60957207324E+02 -0.37664156976E+02 -0.17929758261E+02  0.73863699317E+02  0.00000000000E+00 0.  1.
          2    1    6    6  502    0 -0.15468335639E+03 -0.16588727928E+01 -0.32184448065E+03  0.35709041198E+03  0.00000000000E+00 0. -1.
          1    1    5    5  503    0  0.44947975107E+02  0.58710363526E+02 -0.76669195320E+02  0.10651475373E+03  0.00000000000E+00 0. -1.
         -2    1    5    5    0  503  0.50606133006E+03  0.29744337174E+03 -0.63894684988E+03  0.86765413970E+03  0.00000000000E+00 0.  1.
         -3    1    6    6    0  502 -0.11407197735E+03 -0.75518604894E+02 -0.28633966827E+03  0.31734189973E+03  0.00000000000E+00 0.  1.
<mgrwt>
<rscale>  0 0.14171831E+04</rscale>
<asrwt>0</asrwt>
<pdfrwt beam="1">  1        1 0.28988544E+00 0.14171831E+04</pdfrwt>
<pdfrwt beam="2">  1       -1 0.40995750E-01 0.14171831E+04</pdfrwt>
<totfact> 0.20254208E+01</totfact>
</mgrwt>
</event>
<event>
12    1  0.1980523E-007  0.3648878E+04  0.7818608E-02  0.8079387E-01
          1   -1    0    0  501    0  0.00000000000E+00  0.00000000000E+00  0.14646901042E+04  0.14646901042E+04  0.00000000000E+00 0. -1.
         -1   -1    0    0    0  501 -0.00000000000E+00 -0.00000000000E+00 -0.22725470347E+04  0.22725470347E+04  0.00000000000E+00 0.  1.
         23    2    1    2    0    0  0.62773354823E+03  0.71646599063E+03  0.10772206537E+04  0.14410478232E+04  0.94029615207E+02 0.  0.
        254    2    1    2    0    0 -0.62773354823E+03 -0.71646599063E+03 -0.18850775843E+04  0.22961893157E+04  0.90088564845E+03 0.  0.
        -24    2    4    4    0    0 -0.15423336534E+03 -0.72886266821E+03 -0.73392962011E+03  0.10488334140E+04  0.79813050466E+02 0.  0.
         24    2    4    4    0    0 -0.47350018290E+03  0.12396677586E+02 -0.11511479642E+04  0.12473559017E+04  0.79993807498E+02 0.  0.
         11    1    3    3    0    0 -0.27622204196E+01  0.58269877457E+01  0.33534159034E+01  0.72683592410E+01  0.00000000000E+00 0. -1.
        -11    1    3    3    0    0  0.63049576865E+03  0.71063900288E+03  0.10738672378E+04  0.14337794639E+04  0.00000000000E+00 0.  1.
          4    1    6    6  502    0 -0.21137871826E+03 -0.30066867836E+02 -0.46738886896E+03  0.51384563237E+03  0.00000000000E+00 0. -1.
          3    1    5    5  503    0 -0.40437664326E+02 -0.35663939824E+03 -0.32361494824E+03  0.48327373175E+03  0.00000000000E+00 0. -1.
         -4    1    5    5    0  503 -0.11379570101E+03 -0.37222326998E+03 -0.41031467187E+03  0.56555968229E+03  0.00000000000E+00 0.  1.
         -3    1    6    6    0  502 -0.26212146463E+03  0.42463545421E+02 -0.68375909522E+03  0.73351026933E+03  0.00000000000E+00 0.  1.
<mgrwt>
<rscale>  0 0.36488777E+04</rscale>
<asrwt>0</asrwt>
<pdfrwt beam="1">  1        1 0.22533694E+00 0.36488777E+04</pdfrwt>
<pdfrwt beam="2">  1       -1 0.34962262E+00 0.36488777E+04</pdfrwt>
<totfact> 0.87124914E-02</totfact>
</mgrwt>
</event>
<event>
12    1  0.2876349E-007  0.2861571E+04  0.7818608E-02  0.8284404E-01
          2   -1    0    0  501    0  0.00000000000E+00  0.00000000000E+00  0.16373476852E+04  0.16373476852E+04  0.00000000000E+00 0. -1.
         -2   -1    0    0    0  501 -0.00000000000E+00 -0.00000000000E+00 -0.12502823576E+04  0.12502823576E+04  0.00000000000E+00 0.  1.
         23    2    1    2    0    0  0.12275447594E+04 -0.63077457060E+02  0.56010643959E+03  0.13540842432E+04  0.94762925099E+02 0.  0.
        254    2    1    2    0    0 -0.12275447594E+04  0.63077457060E+02 -0.17304111196E+03  0.15335457996E+04  0.90054127674E+03 0.  0.
        -24    2    4    4    0    0 -0.65911806145E+02 -0.24598611034E+03 -0.19189336554E+03  0.32871321743E+03  0.79848499709E+02 0.  0.
         24    2    4    4    0    0 -0.11616329533E+04  0.30906356740E+03  0.18852253584E+02  0.12048325822E+04  0.79716602979E+02 0.  0.
         13    1    3    3    0    0  0.45456594663E+03 -0.67368441023E+02  0.19465814693E+03  0.49905961653E+03  0.00000000000E+00 0.  1.
        -13    1    3    3    0    0  0.77297881280E+03  0.42909839624E+01  0.36544829266E+03  0.85502462666E+03  0.00000000000E+00 0. -1.
          4    1    6    6  502    0 -0.52973411234E+03  0.18165127061E+03  0.30155354647E+01  0.56002188113E+03  0.00000000000E+00 0. -1.
          1    1    5    5  503    0 -0.56507542498E+02 -0.10265226786E+03 -0.51971138420E+02  0.12818576241E+03  0.00000000000E+00 0. -1.
         -2    1    5    5    0  503 -0.94042636468E+01 -0.14333384248E+03 -0.13992222712E+03  0.20052745502E+03  0.00000000000E+00 0.  1.
         -3    1    6    6    0  502 -0.63189884095E+03  0.12741229679E+03  0.15836718119E+02  0.64481070106E+03  0.00000000000E+00 0.  1.
<mgrwt>
<rscale>  0 0.28615708E+04</rscale>
<asrwt>0</asrwt>
<pdfrwt beam="1">  1        2 0.25189964E+00 0.28615708E+04</pdfrwt>
<pdfrwt beam="2">  1       -2 0.19235113E+00 0.28615708E+04</pdfrwt>
<totfact> 0.13756624E+00</totfact>
</mgrwt>
</event>
<event>
12    1  0.1980523E-007  0.1218229E+04  0.7818608E-02  0.9097049E-01
         -2   -1    0    0    0  501 -0.00000000000E+00  0.00000000000E+00  0.75963816481E+02  0.75963816481E+02  0.00000000000E+00 0.  1.
          2   -1    0    0  501    0  0.00000000000E+00 -0.00000000000E+00 -0.48841723280E+04  0.48841723280E+04  0.00000000000E+00 0. -1.
         23    2    1    2    0    0  0.17845532375E+03 -0.17718536550E+03 -0.12632509505E+04  0.12940782558E+04  0.12487838846E+03 0.  0.
        254    2    1    2    0    0 -0.17845532375E+03  0.17718536550E+03 -0.35449575610E+04  0.36660578886E+04  0.90000854291E+03 0.  0.
        -24    2    4    4    0    0  0.18564015568E+03 -0.39226888036E+02 -0.27834336133E+04  0.27910094548E+04  0.78930861021E+02 0.  0.
         24    2    4    4    0    0 -0.36409547943E+03  0.21641225354E+03 -0.76152394767E+03  0.87504843385E+03  0.79945338084E+02 0.  0.
         11    1    3    3    0    0  0.77434522675E+01  0.18470208259E+02 -0.64983643330E+02  0.67999879019E+02  0.00000000000E+00 0. -1.
        -11    1    3    3    0    0  0.17071187148E+03 -0.19565557376E+03 -0.11982673072E+04  0.12260783768E+04  0.00000000000E+00 0.  1.
          2    1    6    6  502    0 -0.21932268469E+03  0.15780123249E+03 -0.54223159858E+03  0.60582074535E+03  0.00000000000E+00 0. -1.
          3    1    5    5  503    0  0.26025172763E+02 -0.37065220119E+02 -0.70684654680E+03  0.70829596983E+03  0.00000000000E+00 0. -1.
         -4    1    5    5    0  503  0.15961498292E+03 -0.21616679169E+01 -0.20765870665E+04  0.20827134849E+04  0.00000000000E+00 0.  1.
         -1    1    6    6    0  502 -0.14477279475E+03  0.58611021045E+02 -0.21929234909E+03  0.26922768850E+03  0.00000000000E+00 0.  1.
<mgrwt>
<rscale>  0 0.12182288E+04</rscale>
<asrwt>0</asrwt>
<pdfrwt beam="1">  1        2 0.75141116E+00 0.12182288E+04</pdfrwt>
<pdfrwt beam="2">  1       -2 0.11686740E-01 0.12182288E+04</pdfrwt>
<totfact> 0.26859381E+00</totfact>
</mgrwt>
</event>
<event>
12    1  0.1980523E-007  0.2364973E+04  0.7818608E-02  0.8452735E-01
          2   -1    0    0  501    0  0.00000000000E+00  0.00000000000E+00  0.13430441716E+04  0.13430441716E+04  0.00000000000E+00 0. -1.
         -2   -1    0    0    0  501 -0.00000000000E+00 -0.00000000000E+00 -0.10411234238E+04  0.10411234238E+04  0.00000000000E+00 0.  1.
         23    2    1    2    0    0 -0.91690746021E+03  0.40517950276E+03  0.25552742269E+03  0.10382881360E+04  0.88646880796E+02 0.  0.
        254    2    1    2    0    0  0.91690746021E+03 -0.40517950276E+03  0.46393325162E+02  0.13458794595E+04  0.89685531654E+03 0.  0.
        -24    2    4    4    0    0  0.22752923130E+03 -0.40429213039E+03  0.35299262568E+03  0.58718763601E+03  0.70454583354E+02 0.  0.
         24    2    4    4    0    0  0.68937822890E+03 -0.88737236925E+00 -0.30659930051E+03  0.75869182347E+03  0.79793621350E+02 0.  0.
         11    1    3    3    0    0 -0.75194260804E+03  0.32188068272E+03  0.24201256473E+03  0.85299175915E+03  0.00000000000E+00 0. -1.
        -11    1    3    3    0    0 -0.16496485216E+03  0.83298820040E+02  0.13514857968E+02  0.18529637680E+03  0.00000000000E+00 0.  1.
          4    1    6    6  502    0  0.53853192276E+03 -0.32871923138E+02 -0.22996899408E+03  0.58650058260E+03  0.00000000000E+00 0. -1.
          1    1    5    5  503    0  0.39355268789E+02 -0.45231496475E+02  0.73224058205E+02  0.94638724394E+02  0.00000000000E+00 0. -1.
         -2    1    5    5    0  503  0.18817396252E+03 -0.35906063391E+03  0.27976856747E+03  0.49254891162E+03  0.00000000000E+00 0.  1.
         -3    1    6    6    0  502  0.15084630614E+03  0.31984550768E+02 -0.76630306436E+02  0.17219124086E+03  0.00000000000E+00 0.  1.
<mgrwt>
<rscale>  0 0.23649734E+04</rscale>
<asrwt>0</asrwt>
<pdfrwt beam="1">  1        2 0.20662218E+00 0.23649734E+04</pdfrwt>
<pdfrwt beam="2">  1       -2 0.16017283E+00 0.23649734E+04</pdfrwt>
<totfact> 0.35350364E+00</totfact>
</mgrwt>
</event>
<event>
12    1  0.1980523E-007  0.1900068E+04  0.7818608E-02  0.8654823E-01
          1   -1    0    0  501    0  0.00000000000E+00  0.00000000000E+00  0.89838424819E+03  0.89838424819E+03  0.00000000000E+00 0. -1.
         -1   -1    0    0    0  501 -0.00000000000E+00 -0.00000000000E+00 -0.10046529497E+04  0.10046529497E+04  0.00000000000E+00 0.  1.
         23    2    1    2    0    0 -0.46067765389E+03  0.47795335053E+03 -0.36252111397E+03  0.75911515581E+03  0.64582936027E+02 0.  0.
        254    2    1    2    0    0  0.46067765389E+03 -0.47795335053E+03  0.25625241248E+03  0.11439220421E+04  0.89567239175E+03 0.  0.
        -24    2    4    4    0    0 -0.24377778981E+03 -0.14780497344E+03 -0.57804283437E+02  0.30106238044E+03  0.77609926900E+02 0.  0.
         24    2    4    4    0    0  0.70445544370E+03 -0.33014837709E+03  0.31405669592E+03  0.84285966162E+03  0.80779811142E+02 0.  0.
         13    1    3    3    0    0 -0.35101404553E+03  0.39920106358E+03 -0.29917198097E+03  0.60998051077E+03  0.00000000000E+00 0.  1.
        -13    1    3    3    0    0 -0.10966360836E+03  0.78752286948E+02 -0.63349133008E+02  0.14913464504E+03  0.00000000000E+00 0. -1.
          2    1    6    6  502    0  0.63101784390E+03 -0.26653556128E+03  0.27616856767E+03  0.73857552256E+03  0.00000000000E+00 0. -1.
          3    1    5    5  503    0 -0.93623911284E+02 -0.73444418284E+02  0.11893320207E+02  0.11958666484E+03  0.00000000000E+00 0. -1.
         -4    1    5    5    0  503 -0.15015387853E+03 -0.74360555157E+02 -0.69697603644E+02  0.18147571561E+03  0.00000000000E+00 0.  1.
         -1    1    6    6    0  502  0.73437599798E+02 -0.63612815804E+02  0.37888128254E+02  0.10428413907E+03  0.00000000000E+00 0.  1.
<mgrwt>
<rscale>  0 0.19000678E+04</rscale>
<asrwt>0</asrwt>
<pdfrwt beam="1">  1        1 0.13821296E+00 0.19000678E+04</pdfrwt>
<pdfrwt beam="2">  1       -1 0.15456199E+00 0.19000678E+04</pdfrwt>
<totfact> 0.54925014E+00</totfact>
</mgrwt>
</event>
<event>
12    1  0.1980523E-007  0.1364344E+04  0.7818608E-02  0.8980040E-01
          2   -1    0    0  501    0  0.00000000000E+00  0.00000000000E+00  0.74570524168E+03  0.74570524168E+03  0.00000000000E+00 0. -1.
         -2   -1    0    0    0  501 -0.00000000000E+00 -0.00000000000E+00 -0.62405214982E+03  0.62405214982E+03  0.00000000000E+00 0.  1.
         23    2    1    2    0    0 -0.14195037959E+03 -0.26774169669E+03 -0.19380680891E+03  0.37119427638E+03  0.91589220037E+02 0.  0.
        254    2    1    2    0    0  0.14195037959E+03  0.26774169669E+03  0.31545990078E+03  0.99856311512E+03  0.89765127944E+03 0.  0.
        -24    2    4    4    0    0  0.42543616840E+03 -0.99039013738E+02  0.28466086920E+03  0.52716241894E+03  0.77870057580E+02 0.  0.
         24    2    4    4    0    0 -0.28348578881E+03  0.36678071042E+03  0.30799031575E+02  0.47140069618E+03  0.79860841536E+02 0.  0.
         11    1    3    3    0    0 -0.99437464942E+02 -0.14829209178E+03 -0.16055468181E+03  0.24011697102E+03  0.00000000000E+00 0.  1.
        -11    1    3    3    0    0 -0.42512914644E+02 -0.11944960491E+03 -0.33252127094E+02  0.13107730536E+03  0.00000000000E+00 0. -1.
          2    1    6    6  502    0  0.32248841852E+01 -0.41792797472E+00 -0.28361110162E+01  0.43148658724E+01  0.00000000000E+00 0. -1.
          1    1    5    5  503    0  0.22452167602E+02 -0.16367906238E+02  0.39435148966E+02  0.48240430747E+02  0.00000000000E+00 0. -1.
         -2    1    5    5    0  503  0.40298400080E+03 -0.82671107500E+02  0.24522572023E+03  0.47892198820E+03  0.00000000000E+00 0.  1.
         -1    1    6    6    0  502 -0.28671067300E+03  0.36719863840E+03  0.33635142591E+02  0.46708583030E+03  0.00000000000E+00 0.  1.
<mgrwt>
<rscale>  0 0.13643445E+04</rscale>
<asrwt>0</asrwt>
<pdfrwt beam="1">  1        2 0.11472388E+00 0.13643445E+04</pdfrwt>
<pdfrwt beam="2">  1       -2 0.96008023E-01 0.13643445E+04</pdfrwt>
<totfact> 0.33529938E+01</totfact>
</mgrwt>
</event>
<event>
12    1  0.1980523E-007  0.3177641E+04  0.7818608E-02  0.8194747E-01
         -2   -1    0    0    0  501 -0.00000000000E+00  0.00000000000E+00  0.97600267751E+03  0.97600267751E+03  0.00000000000E+00 0.  1.
          2   -1    0    0  501    0  0.00000000000E+00 -0.00000000000E+00 -0.25864169035E+04  0.25864169035E+04  0.00000000000E+00 0. -1.
         23    2    1    2    0    0  0.82976914214E+03  0.11861365860E+04 -0.53005862022E+03  0.15442287960E+04  0.90794293773E+02 0.  0.
        254    2    1    2    0    0 -0.82976914214E+03 -0.11861365860E+04 -0.10803556058E+04  0.20181907850E+04  0.90027161448E+03 0.  0.
        -24    2    4    4    0    0 -0.68514443493E+03 -0.76343829826E+03 -0.11672919474E+04  0.15559953643E+04  0.79310474062E+02 0.  0.
         24    2    4    4    0    0 -0.14462470721E+03 -0.42269828772E+03  0.86936341569E+02  0.46219542073E+03  0.80476897776E+02 0.  0.
         11    1    3    3    0    0  0.47186644176E+03  0.75127731180E+03 -0.31924095754E+03  0.94286283576E+03  0.00000000000E+00 0.  1.
        -11    1    3    3    0    0  0.35790270038E+03  0.43485927418E+03 -0.21081766267E+03  0.60136596027E+03  0.00000000000E+00 0. -1.
          2    1    6    6  502    0 -0.15451698104E+02 -0.10855429485E+02 -0.75710579659E+01  0.20344931613E+02  0.00000000000E+00 0. -1.
          3    1    5    5  503    0 -0.66125430413E+02 -0.42775673786E+02 -0.84162919907E+02  0.11526373195E+03  0.00000000000E+00 0. -1.
         -2    1    5    5    0  503 -0.61901900452E+03 -0.72066262447E+03 -0.10831290275E+04  0.14407316323E+04  0.00000000000E+00 0.  1.
         -1    1    6    6    0  502 -0.12917300911E+03 -0.41184285824E+03  0.94507399535E+02  0.44185048911E+03  0.00000000000E+00 0.  1.
<mgrwt>
<rscale>  0 0.31776405E+04</rscale>
<asrwt>0</asrwt>
<pdfrwt beam="1">  1        2 0.39791029E+00 0.31776405E+04</pdfrwt>
<pdfrwt beam="2">  1       -2 0.15015426E+00 0.31776405E+04</pdfrwt>
<totfact> 0.78112258E-01</totfact>
</mgrwt>
</event>
<event>
12    1  0.1980523E-007  0.3266648E+04  0.7818608E-02  0.8171434E-01
         -2   -1    0    0    0  501 -0.00000000000E+00  0.00000000000E+00  0.10576101380E+04  0.10576101380E+04  0.00000000000E+00 0. -1.
          2   -1    0    0  501    0  0.00000000000E+00 -0.00000000000E+00 -0.25224299262E+04  0.25224299262E+04  0.00000000000E+00 0.  1.
         23    2    1    2    0    0 -0.89846365250E+03 -0.10744116043E+04 -0.65217112605E+02  0.14050412041E+04  0.91050991677E+02 0.  0.
        254    2    1    2    0    0  0.89846365250E+03  0.10744116043E+04 -0.13996026756E+04  0.21749988600E+04  0.90007508645E+03 0.  0.
        -24    2    4    4    0    0 -0.12843883744E+03  0.15106629491E+03 -0.44661975662E+03  0.49515230454E+03  0.79931453540E+02 0.  0.
         24    2    4    4    0    0  0.10269024899E+04  0.92334530941E+03 -0.95298291897E+03  0.16798465555E+04  0.81318644235E+02 0.  0.
         11    1    3    3    0    0 -0.45988471246E+03 -0.56884305165E+03 -0.77933325639E+02  0.73562896178E+03  0.00000000000E+00 0.  1.
        -11    1    3    3    0    0 -0.43857894004E+03 -0.50556855267E+03  0.12716213034E+02  0.66941224232E+03  0.00000000000E+00 0. -1.
          4    1    6    6  502    0  0.43061430211E+03  0.43656906512E+03 -0.40213626318E+03  0.73330402969E+03  0.00000000000E+00 0. -1.
          1    1    5    5  503    0 -0.18496632664E+02  0.49180915153E+02 -0.56150618817E+02  0.76901104210E+02  0.00000000000E+00 0. -1.
         -2    1    5    5    0  503 -0.10994220477E+03  0.10188537976E+03 -0.39046913780E+03  0.41825120033E+03  0.00000000000E+00 0.  1.
         -3    1    6    6    0  502  0.59628818783E+03  0.48677624429E+03 -0.55084665579E+03  0.94654252580E+03  0.00000000000E+00 0.  1.
<mgrwt>
<rscale>  0 0.32666481E+04</rscale>
<asrwt>0</asrwt>
<pdfrwt beam="1">  1        2 0.38806614E+00 0.32666481E+04</pdfrwt>
<pdfrwt beam="2">  1       -2 0.16270925E+00 0.32666481E+04</pdfrwt>
<totfact> 0.68053826E-01</totfact>
</mgrwt>
</event>
<event>
12    1  0.1980523E-007  0.1498316E+04  0.7818608E-02  0.8885574E-01
         -2   -1    0    0    0  501 -0.00000000000E+00  0.00000000000E+00  0.24576272246E+03  0.24576272246E+03  0.00000000000E+00 0. -1.
          2   -1    0    0  501    0  0.00000000000E+00 -0.00000000000E+00 -0.22836557079E+04  0.22836557079E+04  0.00000000000E+00 0.  1.
         23    2    1    2    0    0  0.33938235634E+03  0.25296615698E+02 -0.10162023078E+03  0.36747547005E+03  0.94293410282E+02 0.  0.
        254    2    1    2    0    0 -0.33938235634E+03 -0.25296615698E+02 -0.19362727547E+04  0.21619429604E+04  0.89945810392E+03 0.  0.
        -24    2    4    4    0    0 -0.30848711104E+03 -0.20802674292E+03 -0.19219860346E+04  0.19592554817E+04  0.78818158470E+02 0.  0.
         24    2    4    4    0    0 -0.30895245301E+02  0.18273012722E+03 -0.14286720102E+02  0.20268747862E+03  0.80828757521E+02 0.  0.
         11    1    3    3    0    0  0.24564491387E+03  0.14035674076E+02 -0.27762573261E+02  0.24760691495E+03  0.00000000000E+00 0. -1.
        -11    1    3    3    0    0  0.93737442471E+02  0.11260941622E+02 -0.73857657521E+02  0.11986855510E+03  0.00000000000E+00 0.  1.
          4    1    6    6  502    0 -0.44537732195E+02  0.18070065470E+03 -0.52198416083E+01  0.18618158595E+03  0.00000000000E+00 0. -1.
          3    1    5    5  503    0 -0.20424080732E+03 -0.12154442702E+03 -0.13972544459E+04  0.14173240073E+04  0.00000000000E+00 0. -1.
         -4    1    5    5    0  503 -0.10424630371E+03 -0.86482315901E+02 -0.52473158869E+03  0.54193147443E+03  0.00000000000E+00 0.  1.
         -3    1    6    6    0  502  0.13642486893E+02  0.20294725159E+01 -0.90668784933E+01  0.16505892673E+02  0.00000000000E+00 0.  1.
<mgrwt>
<rscale>  0 0.14983156E+04</rscale>
<asrwt>0</asrwt>
<pdfrwt beam="1">  1        2 0.35133166E+00 0.14983156E+04</pdfrwt>
<pdfrwt beam="2">  1       -2 0.37809648E-01 0.14983156E+04</pdfrwt>
<totfact> 0.29586517E+01</totfact>
</mgrwt>
</event>
<event>
12    1  0.1980523E-007  0.2169371E+04  0.7818608E-02  0.8531286E-01
          1   -1    0    0  501    0  0.00000000000E+00  0.00000000000E+00  0.94991170827E+03  0.94991170827E+03  0.00000000000E+00 0. -1.
         -1   -1    0    0    0  501 -0.00000000000E+00 -0.00000000000E+00 -0.12385809159E+04  0.12385809159E+04  0.00000000000E+00 0.  1.
         23    2    1    2    0    0 -0.66418091564E+03 -0.12766821527E+03  0.47199991670E+03  0.82978511686E+03  0.91235721750E+02 0.  0.
        254    2    1    2    0    0  0.66418091564E+03  0.12766821527E+03 -0.76066912432E+03  0.13587075073E+04  0.90001839526E+03 0.  0.
        -24    2    4    4    0    0  0.55658320689E+03  0.11971423656E+03 -0.95967710637E+03  0.11188370933E+04  0.81853088725E+02 0.  0.
         24    2    4    4    0    0  0.10759770874E+03  0.79539787073E+01  0.19900798205E+03  0.23987041404E+03  0.79329098744E+02 0.  0.
         13    1    3    3    0    0 -0.95165924180E+02 -0.49761487420E+02  0.60514312579E+02  0.12326694927E+03  0.00000000000E+00 0. -1.
        -13    1    3    3    0    0 -0.56901499146E+03 -0.77906727850E+02  0.41148560412E+03  0.70651816759E+03  0.00000000000E+00 0.  1.
          2    1    6    6  502    0  0.10540391570E+03  0.30750256003E+02  0.15120811614E+03  0.18686748801E+03  0.00000000000E+00 0. -1.
          1    1    5    5  503    0  0.63091153061E+02 -0.11420105364E+02 -0.12128528451E+03  0.13718976871E+03  0.00000000000E+00 0. -1.
         -2    1    5    5    0  503  0.49349205383E+03  0.13113434193E+03 -0.83839182186E+03  0.98164732455E+03  0.00000000000E+00 0.  1.
         -1    1    6    6    0  502  0.21937930431E+01 -0.22796277296E+02  0.47799865909E+02  0.53002926027E+02  0.00000000000E+00 0.  1.
<mgrwt>
<rscale>  0 0.21693709E+04</rscale>
<asrwt>0</asrwt>
<pdfrwt beam="1">  1        1 0.14614026E+00 0.21693709E+04</pdfrwt>
<pdfrwt beam="2">  1       -1 0.19055091E+00 0.21693709E+04</pdfrwt>
<totfact> 0.26539482E+00</totfact>
</mgrwt>
</event>
<event>
12    1  0.1980523E-007  0.1462648E+04  0.7818608E-02  0.8909679E-01
          2   -1    0    0  501    0  0.00000000000E+00  0.00000000000E+00  0.68231602300E+03  0.68231602300E+03  0.00000000000E+00 0. -1.
         -2   -1    0    0    0  501 -0.00000000000E+00 -0.00000000000E+00 -0.78385151734E+03  0.78385151734E+03  0.00000000000E+00 0.  1.
         23    2    1    2    0    0 -0.33886479354E+03  0.58823959086E+00  0.26116168947E+03  0.43791846388E+03  0.93474374189E+02 0.  0.
        254    2    1    2    0    0  0.33886479354E+03 -0.58823959086E+00 -0.36269718381E+03  0.10282490765E+04  0.90050942349E+03 0.  0.
        -24    2    4    4    0    0  0.55367346511E+03 -0.13167550822E+02  0.43988037287E+02  0.56132251612E+03  0.80126957470E+02 0.  0.
         24    2    4    4    0    0 -0.21480867157E+03  0.12579311231E+02 -0.40668522109E+03  0.46692656035E+03  0.79539545218E+02 0.  0.
         11    1    3    3    0    0 -0.18232656688E+02 -0.21568411773E+02  0.34751517462E+02  0.44780510518E+02  0.00000000000E+00 0. -1.
        -11    1    3    3    0    0 -0.32063213686E+03  0.22156651364E+02  0.22641017201E+03  0.39313795336E+03  0.00000000000E+00 0.  1.
          2    1    6    6  502    0 -0.91859514539E+01  0.16635444173E+02 -0.13859911668E+02  0.23520562459E+02  0.00000000000E+00 0. -1.
          3    1    5    5  503    0  0.38230923420E+02 -0.43484842576E+00  0.24389881178E+02  0.45350401350E+02  0.00000000000E+00 0. -1.
         -4    1    5    5    0  503  0.51544254169E+03 -0.12732702396E+02  0.19598156110E+02  0.51597211477E+03  0.00000000000E+00 0.  1.
         -1    1    6    6    0  502 -0.20562272011E+03 -0.40561329415E+01 -0.39282530943E+03  0.44340599789E+03  0.00000000000E+00 0.  1.
<mgrwt>
<rscale>  0 0.14626475E+04</rscale>
<asrwt>0</asrwt>
<pdfrwt beam="1">  1        2 0.10497170E+00 0.14626475E+04</pdfrwt>
<pdfrwt beam="2">  1       -2 0.12059254E+00 0.14626475E+04</pdfrwt>
<totfact> 0.21503470E+01</totfact>
</mgrwt>
</event>
<event>
12    1  0.1980523E-007  0.2278089E+04  0.7818608E-02  0.8486611E-01
         -2   -1    0    0    0  501 -0.00000000000E+00  0.00000000000E+00  0.81579454133E+03  0.81579454133E+03  0.00000000000E+00 0.  1.
          2   -1    0    0  501    0  0.00000000000E+00 -0.00000000000E+00 -0.15903785072E+04  0.15903785072E+04  0.00000000000E+00 0. -1.
         23    2    1    2    0    0 -0.28526645676E+03 -0.85629330115E+03 -0.66971447069E+03  0.11275934727E+04  0.91292927091E+02 0.  0.
        254    2    1    2    0    0  0.28526645676E+03  0.85629330115E+03 -0.10486949514E+03  0.12785795758E+04  0.89952929447E+03 0.  0.
        -24    2    4    4    0    0  0.14178317050E+03  0.25475880563E+03  0.38204611734E+03  0.48745580279E+03  0.81543898690E+02 0.  0.
         24    2    4    4    0    0  0.14348328626E+03  0.60153449552E+03 -0.48691561248E+03  0.79112377298E+03  0.79742132927E+02 0.  0.
         11    1    3    3    0    0 -0.15719131258E+03 -0.46574825055E+03 -0.42090250551E+03  0.64713944462E+03  0.00000000000E+00 0.  1.
        -11    1    3    3    0    0 -0.12807514417E+03 -0.39054505060E+03 -0.24881196518E+03  0.48045402811E+03  0.00000000000E+00 0. -1.
          4    1    6    6  502    0  0.75637495785E+02  0.40896793156E+03 -0.36479980956E+03  0.55322210807E+03  0.00000000000E+00 0. -1.
          1    1    5    5  503    0  0.10374912756E+03  0.23995943930E+03  0.32036218074E+03  0.41349285463E+03  0.00000000000E+00 0. -1.
         -2    1    5    5    0  503  0.38034042943E+02  0.14799366331E+02  0.61683936598E+02  0.73962948160E+02  0.00000000000E+00 0.  1.
         -3    1    6    6    0  502  0.67845790474E+02  0.19256656396E+03 -0.12211580292E+03  0.23790166490E+03  0.00000000000E+00 0.  1.
<mgrwt>
<rscale>  0 0.22780888E+04</rscale>
<asrwt>0</asrwt>
<pdfrwt beam="1">  1        2 0.24467362E+00 0.22780888E+04</pdfrwt>
<pdfrwt beam="2">  1       -2 0.12550685E+00 0.22780888E+04</pdfrwt>
<totfact> 0.48680981E+00</totfact>
</mgrwt>
</event>
<event>
12    1  0.1980523E-007  0.1832795E+04  0.7818608E-02  0.8689051E-01
         -2   -1    0    0    0  501 -0.00000000000E+00  0.00000000000E+00  0.79964941099E+03  0.79964941099E+03  0.00000000000E+00 0.  1.
          2   -1    0    0  501    0  0.00000000000E+00 -0.00000000000E+00 -0.10501905834E+04  0.10501905834E+04  0.00000000000E+00 0. -1.
         23    2    1    2    0    0 -0.63649110061E+03  0.22039302751E+03  0.66861360026E+02  0.68306851851E+03  0.91750486618E+02 0.  0.
        254    2    1    2    0    0  0.63649110061E+03 -0.22039302751E+03 -0.31740253242E+03  0.11667714759E+04  0.89828575719E+03 0.  0.
        -24    2    4    4    0    0  0.56411891003E+03 -0.41770070520E+03 -0.50966888300E+03  0.87111877876E+03  0.79884495625E+02 0.  0.
         24    2    4    4    0    0  0.72372190578E+02  0.19730767769E+03  0.19226635058E+03  0.29565269710E+03  0.79221929359E+02 0.  0.
         11    1    3    3    0    0 -0.29137129943E+03  0.71602723234E+02  0.66124726626E+02  0.30724040030E+03  0.00000000000E+00 0. -1.
        -11    1    3    3    0    0 -0.34511980118E+03  0.14879030427E+03  0.73663339969E+00  0.37582811821E+03  0.00000000000E+00 0.  1.
          4    1    6    6  502    0  0.61824676933E+02  0.65399589807E+02  0.57599629664E+02  0.10685089781E+03  0.00000000000E+00 0. -1.
          1    1    5    5  503    0  0.21258120452E+02 -0.10306346233E+01 -0.85998246056E+01  0.22954887848E+02  0.00000000000E+00 0. -1.
         -2    1    5    5    0  503  0.54286078958E+03 -0.41667007057E+03 -0.50106905839E+03  0.84816389091E+03  0.00000000000E+00 0.  1.
         -3    1    6    6    0  502  0.10547513645E+02  0.13190808788E+03  0.13466672092E+03  0.18880179929E+03  0.00000000000E+00 0.  1.
<mgrwt>
<rscale>  0 0.18327949E+04</rscale>
<asrwt>0</asrwt>
<pdfrwt beam="1">  1        2 0.16156778E+00 0.18327949E+04</pdfrwt>
<pdfrwt beam="2">  1       -2 0.12302299E+00 0.18327949E+04</pdfrwt>
<totfact> 0.10997294E+01</totfact>
</mgrwt>
</event>
<event>
12    1  0.2970541E-007  0.1903991E+04  0.7818608E-02  0.8652872E-01
          2   -1    0    0  501    0  0.00000000000E+00  0.00000000000E+00  0.19703725182E+04  0.19703725182E+04  0.00000000000E+00 0. -1.
         -2   -1    0    0    0  501 -0.00000000000E+00 -0.00000000000E+00 -0.45996139306E+03  0.45996139306E+03  0.00000000000E+00 0.  1.
         23    2    1    2    0    0 -0.27607275748E+03 -0.48062296742E+03  0.12048856318E+04  0.13294538312E+04  0.92105913848E+02 0.  0.
        254    2    1    2    0    0  0.27607275748E+03  0.48062296742E+03  0.30552549329E+03  0.11008800800E+04  0.90076440830E+03 0.  0.
        -24    2    4    4    0    0  0.44953115376E+03  0.58381947073E+03  0.19211943555E+02  0.74154795392E+03  0.81245532706E+02 0.  0.
         24    2    4    4    0    0 -0.17345839628E+03 -0.10319650331E+03  0.28631354973E+03  0.35933212608E+03  0.80042454584E+02 0.  0.
         11    1    3    3    0    0 -0.12719773967E+03 -0.15981060956E+03  0.36754705009E+03  0.42048725300E+03  0.00000000000E+00 0.  1.
        -11    1    3    3    0    0 -0.14887501782E+03 -0.32081235785E+03  0.83733858173E+03  0.90896657823E+03  0.00000000000E+00 0. -1.
          2    1    6    6  502    0  0.86162064102E+01 -0.49890761984E+01  0.95337774716E+01  0.13784876028E+02  0.00000000000E+00 0. -1.
          3    1    5    5  503    0  0.88916131396E+02  0.16812022236E+03  0.19962574206E+02  0.19123020671E+03  0.00000000000E+00 0. -1.
         -2    1    5    5    0  503  0.36061502236E+03  0.41569924837E+03 -0.75063065070E+00  0.55031774721E+03  0.00000000000E+00 0.  1.
         -1    1    6    6    0  502 -0.18207460269E+03 -0.98207427116E+02  0.27677977226E+03  0.34554725005E+03  0.00000000000E+00 0.  1.
<mgrwt>
<rscale>  0 0.19039908E+04</rscale>
<asrwt>0</asrwt>
<pdfrwt beam="1">  1        2 0.30313423E+00 0.19039908E+04</pdfrwt>
<pdfrwt beam="2">  1       -2 0.70763292E-01 0.19039908E+04</pdfrwt>
<totfact> 0.11793806E+01</totfact>
</mgrwt>
</event>
<event>
12    1  0.1980523E-007  0.2495340E+04  0.7818608E-02  0.8404648E-01
         -2   -1    0    0    0  501 -0.00000000000E+00  0.00000000000E+00  0.53374140166E+03  0.53374140166E+03  0.00000000000E+00 0.  1.
          2   -1    0    0  501    0  0.00000000000E+00 -0.00000000000E+00 -0.29165431446E+04  0.29165431446E+04  0.00000000000E+00 0. -1.
         23    2    1    2    0    0  0.82574244590E+03  0.49546260175E+03 -0.34662459158E+03  0.10274465708E+04  0.90355252416E+02 0.  0.
        254    2    1    2    0    0 -0.82574244590E+03 -0.49546260175E+03 -0.20361771514E+04  0.24228379755E+04  0.89263244788E+03 0.  0.
        -24    2    4    4    0    0 -0.38994432444E+03 -0.34806500285E+03 -0.26549815472E+03  0.59160504739E+03  0.79381607220E+02 0.  0.
         24    2    4    4    0    0 -0.43579812146E+03 -0.14739759890E+03 -0.17706789967E+04  0.18312329281E+04  0.80398214877E+02 0.  0.
         13    1    3    3    0    0  0.73087017004E+03  0.41167135219E+03 -0.27951330859E+03  0.88417882657E+03  0.00000000000E+00 0.  1.
        -13    1    3    3    0    0  0.94872275861E+02  0.83791249558E+02 -0.67111282990E+02  0.14326774422E+03  0.00000000000E+00 0. -1.
          4    1    6    6  502    0 -0.12367876569E+03 -0.13214918940E+02 -0.57000822025E+03  0.58342132488E+03  0.00000000000E+00 0. -1.
          3    1    5    5  503    0 -0.16581890865E+03 -0.15184749817E+03 -0.15848769794E+03  0.27508530234E+03  0.00000000000E+00 0. -1.
         -4    1    5    5    0  503 -0.22412541578E+03 -0.19621750468E+03 -0.10701045679E+03  0.31651974504E+03  0.00000000000E+00 0.  1.
         -3    1    6    6    0  502 -0.31211935577E+03 -0.13418267997E+03 -0.12006707764E+04  0.12478116032E+04  0.00000000000E+00 0.  1.
<mgrwt>
<rscale>  0 0.24953395E+04</rscale>
<asrwt>0</asrwt>
<pdfrwt beam="1">  1        2 0.44869894E+00 0.24953395E+04</pdfrwt>
<pdfrwt beam="2">  1       -2 0.82114063E-01 0.24953395E+04</pdfrwt>
<totfact> 0.22820303E+00</totfact>
</mgrwt>
</event>
<event>
12    1  0.1980523E-007  0.4395748E+04  0.7818608E-02  0.7929147E-01
          1   -1    0    0  501    0  0.00000000000E+00  0.00000000000E+00  0.24752518686E+04  0.24752518686E+04  0.00000000000E+00 0. -1.
         -1   -1    0    0    0  501 -0.00000000000E+00 -0.00000000000E+00 -0.19515796376E+04  0.19515796376E+04  0.00000000000E+00 0.  1.
         23    2    1    2    0    0  0.19990701507E+04  0.63134552207E+03  0.63960079540E+02  0.20994248998E+04  0.92819084578E+02 0.  0.
        254    2    1    2    0    0 -0.19990701507E+04 -0.63134552207E+03  0.45971215145E+03  0.23274066064E+04  0.90033749992E+03 0.  0.
        -24    2    4    4    0    0 -0.10929465222E+04 -0.16575069171E+01 -0.75504329350E+02  0.10983675528E+04  0.78584537772E+02 0.  0.
         24    2    4    4    0    0 -0.90612362844E+03 -0.62968801515E+03  0.53521648080E+03  0.12290390536E+04  0.80704940512E+02 0.  0.
         13    1    3    3    0    0  0.54732144399E+03  0.17380859342E+03  0.58962812528E+02  0.57727532726E+03  0.00000000000E+00 0.  1.
        -13    1    3    3    0    0  0.14517487067E+04  0.45753692865E+03  0.49972670121E+01  0.15221495725E+04  0.00000000000E+00 0. -1.
          4    1    6    6  502    0 -0.48078552662E+03 -0.30591507547E+03  0.23944856916E+03  0.61812164925E+03  0.00000000000E+00 0. -1.
          3    1    5    5  503    0 -0.12307496115E+03  0.67125897774E+01 -0.32672025140E+02  0.12751457231E+03  0.00000000000E+00 0. -1.
         -4    1    5    5    0  503 -0.96987156106E+03 -0.83700966946E+01 -0.42832304210E+02  0.97085298051E+03  0.00000000000E+00 0.  1.
         -1    1    6    6    0  502 -0.42533810182E+03 -0.32377293968E+03  0.29576791164E+03  0.61091740431E+03  0.00000000000E+00 0.  1.
<mgrwt>
<rscale>  0 0.43957485E+04</rscale>
<asrwt>0</asrwt>
<pdfrwt beam="1">  1        1 0.38080798E+00 0.43957485E+04</pdfrwt>
<pdfrwt beam="2">  1       -1 0.30024302E+00 0.43957485E+04</pdfrwt>
<totfact> 0.35146632E-02</totfact>
</mgrwt>
</event>
<event>
12    1  0.1980523E-007  0.2222264E+04  0.7818608E-02  0.8509218E-01
          2   -1    0    0  501    0  0.00000000000E+00  0.00000000000E+00  0.91393129636E+03  0.91393129636E+03  0.00000000000E+00 0. -1.
         -2   -1    0    0    0  501 -0.00000000000E+00 -0.00000000000E+00 -0.13508833461E+04  0.13508833461E+04  0.00000000000E+00 0.  1.
         23    2    1    2    0    0 -0.47667859626E+03  0.60204569162E+03  0.34862001675E+03  0.84851527966E+03  0.93598957349E+02 0.  0.
        254    2    1    2    0    0  0.47667859626E+03 -0.60204569162E+03 -0.78557206653E+03  0.14162993628E+04  0.89392332697E+03 0.  0.
        -24    2    4    4    0    0 -0.66799045972E+02 -0.22775249504E+03  0.13309494688E+03  0.28233579570E+03  0.75272339626E+02 0.  0.
         24    2    4    4    0    0  0.54347764223E+03 -0.37429319658E+03 -0.91866701340E+03  0.11339635671E+04  0.80380006413E+02 0.  0.
         11    1    3    3    0    0 -0.36573960140E+03  0.49449570583E+03  0.24282309132E+03  0.66125223084E+03  0.00000000000E+00 0.  1.
        -11    1    3    3    0    0 -0.11093899486E+03  0.10754998579E+03  0.10579692543E+03  0.18726304882E+03  0.00000000000E+00 0. -1.
          4    1    6    6  502    0  0.28725405105E+03 -0.21011620941E+03 -0.42860022040E+03  0.55710130158E+03  0.00000000000E+00 0. -1.
          3    1    5    5  503    0 -0.96720624366E+01  0.35163842143E+01  0.92945536834E+01  0.13867316896E+02  0.00000000000E+00 0. -1.
         -4    1    5    5    0  503 -0.57126983536E+02 -0.23126887925E+03  0.12380039319E+03  0.26846847881E+03  0.00000000000E+00 0.  1.
         -3    1    6    6    0  502  0.25622359119E+03 -0.16417698717E+03 -0.49006679300E+03  0.57686226554E+03  0.00000000000E+00 0.  1.
<mgrwt>
<rscale>  0 0.22222642E+04</rscale>
<asrwt>0</asrwt>
<pdfrwt beam="1">  1        2 0.14060481E+00 0.22222642E+04</pdfrwt>
<pdfrwt beam="2">  1       -2 0.20782821E+00 0.22222642E+04</pdfrwt>
<totfact> 0.30949956E+00</totfact>
</mgrwt>
</event>
<event>
12    1  0.1980523E-007  0.1187587E+04  0.7818608E-02  0.9123791E-01
          1   -1    0    0  501    0  0.00000000000E+00  0.00000000000E+00  0.32026894440E+04  0.32026894440E+04  0.00000000000E+00 0. -1.
         -1   -1    0    0    0  501 -0.00000000000E+00 -0.00000000000E+00 -0.11009208769E+03  0.11009208769E+03  0.00000000000E+00 0.  1.
         23    2    1    2    0    0 -0.17745340711E+03  0.15419697517E+03  0.54734888335E+03  0.60239700742E+03  0.89582004859E+02 0.  0.
        254    2    1    2    0    0  0.17745340711E+03 -0.15419697517E+03  0.25452484730E+04  0.27103845243E+04  0.90145885176E+03 0.  0.
        -24    2    4    4    0    0  0.40957264956E+02  0.22463552066E+02 -0.49689618591E+02  0.10464001635E+03  0.79362246069E+02 0.  0.
         24    2    4    4    0    0  0.13649614215E+03 -0.17666052724E+03  0.25949380915E+04  0.26057445079E+04  0.79753387714E+02 0.  0.
         11    1    3    3    0    0 -0.95971971830E+02  0.30491963971E+02  0.17903114841E+03  0.20540820661E+03  0.00000000000E+00 0.  1.
        -11    1    3    3    0    0 -0.81481435280E+02  0.12370501120E+03  0.36831773495E+03  0.39698880081E+03  0.00000000000E+00 0. -1.
          4    1    6    6  502    0  0.11793227847E+03 -0.15552372196E+03  0.18483786873E+04  0.18586552725E+04  0.00000000000E+00 0. -1.
          3    1    5    5  503    0  0.52059889398E+02  0.97179811992E+01 -0.63590384230E+02  0.82755109868E+02  0.00000000000E+00 0. -1.
         -4    1    5    5    0  503 -0.11102624442E+02  0.12745570867E+02  0.13900765639E+02  0.21884906479E+02  0.00000000000E+00 0.  1.
         -3    1    6    6    0  502  0.18563863687E+02 -0.21136805273E+02  0.74655940427E+03  0.74708923542E+03  0.00000000000E+00 0.  1.
<mgrwt>
<rscale>  0 0.11875871E+04</rscale>
<asrwt>0</asrwt>
<pdfrwt beam="1">  1        1 0.49272138E+00 0.11875871E+04</pdfrwt>
<pdfrwt beam="2">  1       -1 0.16937247E-01 0.11875871E+04</pdfrwt>
<totfact> 0.11496631E+01</totfact>
</mgrwt>
</event>
<event>
12    1  0.1980523E-007  0.2245270E+04  0.7818608E-02  0.8499819E-01
          2   -1    0    0  501    0  0.00000000000E+00  0.00000000000E+00  0.18433609947E+04  0.18433609947E+04  0.00000000000E+00 0. -1.
         -2   -1    0    0    0  501 -0.00000000000E+00 -0.00000000000E+00 -0.68370181967E+03  0.68370181967E+03  0.00000000000E+00 0.  1.
         23    2    1    2    0    0 -0.11514014513E+03 -0.76699204674E+03  0.10846597729E+04  0.13363596596E+04  0.88522674991E+02 0.  0.
        254    2    1    2    0    0  0.11514014513E+03  0.76699204674E+03  0.74999402117E+02  0.11907031548E+04  0.90034162389E+03 0.  0.
        -24    2    4    4    0    0  0.47881388205E+03  0.27935225012E+03 -0.57732533160E+02  0.56294192273E+03  0.79184276762E+02 0.  0.
         24    2    4    4    0    0 -0.36367373692E+03  0.48763979662E+03  0.13273193528E+03  0.62776123206E+03  0.80095191231E+02 0.  0.
         13    1    3    3    0    0 -0.94604272694E+01 -0.24659739525E+03  0.39847969810E+03  0.46870656581E+03  0.00000000000E+00 0. -1.
        -13    1    3    3    0    0 -0.10567971786E+03 -0.52039465149E+03  0.68618007479E+03  0.86765309375E+03  0.00000000000E+00 0.  1.
          2    1    6    6  502    0 -0.23899930630E+03  0.26750210213E+03  0.10182737057E+03  0.37288987175E+03  0.00000000000E+00 0. -1.
          3    1    5    5  503    0  0.23228439254E+03  0.18072223436E+03 -0.36626702280E+02  0.29657727547E+03  0.00000000000E+00 0. -1.
         -2    1    5    5    0  503  0.24652948952E+03  0.98630015766E+02 -0.21105830880E+02  0.26636464726E+03  0.00000000000E+00 0.  1.
         -1    1    6    6    0  502 -0.12467443062E+03  0.22013769449E+03  0.30904564706E+02  0.25487136031E+03  0.00000000000E+00 0.  1.
<mgrwt>
<rscale>  0 0.22452699E+04</rscale>
<asrwt>0</asrwt>
<pdfrwt beam="1">  1        2 0.28359400E+00 0.22452699E+04</pdfrwt>
<pdfrwt beam="2">  1       -2 0.10518490E+00 0.22452699E+04</pdfrwt>
<totfact> 0.54417863E+00</totfact>
</mgrwt>
</event>
<event>
12    1  0.1980523E-007  0.3526657E+04  0.7818608E-02  0.8107501E-01
          2   -1    0    0  501    0  0.00000000000E+00  0.00000000000E+00  0.30207732976E+04  0.30207732976E+04  0.00000000000E+00 0. -1.
         -2   -1    0    0    0  501 -0.00000000000E+00 -0.00000000000E+00 -0.10293150751E+04  0.10293150751E+04  0.00000000000E+00 0.  1.
         23    2    1    2    0    0  0.13039533437E+03  0.10168043581E+04  0.24136018377E+04  0.26239458630E+04  0.93402437061E+02 0.  0.
        254    2    1    2    0    0 -0.13039533437E+03 -0.10168043581E+04 -0.42214361518E+03  0.14261425096E+04  0.89709708510E+03 0.  0.
        -24    2    4    4    0    0  0.20779361077E+03 -0.16358103926E+02 -0.27828704258E+03  0.35736862720E+03  0.82600759100E+02 0.  0.
         24    2    4    4    0    0 -0.33818894514E+03 -0.10004462542E+04 -0.14385657260E+03  0.10687738824E+04  0.79488541313E+02 0.  0.
         11    1    3    3    0    0 -0.12406373073E+02  0.48598422907E+02  0.10046205008E+03  0.11228690176E+03  0.00000000000E+00 0. -1.
        -11    1    3    3    0    0  0.14280170744E+03  0.96820593519E+03  0.23131397876E+04  0.25116589613E+04  0.00000000000E+00 0.  1.
          4    1    6    6  502    0 -0.48521950996E+02 -0.83021198116E+02 -0.25259829094E+02  0.99423126238E+02  0.00000000000E+00 0. -1.
          1    1    5    5  503    0  0.13995467123E+03 -0.34890678452E+02 -0.13409800295E+03  0.19694401194E+03  0.00000000000E+00 0. -1.
         -2    1    5    5    0  503  0.67838939541E+02  0.18532574526E+02 -0.14418903962E+03  0.16042461527E+03  0.00000000000E+00 0.  1.
         -3    1    6    6    0  502 -0.28966699414E+03 -0.91742505605E+03 -0.11859674351E+03  0.96935075620E+03  0.00000000000E+00 0.  1.
<mgrwt>
<rscale>  0 0.35266571E+04</rscale>
<asrwt>0</asrwt>
<pdfrwt beam="1">  1        2 0.46473435E+00 0.35266571E+04</pdfrwt>
<pdfrwt beam="2">  1       -2 0.15835617E+00 0.35266571E+04</pdfrwt>
<totfact> 0.35863240E-01</totfact>
</mgrwt>
</event>
<event>
12    1  0.1980523E-007  0.1354065E+04  0.7818608E-02  0.8987756E-01
          1   -1    0    0  501    0  0.00000000000E+00  0.00000000000E+00  0.11537017436E+04  0.11537017436E+04  0.00000000000E+00 0. -1.
         -1   -1    0    0    0  501 -0.00000000000E+00 -0.00000000000E+00 -0.39730650490E+03  0.39730650490E+03  0.00000000000E+00 0.  1.
         23    2    1    2    0    0  0.15431023568E+03  0.30581463125E+03  0.55006607501E+02  0.35939718801E+03  0.93842284492E+02 0.  0.
        254    2    1    2    0    0 -0.15431023568E+03 -0.30581463125E+03  0.70138863122E+03  0.11916110605E+04  0.90036474276E+03 0.  0.
        -24    2    4    4    0    0  0.19404695030E+03  0.23235581116E+03  0.28066442458E+03  0.42061721307E+03  0.80640429092E+02 0.  0.
         24    2    4    4    0    0 -0.34835718599E+03 -0.53817044241E+03  0.42072420664E+03  0.77099384744E+03  0.80265189346E+02 0.  0.
         13    1    3    3    0    0  0.12316707722E+03  0.22416958877E+03 -0.68038677546E+00  0.25577841262E+03  0.00000000000E+00 0.  1.
        -13    1    3    3    0    0  0.31143158465E+02  0.81645042485E+02  0.55686994277E+02  0.10361877539E+03  0.00000000000E+00 0. -1.
          2    1    6    6  502    0 -0.16900567551E+03 -0.19182054868E+03  0.17986909072E+03  0.31258747743E+03  0.00000000000E+00 0. -1.
          3    1    5    5  503    0  0.15031254644E+03  0.11878382605E+03  0.17160002825E+03  0.25719647868E+03  0.00000000000E+00 0. -1.
         -4    1    5    5    0  503  0.43734403863E+02  0.11357198511E+03  0.10906439633E+03  0.16342073439E+03  0.00000000000E+00 0.  1.
         -1    1    6    6    0  502 -0.17935151048E+03 -0.34634989373E+03  0.24085511592E+03  0.45840637001E+03  0.00000000000E+00 0.  1.
<mgrwt>
<rscale>  0 0.13540653E+04</rscale>
<asrwt>0</asrwt>
<pdfrwt beam="1">  1        1 0.17749257E+00 0.13540653E+04</pdfrwt>
<pdfrwt beam="2">  1       -1 0.61124078E-01 0.13540653E+04</pdfrwt>
<totfact> 0.30703082E+01</totfact>
</mgrwt>
</event>
<event>
12    1  0.1980523E-007  0.2188403E+04  0.7818608E-02  0.8523271E-01
          1   -1    0    0  501    0  0.00000000000E+00  0.00000000000E+00  0.33252678173E+04  0.33252678173E+04  0.00000000000E+00 0. -1.
         -1   -1    0    0    0  501 -0.00000000000E+00 -0.00000000000E+00 -0.36005431771E+03  0.36005431771E+03  0.00000000000E+00 0.  1.
         23    2    1    2    0    0 -0.86497570929E+03 -0.19454408535E+03  0.91430115065E+03  0.12767635571E+04  0.90267424118E+02 0.  0.
        254    2    1    2    0    0  0.86497570929E+03  0.19454408535E+03  0.20509123489E+04  0.24085585779E+04  0.89937899761E+03 0.  0.
        -24    2    4    4    0    0  0.55683542487E+03 -0.31883190286E+03  0.89438956402E+03  0.11038123046E+04  0.82154968136E+02 0.  0.
         24    2    4    4    0    0  0.30814028442E+03  0.51337598822E+03  0.11565227849E+04  0.13047462733E+04  0.79451529956E+02 0.  0.
         13    1    3    3    0    0 -0.27956800073E+03 -0.42879364083E+02  0.23927566134E+03  0.37047233231E+03  0.00000000000E+00 0. -1.
        -13    1    3    3    0    0 -0.58540770856E+03 -0.15166472127E+03  0.67502548932E+03  0.90629122480E+03  0.00000000000E+00 0.  1.
          4    1    6    6  502    0  0.26053231125E+03  0.40394412929E+03  0.98188619610E+03  0.10932284514E+04  0.00000000000E+00 0. -1.
          1    1    5    5  503    0  0.65186694338E+02 -0.55874158469E+02  0.83727609994E+02  0.11992305608E+03  0.00000000000E+00 0. -1.
         -2    1    5    5    0  503  0.49164873054E+03 -0.26295774439E+03  0.81066195402E+03  0.98388924848E+03  0.00000000000E+00 0.  1.
         -3    1    6    6    0  502  0.47607973168E+02  0.10943185893E+03  0.17463658877E+03  0.21151782194E+03  0.00000000000E+00 0.  1.
<mgrwt>
<rscale>  0 0.21884031E+04</rscale>
<asrwt>0</asrwt>
<pdfrwt beam="1">  1        1 0.51157964E+00 0.21884031E+04</pdfrwt>
<pdfrwt beam="2">  1       -1 0.55392974E-01 0.21884031E+04</pdfrwt>
<totfact> 0.10293937E+00</totfact>
</mgrwt>
</event>
<event>
12    1  0.1980523E-007  0.1446626E+04  0.7818608E-02  0.8920743E-01
         -2   -1    0    0    0  501 -0.00000000000E+00  0.00000000000E+00  0.23869218590E+03  0.23869218590E+03  0.00000000000E+00 0.  1.
          2   -1    0    0  501    0  0.00000000000E+00 -0.00000000000E+00 -0.21918675264E+04  0.21918675264E+04  0.00000000000E+00 0. -1.
         23    2    1    2    0    0  0.33834298262E+03  0.26929831259E+03 -0.49156670170E+03  0.66110062160E+03  0.91753226679E+02 0.  0.
        254    2    1    2    0    0 -0.33834298262E+03 -0.26929831259E+03 -0.14616086388E+04  0.17694590907E+04  0.89871469646E+03 0.  0.
        -24    2    4    4    0    0 -0.15413708937E+03 -0.59224856889E+03 -0.91173145956E+03  0.11008990186E+04  0.78789499332E+02 0.  0.
         24    2    4    4    0    0 -0.18420589324E+03  0.32295025631E+03 -0.54987717922E+03  0.66856007206E+03  0.79868508006E+02 0.  0.
         11    1    3    3    0    0  0.26973789474E+03  0.17218744545E+03 -0.32173610587E+03  0.45378537884E+03  0.00000000000E+00 0.  1.
        -11    1    3    3    0    0  0.68605087878E+02  0.97110867135E+02 -0.16983059584E+03  0.20731524276E+03  0.00000000000E+00 0. -1.
          4    1    6    6  502    0 -0.18024759327E+03  0.26547049918E+03 -0.44109335364E+03  0.54546047285E+03  0.00000000000E+00 0. -1.
          1    1    5    5  503    0 -0.15337481850E+03 -0.59063578077E+03 -0.89007977846E+03  0.10791739769E+04  0.00000000000E+00 0. -1.
         -4    1    5    5    0  503 -0.76227087038E+00 -0.16127881276E+01 -0.21651681099E+02  0.21725041699E+02  0.00000000000E+00 0.  1.
         -3    1    6    6    0  502 -0.39582999716E+01  0.57479757130E+02 -0.10878382558E+03  0.12309959921E+03  0.00000000000E+00 0.  1.
<mgrwt>
<rscale>  0 0.14466259E+04</rscale>
<asrwt>0</asrwt>
<pdfrwt beam="1">  1        2 0.33721038E+00 0.14466259E+04</pdfrwt>
<pdfrwt beam="2">  1       -2 0.36721875E-01 0.14466259E+04</pdfrwt>
<totfact> 0.35402969E+01</totfact>
</mgrwt>
</event>
<event>
12    1  0.1980523E-007  0.1732484E+04  0.7818608E-02  0.8743051E-01
         -2   -1    0    0    0  501 -0.00000000000E+00  0.00000000000E+00  0.49485526424E+03  0.49485526424E+03  0.00000000000E+00 0.  1.
          2   -1    0    0  501    0  0.00000000000E+00 -0.00000000000E+00 -0.15163535411E+04  0.15163535411E+04  0.00000000000E+00 0. -1.
         23    2    1    2    0    0  0.35897902545E+03  0.35093545326E+03 -0.81461040803E+03  0.96084165071E+03  0.87206237175E+02 0.  0.
        254    2    1    2    0    0 -0.35897902545E+03 -0.35093545326E+03 -0.20688786883E+03  0.10503671546E+04  0.89913677279E+03 0.  0.
        -24    2    4    4    0    0 -0.32895251270E+03 -0.64213684906E+03 -0.15205505365E+03  0.74200757684E+03  0.83096427188E+02 0.  0.
         24    2    4    4    0    0 -0.30026512748E+02  0.29120139580E+03 -0.54832815178E+02  0.30835957778E+03  0.79869563685E+02 0.  0.
         11    1    3    3    0    0  0.72853188263E+02  0.12563058982E+03 -0.24193236968E+03  0.28217353461E+03  0.00000000000E+00 0. -1.
        -11    1    3    3    0    0  0.28612583719E+03  0.22530486344E+03 -0.57267803836E+03  0.67866811610E+03  0.00000000000E+00 0.  1.
          4    1    6    6  502    0  0.26039116806E+02  0.68845494233E+02 -0.21150536746E+02  0.76583829134E+02  0.00000000000E+00 0. -1.
          1    1    5    5  503    0 -0.14296694294E+03 -0.20838885955E+03 -0.29635843038E+02  0.25444792542E+03  0.00000000000E+00 0. -1.
         -2    1    5    5    0  503 -0.18598556976E+03 -0.43374798951E+03 -0.12241921061E+03  0.48755965142E+03  0.00000000000E+00 0.  1.
         -1    1    6    6    0  502 -0.56065629554E+02  0.22235590157E+03 -0.33682278432E+02  0.23177574865E+03  0.00000000000E+00 0.  1.
<mgrwt>
<rscale>  0 0.17324844E+04</rscale>
<asrwt>0</asrwt>
<pdfrwt beam="1">  1        2 0.23328516E+00 0.17324844E+04</pdfrwt>
<pdfrwt beam="2">  1       -2 0.76131579E-01 0.17324844E+04</pdfrwt>
<totfact> 0.18216292E+01</totfact>
</mgrwt>
</event>
<event>
12    1  0.1980523E-007  0.2007537E+04  0.7818608E-02  0.8603105E-01
          1   -1    0    0  501    0  0.00000000000E+00  0.00000000000E+00  0.18449240324E+04  0.18449240324E+04  0.00000000000E+00 0. -1.
         -1   -1    0    0    0  501 -0.00000000000E+00 -0.00000000000E+00 -0.54612073859E+03  0.54612073859E+03  0.00000000000E+00 0.  1.
         23    2    1    2    0    0 -0.22173825378E+03  0.67820552742E+03  0.95056340185E+03  0.11920444776E+04  0.90932200494E+02 0.  0.
        254    2    1    2    0    0  0.22173825378E+03 -0.67820552742E+03  0.34823989191E+03  0.11990002933E+04  0.89844314814E+03 0.  0.
        -24    2    4    4    0    0 -0.29418906032E+01 -0.22421393405E+03  0.58691832104E+03  0.63324903111E+03  0.79061222378E+02 0.  0.
         24    2    4    4    0    0  0.22468014438E+03 -0.45399159337E+03 -0.23867842912E+03  0.56575126221E+03  0.80731431521E+02 0.  0.
         13    1    3    3    0    0 -0.19265408752E+03  0.50374537381E+03  0.76155366282E+03  0.93318753765E+03  0.00000000000E+00 0. -1.
        -13    1    3    3    0    0 -0.29084166261E+02  0.17446015361E+03  0.18900973903E+03  0.25885693997E+03  0.00000000000E+00 0.  1.
          2    1    6    6  502    0  0.18749973447E+03 -0.39783299303E+03 -0.17588728941E+03  0.47367032771E+03  0.00000000000E+00 0. -1.
          1    1    5    5  503    0 -0.34973900462E+02 -0.12634229516E+03  0.38278981498E+03  0.40461536267E+03  0.00000000000E+00 0. -1.
         -2    1    5    5    0  503  0.32032009858E+02 -0.97871638895E+02  0.20412850606E+03  0.22863366843E+03  0.00000000000E+00 0.  1.
         -1    1    6    6    0  502  0.37180409908E+02 -0.56158600335E+02 -0.62791139715E+02  0.92080934505E+02  0.00000000000E+00 0.  1.
<mgrwt>
<rscale>  0 0.20075371E+04</rscale>
<asrwt>0</asrwt>
<pdfrwt beam="1">  1        1 0.28383446E+00 0.20075371E+04</pdfrwt>
<pdfrwt beam="2">  1       -1 0.84018576E-01 0.20075371E+04</pdfrwt>
<totfact> 0.49420883E+00</totfact>
</mgrwt>
</event>
<event>
12    1  0.1980523E-007  0.2897895E+04  0.7818608E-02  0.8273504E-01
          1   -1    0    0  501    0  0.00000000000E+00  0.00000000000E+00  0.13139494941E+04  0.13139494941E+04  0.00000000000E+00 0. -1.
         -1   -1    0    0    0  501 -0.00000000000E+00 -0.00000000000E+00 -0.15978158792E+04  0.15978158792E+04  0.00000000000E+00 0.  1.
         23    2    1    2    0    0  0.10711316284E+04 -0.71621098444E+03 -0.34919663535E+03  0.13380843857E+04  0.90831676687E+02 0.  0.
        254    2    1    2    0    0 -0.10711316284E+04  0.71621098444E+03  0.65330250167E+02  0.15736809876E+04  0.90106751655E+03 0.  0.
        -24    2    4    4    0    0 -0.10766043055E+04  0.80970250058E+03  0.22907024737E+03  0.13686339137E+04  0.77399233738E+02 0.  0.
         24    2    4    4    0    0  0.54726770885E+01 -0.93491516145E+02 -0.16373999720E+03  0.20504707387E+03  0.80392176439E+02 0.  0.
         11    1    3    3    0    0  0.72999388777E+03 -0.43888642096E+03 -0.24408704194E+03  0.88605352588E+03  0.00000000000E+00 0. -1.
        -11    1    3    3    0    0  0.34113774067E+03 -0.27732456348E+03 -0.10510959341E+03  0.45203085984E+03  0.00000000000E+00 0.  1.
          4    1    6    6  502    0  0.15327296849E+02 -0.34993442219E+02 -0.13271012308E+03  0.13809939824E+03  0.00000000000E+00 0. -1.
          3    1    5    5  503    0 -0.27788395351E+03  0.19028864948E+03  0.87836890381E+02  0.34805830123E+03  0.00000000000E+00 0. -1.
         -4    1    5    5    0  503 -0.79872035202E+03  0.61941385110E+03  0.14123335699E+03  0.10205756125E+04  0.00000000000E+00 0.  1.
         -3    1    6    6    0  502 -0.98546197607E+01 -0.58498073926E+02 -0.31029874122E+02  0.66947675626E+02  0.00000000000E+00 0.  1.
<mgrwt>
<rscale>  0 0.28978954E+04</rscale>
<asrwt>0</asrwt>
<pdfrwt beam="1">  1        1 0.20214608E+00 0.28978954E+04</pdfrwt>
<pdfrwt beam="2">  1       -1 0.24581783E+00 0.28978954E+04</pdfrwt>
<totfact> 0.56354052E-01</totfact>
</mgrwt>
</event>
<event>
12    1  0.1980523E-007  0.2421922E+04  0.7818608E-02  0.8431342E-01
         -2   -1    0    0    0  501 -0.00000000000E+00  0.00000000000E+00  0.18538945291E+04  0.18538945291E+04  0.00000000000E+00 0.  1.
          2   -1    0    0  501    0  0.00000000000E+00 -0.00000000000E+00 -0.79099750226E+03  0.79099750226E+03  0.00000000000E+00 0. -1.
         23    2    1    2    0    0  0.87189206405E+03 -0.56250709567E+03  0.34961099028E+03  0.10983248101E+04  0.86484333331E+02 0.  0.
        254    2    1    2    0    0 -0.87189206405E+03  0.56250709567E+03  0.71328603653E+03  0.15465672212E+04  0.89804409461E+03 0.  0.
        -24    2    4    4    0    0 -0.29039877665E+03  0.60160795303E+03  0.68084334864E+03  0.95747893950E+03  0.83394697524E+02 0.  0.
         24    2    4    4    0    0 -0.58149328740E+03 -0.39100857364E+02  0.32442687895E+02  0.58908828174E+03  0.79430191659E+02 0.  0.
         13    1    3    3    0    0  0.67297128244E+03 -0.39116107036E+03  0.25075191586E+03  0.81778594587E+03  0.00000000000E+00 0.  1.
        -13    1    3    3    0    0  0.19892078161E+03 -0.17134602530E+03  0.98859074419E+02  0.28053886422E+03  0.00000000000E+00 0. -1.
          2    1    6    6  502    0 -0.56775918847E+03 -0.44688557623E+02  0.20222363629E+02  0.56987411528E+03  0.00000000000E+00 0. -1.
          3    1    5    5  503    0 -0.28691695281E+03  0.60418371582E+03  0.67565063183E+03  0.95071713804E+03  0.00000000000E+00 0. -1.
         -4    1    5    5    0  503 -0.34818238368E+01 -0.25757627867E+01  0.51927168036E+01  0.67618014587E+01  0.00000000000E+00 0.  1.
         -3    1    6    6    0  502 -0.13734098931E+02  0.55877002586E+01  0.12220324266E+02  0.19214166461E+02  0.00000000000E+00 0.  1.
<mgrwt>
<rscale>  0 0.24219215E+04</rscale>
<asrwt>0</asrwt>
<pdfrwt beam="1">  1        2 0.12169192E+00 0.24219215E+04</pdfrwt>
<pdfrwt beam="2">  1       -2 0.28521454E+00 0.24219215E+04</pdfrwt>
<totfact> 0.12285916E+00</totfact>
</mgrwt>
</event>
<event>
12    1  0.1980523E-007  0.2048255E+04  0.7818608E-02  0.8584386E-01
         -2   -1    0    0    0  501 -0.00000000000E+00  0.00000000000E+00  0.14182443083E+04  0.14182443083E+04  0.00000000000E+00 0.  1.
          2   -1    0    0  501    0  0.00000000000E+00 -0.00000000000E+00 -0.73953199517E+03  0.73953199517E+03  0.00000000000E+00 0. -1.
         23    2    1    2    0    0 -0.72957771018E+03  0.35351864507E+03  0.19026453473E+03  0.83709310716E+03  0.85236196957E+02 0.  0.
        254    2    1    2    0    0  0.72957771018E+03 -0.35351864507E+03  0.48844777841E+03  0.13206831963E+04  0.92106666710E+03 0.  0.
        -24    2    4    4    0    0 -0.21172341681E+03 -0.42023448645E+02  0.10865759269E+03  0.25578202456E+03  0.83816443345E+02 0.  0.
         24    2    4    4    0    0  0.94130112699E+03 -0.31149519643E+03  0.37979018572E+03  0.10649011718E+04  0.81834292336E+02 0.  0.
         13    1    3    3    0    0 -0.69566990327E+03  0.31472954882E+03  0.18158713007E+03  0.78484723929E+03  0.00000000000E+00 0.  1.
        -13    1    3    3    0    0 -0.33907806908E+02  0.38789096255E+02  0.86774046667E+01  0.52245867869E+02  0.00000000000E+00 0. -1.
          2    1    6    6  502    0  0.91918029778E+03 -0.31580084255E+03  0.37565958811E+03  0.10419897879E+04  0.00000000000E+00 0. -1.
          1    1    5    5  503    0 -0.21633733863E+03 -0.35410448005E+02  0.92914833294E+02  0.23809433038E+03  0.00000000000E+00 0. -1.
         -2    1    5    5    0  503  0.46139218140E+01 -0.66130006396E+01  0.15742759399E+02  0.17687694181E+02  0.00000000000E+00 0.  1.
         -1    1    6    6    0  502  0.22120829212E+02  0.43056461263E+01  0.41305976080E+01  0.22911383856E+02  0.00000000000E+00 0.  1.
<mgrwt>
<rscale>  0 0.20482549E+04</rscale>
<asrwt>0</asrwt>
<pdfrwt beam="1">  1        2 0.11377415E+00 0.20482549E+04</pdfrwt>
<pdfrwt beam="2">  1       -2 0.21819143E+00 0.20482549E+04</pdfrwt>
<totfact> 0.35848207E+00</totfact>
</mgrwt>
</event>
<event>
12    1  0.1980523E-007  0.2466206E+04  0.7818608E-02  0.8415125E-01
          1   -1    0    0  501    0  0.00000000000E+00  0.00000000000E+00  0.12584445682E+04  0.12584445682E+04  0.00000000000E+00 0.  1.
         -1   -1    0    0    0  501 -0.00000000000E+00 -0.00000000000E+00 -0.12082718506E+04  0.12082718506E+04  0.00000000000E+00 0. -1.
         23    2    1    2    0    0  0.60923137618E+03 -0.83128270368E+03 -0.25169620396E+03  0.10648061168E+04  0.90924607241E+02 0.  0.
        254    2    1    2    0    0 -0.60923137618E+03  0.83128270368E+03  0.30186892160E+03  0.14019103020E+04  0.90112920591E+03 0.  0.
        -24    2    4    4    0    0 -0.26110191708E+02  0.20800064442E+03 -0.28504690253E+03  0.36257305014E+03  0.79129450001E+02 0.  0.
         24    2    4    4    0    0 -0.58312118447E+03  0.62328205926E+03  0.58691582413E+03  0.10393372518E+04  0.85093461667E+02 0.  0.
         13    1    3    3    0    0  0.37724258118E+03 -0.52667090091E+03 -0.20259491876E+03  0.67877750701E+03  0.00000000000E+00 0.  1.
        -13    1    3    3    0    0  0.23198879500E+03 -0.30461180278E+03 -0.49101285203E+02  0.38602860983E+03  0.00000000000E+00 0. -1.
          2    1    6    6  502    0 -0.29188807545E+03  0.35976850254E+03  0.35033263271E+03  0.58083128149E+03  0.00000000000E+00 0. -1.
          3    1    5    5  503    0 -0.31195779031E+02  0.31251733062E+02 -0.35120454718E+02  0.56420685819E+02  0.00000000000E+00 0. -1.
         -4    1    5    5    0  503  0.50855873229E+01  0.17674891136E+03 -0.24992644781E+03  0.30615236433E+03  0.00000000000E+00 0.  1.
         -1    1    6    6    0  502 -0.29123310901E+03  0.26351355672E+03  0.23658319142E+03  0.45850597032E+03  0.00000000000E+00 0.  1.
<mgrwt>
<rscale>  0 0.24662061E+04</rscale>
<asrwt>0</asrwt>
<pdfrwt beam="1">  1        1 0.19360686E+00 0.24662061E+04</pdfrwt>
<pdfrwt beam="2">  1       -1 0.18588798E+00 0.24662061E+04</pdfrwt>
<totfact> 0.16310523E+00</totfact>
</mgrwt>
</event>
<event>
12    1  0.1980523E-007  0.2341261E+04  0.7818608E-02  0.8461828E-01
         -1   -1    0    0    0  501 -0.00000000000E+00  0.00000000000E+00  0.78780680218E+03  0.78780680218E+03  0.00000000000E+00 0.  1.
          1   -1    0    0  501    0  0.00000000000E+00 -0.00000000000E+00 -0.17394826949E+04  0.17394826949E+04  0.00000000000E+00 0. -1.
         23    2    1    2    0    0 -0.68182430499E+03  0.72321394831E+03 -0.35501066345E+03  0.10594944871E+04  0.92591571858E+02 0.  0.
        254    2    1    2    0    0  0.68182430499E+03 -0.72321394831E+03 -0.59666522927E+03  0.14677950099E+04  0.90027217966E+03 0.  0.
        -24    2    4    4    0    0  0.53375753941E+03 -0.89872950877E+03 -0.31287960597E+03  0.10941203656E+04  0.81202745487E+02 0.  0.
         24    2    4    4    0    0  0.14806676558E+03  0.17551556046E+03 -0.28378562330E+03  0.37367464430E+03  0.79805894313E+02 0.  0.
         13    1    3    3    0    0 -0.13097278380E+03  0.13812999597E+03 -0.10769770800E+03  0.21870656641E+03  0.00000000000E+00 0. -1.
        -13    1    3    3    0    0 -0.55085152119E+03  0.58508395235E+03 -0.24731295545E+03  0.84078792072E+03  0.00000000000E+00 0.  1.
          2    1    6    6  502    0  0.26031211058E+02  0.17797251572E+02 -0.90984324732E+02  0.96293891082E+02  0.00000000000E+00 0. -1.
          1    1    5    5  503    0  0.16128881828E+03 -0.31435286657E+03 -0.72892496365E+02  0.36075632170E+03  0.00000000000E+00 0. -1.
         -2    1    5    5    0  503  0.37246872112E+03 -0.58437664220E+03 -0.23998710960E+03  0.73336404394E+03  0.00000000000E+00 0.  1.
         -1    1    6    6    0  502  0.12203555453E+03  0.15771830888E+03 -0.19280129857E+03  0.27738075322E+03  0.00000000000E+00 0.  1.
<mgrwt>
<rscale>  0 0.23412615E+04</rscale>
<asrwt>0</asrwt>
<pdfrwt beam="1">  1        1 0.26761272E+00 0.23412615E+04</pdfrwt>
<pdfrwt beam="2">  1       -1 0.12120105E+00 0.23412615E+04</pdfrwt>
<totfact> 0.24370711E+00</totfact>
</mgrwt>
</event>
<event>
12    1  0.1980523E-007  0.1860025E+04  0.7818608E-02  0.8675014E-01
         -1   -1    0    0    0  501 -0.00000000000E+00  0.00000000000E+00  0.51053883515E+03  0.51053883515E+03  0.00000000000E+00 0.  1.
          1   -1    0    0  501    0  0.00000000000E+00 -0.00000000000E+00 -0.16941380254E+04  0.16941380254E+04  0.00000000000E+00 0. -1.
         23    2    1    2    0    0  0.29983388404E+03 -0.28891179778E+03  0.22562685683E+03  0.48240584493E+03  0.91856060079E+02 0.  0.
        254    2    1    2    0    0 -0.29983388404E+03  0.28891179778E+03 -0.14092260471E+04  0.17222710156E+04  0.89829227681E+03 0.  0.
        -24    2    4    4    0    0  0.31612180107E+03  0.10891477436E+03 -0.48421506909E+03  0.59385720489E+03  0.80042023241E+02 0.  0.
         24    2    4    4    0    0 -0.61595568512E+03  0.17999702342E+03 -0.92501097800E+03  0.11284138107E+04  0.76629526791E+02 0.  0.
         11    1    3    3    0    0  0.22743313571E+03 -0.26160992975E+03  0.20332384218E+03  0.40187830417E+03  0.00000000000E+00 0. -1.
        -11    1    3    3    0    0  0.72400748337E+02 -0.27301868037E+02  0.22303014652E+02  0.80527540759E+02  0.00000000000E+00 0.  1.
          4    1    6    6  502    0 -0.29356643280E+03  0.65904102349E+02 -0.37538943705E+03  0.48108401618E+03  0.00000000000E+00 0. -1.
          3    1    5    5  503    0  0.13541863363E+03  0.22293110263E+02 -0.25349253637E+03  0.28825970078E+03  0.00000000000E+00 0. -1.
         -2    1    5    5    0  503  0.18070316745E+03  0.86621664099E+02 -0.23072253271E+03  0.30559750411E+03  0.00000000000E+00 0.  1.
         -3    1    6    6    0  502 -0.32238925232E+03  0.11409292107E+03 -0.54962154096E+03  0.64732979457E+03  0.00000000000E+00 0.  1.
<mgrwt>
<rscale>  0 0.18600250E+04</rscale>
<asrwt>0</asrwt>
<pdfrwt beam="1">  1        1 0.26063661E+00 0.18600250E+04</pdfrwt>
<pdfrwt beam="2">  1       -1 0.78544438E-01 0.18600250E+04</pdfrwt>
<totfact> 0.73240740E+00</totfact>
</mgrwt>
</event>
<event>
12    1  0.1980523E-007  0.2439943E+04  0.7818608E-02  0.8424699E-01
         -2   -1    0    0    0  501 -0.00000000000E+00  0.00000000000E+00  0.83434880174E+03  0.83434880174E+03  0.00000000000E+00 0.  1.
          2   -1    0    0  501    0  0.00000000000E+00 -0.00000000000E+00 -0.17838228865E+04  0.17838228865E+04  0.00000000000E+00 0. -1.
         23    2    1    2    0    0  0.90682805916E+03  0.53438977957E+03 -0.40378123537E+03  0.11309678272E+04  0.90218483018E+02 0.  0.
        254    2    1    2    0    0 -0.90682805916E+03 -0.53438977957E+03 -0.54569284944E+03  0.14872038611E+04  0.89782240627E+03 0.  0.
        -24    2    4    4    0    0 -0.84831928049E+03 -0.16294344429E+03 -0.65571736939E+03  0.10872528756E+04  0.77184061583E+02 0.  0.
         24    2    4    4    0    0 -0.58508778672E+02 -0.37144633528E+03  0.11002451995E+03  0.39995098549E+03  0.80372499220E+02 0.  0.
         11    1    3    3    0    0  0.40038739606E+03  0.25606741487E+03 -0.13800588431E+03  0.49490020406E+03  0.00000000000E+00 0.  1.
        -11    1    3    3    0    0  0.50644066310E+03  0.27832236470E+03 -0.26577535107E+03  0.63606762311E+03  0.00000000000E+00 0. -1.
          2    1    6    6  502    0 -0.39056212436E+02 -0.17306301106E+03  0.91871631367E+02  0.19979136662E+03  0.00000000000E+00 0. -1.
          1    1    5    5  503    0 -0.63253584317E+03 -0.99812401403E+02 -0.51756934486E+03  0.82337241580E+03  0.00000000000E+00 0. -1.
         -2    1    5    5    0  503 -0.21578343731E+03 -0.63131042888E+02 -0.13814802453E+03  0.26388045982E+03  0.00000000000E+00 0.  1.
         -1    1    6    6    0  502 -0.19452566236E+02 -0.19838332421E+03  0.18152888580E+02  0.20015961886E+03  0.00000000000E+00 0.  1.
<mgrwt>
<rscale>  0 0.24399430E+04</rscale>
<asrwt>0</asrwt>
<pdfrwt beam="1">  1        2 0.27443429E+00 0.24399430E+04</pdfrwt>
<pdfrwt beam="2">  1       -2 0.12836136E+00 0.24399430E+04</pdfrwt>
<totfact> 0.35412995E+00</totfact>
</mgrwt>
</event>
<event>
12    1  0.1980523E-007  0.4009844E+04  0.7818608E-02  0.8002564E-01
         -2   -1    0    0    0  501 -0.00000000000E+00  0.00000000000E+00  0.22041827309E+04  0.22041827309E+04  0.00000000000E+00 0.  1.
          2   -1    0    0  501    0  0.00000000000E+00 -0.00000000000E+00 -0.18236744633E+04  0.18236744633E+04  0.00000000000E+00 0. -1.
         23    2    1    2    0    0  0.67598691393E+03 -0.89059057279E+03 -0.13623349851E+04  0.17647074467E+04  0.90143688970E+02 0.  0.
        254    2    1    2    0    0 -0.67598691393E+03  0.89059057279E+03  0.17428432527E+04  0.22631497475E+04  0.91336427551E+03 0.  0.
        -24    2    4    4    0    0 -0.83114509750E+03  0.52034287834E+03  0.14808978601E+04  0.17779484815E+04  0.80519852770E+02 0.  0.
         24    2    4    4    0    0  0.15515818357E+03  0.37024769446E+03  0.26194539264E+03  0.48520126599E+03  0.75149601514E+02 0.  0.
         13    1    3    3    0    0  0.12168758177E+03 -0.11589895601E+03 -0.23300991209E+03  0.28728740782E+03  0.00000000000E+00 0. -1.
        -13    1    3    3    0    0  0.55429933216E+03 -0.77469161679E+03 -0.11293250730E+04  0.14774200389E+04  0.00000000000E+00 0.  1.
          4    1    6    6  502    0  0.27019208035E+02  0.10955305870E+03  0.10911940818E+03  0.15696800793E+03  0.00000000000E+00 0. -1.
          3    1    5    5  503    0 -0.31208938394E+03  0.17530945010E+03  0.60426563852E+03  0.70233193631E+03  0.00000000000E+00 0. -1.
         -4    1    5    5    0  503 -0.51905571356E+03  0.34503342824E+03  0.87663222157E+03  0.10756165452E+04  0.00000000000E+00 0.  1.
         -3    1    6    6    0  502  0.12813897554E+03  0.26069463576E+03  0.15282598446E+03  0.32823325806E+03  0.00000000000E+00 0.  1.
<mgrwt>
<rscale>  0 0.40098438E+04</rscale>
<asrwt>0</asrwt>
<pdfrwt beam="1">  1        2 0.28056530E+00 0.40098438E+04</pdfrwt>
<pdfrwt beam="2">  1       -2 0.33910504E+00 0.40098438E+04</pdfrwt>
<totfact> 0.12017457E-01</totfact>
</mgrwt>
</event>
<event>
12    1  0.1980523E-007  0.1896789E+04  0.7818608E-02  0.8656456E-01
         -1   -1    0    0    0  501 -0.00000000000E+00  0.00000000000E+00  0.92236126794E+03  0.92236126794E+03  0.00000000000E+00 0.  1.
          1   -1    0    0  501    0  0.00000000000E+00 -0.00000000000E+00 -0.97516240880E+03  0.97516240880E+03  0.00000000000E+00 0. -1.
         23    2    1    2    0    0 -0.25355445981E+03  0.67980659138E+03 -0.11297255506E+03  0.73993427413E+03  0.91176016919E+02 0.  0.
        254    2    1    2    0    0  0.25355445981E+03 -0.67980659138E+03  0.60171414195E+02  0.11575894026E+04  0.89998097767E+03 0.  0.
        -24    2    4    4    0    0  0.43143080148E+03 -0.21941917757E+02 -0.10541024757E+03  0.45176075863E+03  0.79765146061E+02 0.  0.
         24    2    4    4    0    0 -0.17787634167E+03 -0.65786467362E+03  0.16558166177E+03  0.70582864397E+03  0.79692322180E+02 0.  0.
         13    1    3    3    0    0 -0.63013925050E+02  0.83641742362E+02 -0.52157636440E+01  0.10485180020E+03  0.00000000000E+00 0.  1.
        -13    1    3    3    0    0 -0.19054053476E+03  0.59616484902E+03 -0.10775679141E+03  0.63508247393E+03  0.00000000000E+00 0. -1.
          2    1    6    6  502    0 -0.77771684970E+02 -0.41930485774E+03  0.12113432877E+03  0.44332665644E+03  0.00000000000E+00 0. -1.
          3    1    5    5  503    0  0.30082283221E+03  0.19404877402E+02 -0.85394151497E+02  0.31330988934E+03  0.00000000000E+00 0. -1.
         -4    1    5    5    0  503  0.13060796927E+03 -0.41346795160E+02 -0.20016096077E+02  0.13845086929E+03  0.00000000000E+00 0.  1.
         -1    1    6    6    0  502 -0.10010465670E+03 -0.23855981589E+03  0.44447332999E+02  0.26250198753E+03  0.00000000000E+00 0.  1.
<mgrwt>
<rscale>  0 0.18967889E+04</rscale>
<asrwt>0</asrwt>
<pdfrwt beam="1">  1        1 0.15002499E+00 0.18967889E+04</pdfrwt>
<pdfrwt beam="2">  1       -1 0.14190173E+00 0.18967889E+04</pdfrwt>
<totfact> 0.59933277E+00</totfact>
</mgrwt>
</event>
<event>
12    1  0.1980523E-007  0.1490337E+04  0.7818608E-02  0.8890904E-01
         -2   -1    0    0    0  501 -0.00000000000E+00  0.00000000000E+00  0.49265192697E+03  0.49265192697E+03  0.00000000000E+00 0.  1.
          2   -1    0    0  501    0  0.00000000000E+00 -0.00000000000E+00 -0.11271169670E+04  0.11271169670E+04  0.00000000000E+00 0. -1.
         23    2    1    2    0    0  0.31374331982E+03 -0.34279743054E+03 -0.23395602577E+03  0.52825350057E+03  0.91495299093E+02 0.  0.
        254    2    1    2    0    0 -0.31374331982E+03  0.34279743054E+03 -0.40050901429E+03  0.10915153934E+04  0.90280309837E+03 0.  0.
        -24    2    4    4    0    0 -0.23289874920E+03  0.61741039268E+03 -0.42961315436E+03  0.79153850378E+03  0.80798021029E+02 0.  0.
         24    2    4    4    0    0 -0.80844570618E+02 -0.27461296214E+03  0.29104140067E+02  0.29997688964E+03  0.84799526978E+02 0.  0.
         11    1    3    3    0    0  0.10730636637E+02  0.41966132705E+01  0.11495665333E+00  0.11522644688E+02  0.00000000000E+00 0.  1.
        -11    1    3    3    0    0  0.30301268318E+03 -0.34699404381E+03 -0.23407098242E+03  0.51673085588E+03  0.00000000000E+00 0. -1.
          4    1    6    6  502    0 -0.68347595397E+02 -0.94101733085E+02 -0.23117271028E+01  0.11632658358E+03  0.00000000000E+00 0. -1.
          1    1    5    5  503    0 -0.50534794130E+02  0.24406790378E+03 -0.15597850027E+03  0.29402754908E+03  0.00000000000E+00 0. -1.
         -2    1    5    5    0  503 -0.18236395507E+03  0.37334248890E+03 -0.27363465409E+03  0.49751095470E+03  0.00000000000E+00 0.  1.
         -3    1    6    6    0  502 -0.12496975221E+02 -0.18051122905E+03  0.31415867170E+02  0.18365030605E+03  0.00000000000E+00 0.  1.
<mgrwt>
<rscale>  0 0.14903373E+04</rscale>
<asrwt>0</asrwt>
<pdfrwt beam="1">  1        2 0.17340261E+00 0.14903373E+04</pdfrwt>
<pdfrwt beam="2">  1       -2 0.75792605E-01 0.14903373E+04</pdfrwt>
<totfact> 0.31627022E+01</totfact>
</mgrwt>
</event>
<event>
12    1  0.1980523E-007  0.1416320E+04  0.7818608E-02  0.8942089E-01
         -2   -1    0    0    0  501 -0.00000000000E+00  0.00000000000E+00  0.39351214849E+03  0.39351214849E+03  0.00000000000E+00 0.  1.
          2   -1    0    0  501    0  0.00000000000E+00 -0.00000000000E+00 -0.12743968619E+04  0.12743968619E+04  0.00000000000E+00 0. -1.
         23    2    1    2    0    0 -0.32697886530E+03 -0.25418244346E+03 -0.23273169349E+03  0.48362274620E+03  0.90570561276E+02 0.  0.
        254    2    1    2    0    0  0.32697886530E+03  0.25418244346E+03 -0.64815301991E+03  0.11842862642E+04  0.90050415069E+03 0.  0.
        -24    2    4    4    0    0  0.23951414128E+03  0.36177558889E+03 -0.83139529707E+03  0.94116795040E+03  0.79563624096E+02 0.  0.
         24    2    4    4    0    0  0.87464724020E+02 -0.10759314543E+03  0.18324227717E+03  0.24311831378E+03  0.79387779059E+02 0.  0.
         13    1    3    3    0    0 -0.17012354342E+03 -0.17957546472E+03 -0.16417290609E+03  0.29688737031E+03  0.00000000000E+00 0. -1.
        -13    1    3    3    0    0 -0.15685532188E+03 -0.74606978740E+02 -0.68558787397E+02  0.18673537589E+03  0.00000000000E+00 0.  1.
          2    1    6    6  502    0  0.47225167289E+02 -0.10463457542E+02  0.91871763815E+02  0.10382736323E+03  0.00000000000E+00 0. -1.
          3    1    5    5  503    0  0.15846946979E+03  0.22633036652E+03 -0.60586520618E+03  0.66589087373E+03  0.00000000000E+00 0. -1.
         -4    1    5    5    0  503  0.81044671491E+02  0.13544522237E+03 -0.22553009090E+03  0.27527707667E+03  0.00000000000E+00 0.  1.
         -1    1    6    6    0  502  0.40239556731E+02 -0.97129687888E+02  0.91370513352E+02  0.13929095055E+03  0.00000000000E+00 0.  1.
<mgrwt>
<rscale>  0 0.14163201E+04</rscale>
<asrwt>0</asrwt>
<pdfrwt beam="1">  1        2 0.19606106E+00 0.14163201E+04</pdfrwt>
<pdfrwt beam="2">  1       -2 0.60540330E-01 0.14163201E+04</pdfrwt>
<totfact> 0.42272747E+01</totfact>
</mgrwt>
</event>
<event>
12    1  0.1980523E-007  0.1862516E+04  0.7818608E-02  0.8673743E-01
         -1   -1    0    0    0  501 -0.00000000000E+00  0.00000000000E+00  0.72693408526E+03  0.72693408526E+03  0.00000000000E+00 0.  1.
          1   -1    0    0  501    0  0.00000000000E+00 -0.00000000000E+00 -0.11930129961E+04  0.11930129961E+04  0.00000000000E+00 0. -1.
         23    2    1    2    0    0  0.65228546957E+03 -0.30036652579E+02  0.10666644182E+03  0.66793835477E+03  0.91571729565E+02 0.  0.
        254    2    1    2    0    0 -0.65228546957E+03  0.30036652579E+02 -0.57274535264E+03  0.12520087266E+04  0.90172616582E+03 0.  0.
        -24    2    4    4    0    0 -0.36705590319E+03 -0.40657119178E+03 -0.14276116600E+03  0.57180468114E+03  0.80930048811E+02 0.  0.
         24    2    4    4    0    0 -0.28522956638E+03  0.43660784436E+03 -0.42998418664E+03  0.68020404543E+03  0.76215663544E+02 0.  0.
         13    1    3    3    0    0  0.57565896400E+03 -0.30916470833E+02  0.63473680676E+02  0.57997239516E+03  0.00000000000E+00 0. -1.
        -13    1    3    3    0    0  0.76626505563E+02  0.87981825389E+00  0.43192761147E+02  0.87965959612E+02  0.00000000000E+00 0.  1.
          4    1    6    6  502    0 -0.14533755877E+03  0.25789792589E+03 -0.20109898769E+03  0.35787588493E+03  0.00000000000E+00 0. -1.
          1    1    5    5  503    0 -0.65246601874E+02 -0.69359958247E+02 -0.57665788691E+02  0.11132504682E+03  0.00000000000E+00 0. -1.
         -2    1    5    5    0  503 -0.30180930132E+03 -0.33721123353E+03 -0.85095377312E+02  0.46047963432E+03  0.00000000000E+00 0.  1.
         -3    1    6    6    0  502 -0.13989200761E+03  0.17870991847E+03 -0.22888519895E+03  0.32232816050E+03  0.00000000000E+00 0.  1.
<mgrwt>
<rscale>  0 0.18625164E+04</rscale>
<asrwt>0</asrwt>
<pdfrwt beam="1">  1        1 0.18354046E+00 0.18625164E+04</pdfrwt>
<pdfrwt beam="2">  1       -1 0.11183601E+00 0.18625164E+04</pdfrwt>
<totfact> 0.74474436E+00</totfact>
</mgrwt>
</event>
<event>
12    1  0.1980523E-007  0.1820531E+04  0.7818608E-02  0.8695457E-01
          2   -1    0    0  501    0  0.00000000000E+00  0.00000000000E+00  0.26746271434E+04  0.26746271434E+04  0.00000000000E+00 0. -1.
         -2   -1    0    0    0  501 -0.00000000000E+00 -0.00000000000E+00 -0.30979407933E+03  0.30979407933E+03  0.00000000000E+00 0.  1.
         23    2    1    2    0    0  0.37158617560E+03 -0.47866413090E+03  0.39101746259E+03  0.72684562130E+03  0.90632582697E+02 0.  0.
        254    2    1    2    0    0 -0.37158617560E+03  0.47866413090E+03  0.19738156015E+04  0.22575756015E+04  0.91296436483E+03 0.  0.
        -24    2    4    4    0    0 -0.44448448441E+03  0.52080276826E+03  0.20185525655E+04  0.21330449674E+04  0.80773712493E+02 0.  0.
         24    2    4    4    0    0  0.72898308806E+02 -0.42138637361E+02 -0.44736964040E+02  0.12453063409E+03  0.80104024188E+02 0.  0.
         13    1    3    3    0    0  0.19042322532E+03 -0.24620403817E+03  0.25446131261E+03  0.40202984065E+03  0.00000000000E+00 0.  1.
        -13    1    3    3    0    0  0.18116295028E+03 -0.23246009272E+03  0.13655614997E+03  0.32481578065E+03  0.00000000000E+00 0. -1.
          2    1    6    6  502    0 -0.41889638684E+01 -0.33591557569E+02 -0.30723570191E+02  0.45715182637E+02  0.00000000000E+00 0. -1.
          3    1    5    5  503    0 -0.25999936695E+03  0.34263266085E+03  0.13561957094E+04  0.14227661836E+04  0.00000000000E+00 0. -1.
         -4    1    5    5    0  503 -0.18448511746E+03  0.17817010741E+03  0.66235685616E+03  0.71027878374E+03  0.00000000000E+00 0.  1.
         -1    1    6    6    0  502  0.77087272674E+02 -0.85470797924E+01 -0.14013393848E+02  0.78815451458E+02  0.00000000000E+00 0.  1.
<mgrwt>
<rscale>  0 0.18205314E+04</rscale>
<asrwt>0</asrwt>
<pdfrwt beam="1">  1        2 0.41148108E+00 0.18205314E+04</pdfrwt>
<pdfrwt beam="2">  1       -2 0.47660629E-01 0.18205314E+04</pdfrwt>
<totfact> 0.10830157E+01</totfact>
</mgrwt>
</event>
<event>
12    1  0.1980523E-007  0.2495177E+04  0.7818608E-02  0.8404706E-01
          1   -1    0    0  501    0  0.00000000000E+00  0.00000000000E+00  0.12135024636E+04  0.12135024636E+04  0.00000000000E+00 0. -1.
         -1   -1    0    0    0  501 -0.00000000000E+00 -0.00000000000E+00 -0.12826321536E+04  0.12826321536E+04  0.00000000000E+00 0.  1.
         23    2    1    2    0    0 -0.81519932724E+02 -0.10773343697E+04 -0.74247335579E+01  0.10845177071E+04  0.93961091150E+02 0.  0.
        254    2    1    2    0    0  0.81519932724E+02  0.10773343697E+04 -0.61704956481E+02  0.14116169101E+04  0.90639944594E+03 0.  0.
        -24    2    4    4    0    0  0.14585526178E+03  0.11759453276E+04  0.10554918829E+03  0.11922263814E+04  0.78370546467E+02 0.  0.
         24    2    4    4    0    0 -0.64335329054E+02 -0.98610957855E+02 -0.16725414477E+03  0.21939052868E+03  0.79341663441E+02 0.  0.
         13    1    3    3    0    0 -0.26638556190E+02 -0.75473934582E+03  0.25468140563E+02  0.75563861666E+03  0.00000000000E+00 0. -1.
        -13    1    3    3    0    0 -0.54881376534E+02 -0.32259502392E+03 -0.32892874121E+02  0.32887909042E+03  0.00000000000E+00 0.  1.
          2    1    6    6  502    0 -0.50053683370E+02 -0.65073687973E+02 -0.16323598069E+03  0.18271820237E+03  0.00000000000E+00 0. -1.
          3    1    5    5  503    0  0.11622727350E+03  0.10761969206E+04  0.82117688470E+02  0.10855652471E+04  0.00000000000E+00 0. -1.
         -4    1    5    5    0  503  0.29627988274E+02  0.99748407010E+02  0.23431499819E+02  0.10666113432E+03  0.00000000000E+00 0.  1.
         -3    1    6    6    0  502 -0.14281645684E+02 -0.33537269882E+02 -0.40181640839E+01  0.36672326313E+02  0.00000000000E+00 0.  1.
<mgrwt>
<rscale>  0 0.24951772E+04</rscale>
<asrwt>0</asrwt>
<pdfrwt beam="1">  1        1 0.18669269E+00 0.24951772E+04</pdfrwt>
<pdfrwt beam="2">  1       -1 0.19732802E+00 0.24951772E+04</pdfrwt>
<totfact> 0.14580717E+00</totfact>
</mgrwt>
</event>
<event>
12    1  0.1980523E-007  0.2163548E+04  0.7818608E-02  0.8533755E-01
         -2   -1    0    0    0  501 -0.00000000000E+00  0.00000000000E+00  0.59303354657E+03  0.59303354657E+03  0.00000000000E+00 0.  1.
          2   -1    0    0  501    0  0.00000000000E+00 -0.00000000000E+00 -0.19733024315E+04  0.19733024315E+04  0.00000000000E+00 0. -1.
         23    2    1    2    0    0 -0.56214558682E+03  0.43230457867E+03 -0.12214083774E+04  0.14152569187E+04  0.90657662854E+02 0.  0.
        254    2    1    2    0    0  0.56214558682E+03 -0.43230457867E+03 -0.15886050750E+03  0.11510790594E+04  0.89266535201E+03 0.  0.
        -24    2    4    4    0    0  0.17685930141E+03 -0.63889305625E+03 -0.21891654878E+03  0.70260602358E+03  0.79165770472E+02 0.  0.
         24    2    4    4    0    0  0.38528628540E+03  0.20658847759E+03  0.60056041279E+02  0.44847303584E+03  0.79981341528E+02 0.  0.
         13    1    3    3    0    0 -0.16800854528E+03  0.11462530845E+03 -0.43192009544E+03  0.47741051671E+03  0.00000000000E+00 0. -1.
        -13    1    3    3    0    0 -0.39413704154E+03  0.31767927021E+03 -0.78948828200E+03  0.93784640195E+03  0.00000000000E+00 0.  1.
          2    1    6    6  502    0  0.73121361285E+00  0.14466600114E+02  0.34079798783E+01  0.14880575226E+02  0.00000000000E+00 0. -1.
          1    1    5    5  503    0  0.63369624077E+02 -0.11880069514E+03 -0.56816707074E+02  0.14614189209E+03  0.00000000000E+00 0. -1.
         -2    1    5    5    0  503  0.11348967733E+03 -0.52009236111E+03 -0.16209984171E+03  0.55646413149E+03  0.00000000000E+00 0.  1.
         -1    1    6    6    0  502  0.38455507179E+03  0.19212187747E+03  0.56648061401E+02  0.43359246062E+03  0.00000000000E+00 0.  1.
<mgrwt>
<rscale>  0 0.21635476E+04</rscale>
<asrwt>0</asrwt>
<pdfrwt beam="1">  1        2 0.30358498E+00 0.21635476E+04</pdfrwt>
<pdfrwt beam="2">  1       -2 0.91235932E-01 0.21635476E+04</pdfrwt>
<totfact> 0.64898144E+00</totfact>
</mgrwt>
</event>
<event>
12    1  0.1980523E-007  0.1523783E+04  0.7818608E-02  0.8868790E-01
         -1   -1    0    0    0  501 -0.00000000000E+00  0.00000000000E+00  0.56861817971E+03  0.56861817971E+03  0.00000000000E+00 0.  1.
          1   -1    0    0  501    0  0.00000000000E+00 -0.00000000000E+00 -0.10208578573E+04  0.10208578573E+04  0.00000000000E+00 0. -1.
         23    2    1    2    0    0  0.18535138832E+02 -0.45785240079E+03  0.36240909122E+02  0.46864354793E+03  0.91329071164E+02 0.  0.
        254    2    1    2    0    0 -0.18535138832E+02  0.45785240079E+03 -0.48848058667E+03  0.11208324890E+04  0.89871008266E+03 0.  0.
        -24    2    4    4    0    0 -0.31010575054E+03 -0.89971281727E+01  0.75135337196E+02  0.32897578701E+03  0.79581560112E+02 0.  0.
         24    2    4    4    0    0  0.29157061171E+03  0.46684952896E+03 -0.56361592386E+03  0.79185670204E+03  0.80076354950E+02 0.  0.
         11    1    3    3    0    0  0.93292987341E+01 -0.23785880353E+03 -0.26967678377E+02  0.23956440034E+03  0.00000000000E+00 0. -1.
        -11    1    3    3    0    0  0.92058400982E+01 -0.21999359725E+03  0.63208587500E+02  0.22907914758E+03  0.00000000000E+00 0.  1.
          2    1    6    6  502    0  0.22523949351E+03  0.28964880425E+03 -0.37846103821E+03  0.52712618669E+03  0.00000000000E+00 0. -1.
          3    1    5    5  503    0 -0.89417558345E+02  0.16172374223E+02 -0.93149768255E+01  0.91344481069E+02  0.00000000000E+00 0. -1.
         -4    1    5    5    0  503 -0.22068819220E+03 -0.25169502396E+02  0.84450314021E+02  0.23763130594E+03  0.00000000000E+00 0.  1.
         -1    1    6    6    0  502  0.66331118201E+02  0.17720072471E+03 -0.18515488565E+03  0.26473051535E+03  0.00000000000E+00 0.  1.
<mgrwt>
<rscale>  0 0.15237826E+04</rscale>
<asrwt>0</asrwt>
<pdfrwt beam="1">  1        1 0.15705505E+00 0.15237826E+04</pdfrwt>
<pdfrwt beam="2">  1       -1 0.87479720E-01 0.15237826E+04</pdfrwt>
<totfact> 0.18098584E+01</totfact>
</mgrwt>
</event>
<event>
12    1  0.1980523E-007  0.2598718E+04  0.7818608E-02  0.8368637E-01
          2   -1    0    0  501    0  0.00000000000E+00  0.00000000000E+00  0.12953393327E+04  0.12953393327E+04  0.00000000000E+00 0. -1.
         -2   -1    0    0    0  501 -0.00000000000E+00 -0.00000000000E+00 -0.13033912645E+04  0.13033912645E+04  0.00000000000E+00 0.  1.
         23    2    1    2    0    0 -0.43006429987E+03  0.67617062797E+03 -0.81685570924E+03  0.11481705156E+04  0.94235147817E+02 0.  0.
        254    2    1    2    0    0  0.43006429987E+03 -0.67617062797E+03  0.80880377743E+03  0.14505600815E+04  0.89877637911E+03 0.  0.
        -24    2    4    4    0    0 -0.23524958416E+03 -0.31575662110E+03  0.46498102584E+03  0.61554752472E+03  0.87445927246E+02 0.  0.
         24    2    4    4    0    0  0.66531388403E+03 -0.36041400688E+03  0.34382275159E+03  0.83501255683E+03  0.80567145359E+02 0.  0.
         13    1    3    3    0    0 -0.22351721873E+03  0.43024575058E+03 -0.46502083585E+03  0.67180036524E+03  0.00000000000E+00 0. -1.
        -13    1    3    3    0    0 -0.20654708115E+03  0.24592487740E+03 -0.35183487339E+03  0.47637015040E+03  0.00000000000E+00 0.  1.
          2    1    6    6  502    0  0.15764778296E+03 -0.11828564715E+03  0.11173401417E+03  0.22655861872E+03  0.00000000000E+00 0. -1.
          1    1    5    5  503    0 -0.91496353732E+01  0.19817642785E+01  0.29630689914E+02  0.31074442906E+02  0.00000000000E+00 0. -1.
         -2    1    5    5    0  503 -0.22609994878E+03 -0.31773838537E+03  0.43535033593E+03  0.58447308182E+03  0.00000000000E+00 0.  1.
         -1    1    6    6    0  502  0.50766610107E+03 -0.24212835972E+03  0.23208873742E+03  0.60845393810E+03  0.00000000000E+00 0.  1.
<mgrwt>
<rscale>  0 0.25987181E+04</rscale>
<asrwt>0</asrwt>
<pdfrwt beam="1">  1        2 0.19928297E+00 0.25987181E+04</pdfrwt>
<pdfrwt beam="2">  1       -2 0.20052173E+00 0.25987181E+04</pdfrwt>
<totfact> 0.19419872E+00</totfact>
</mgrwt>
</event>
<event>
12    1  0.2016609E-007  0.1666700E+04  0.7818608E-02  0.8780588E-01
         -2   -1    0    0    0  501 -0.00000000000E+00  0.00000000000E+00  0.37674376859E+03  0.37674376859E+03  0.00000000000E+00 0.  1.
          2   -1    0    0  501    0  0.00000000000E+00 -0.00000000000E+00 -0.18433547497E+04  0.18433547497E+04  0.00000000000E+00 0. -1.
         23    2    1    2    0    0  0.34399920403E+03 -0.48156163279E+03 -0.50658562989E+03  0.78450872397E+03  0.92670809971E+02 0.  0.
        254    2    1    2    0    0 -0.34399920403E+03  0.48156163279E+03 -0.96002535125E+03  0.14355897943E+04  0.88827491468E+03 0.  0.
        -24    2    4    4    0    0 -0.26316174133E+03  0.49258469059E+03 -0.10609440640E+03  0.57404460459E+03  0.79858659461E+02 0.  0.
         24    2    4    4    0    0 -0.80837462704E+02 -0.11023057794E+02 -0.85393094485E+03  0.86154518976E+03  0.80036568184E+02 0.  0.
         13    1    3    3    0    0  0.15067901224E+03 -0.14385402844E+03 -0.20411292917E+03  0.29165087705E+03  0.00000000000E+00 0. -1.
        -13    1    3    3    0    0  0.19332019179E+03 -0.33770760435E+03 -0.30247270073E+03  0.49285784693E+03  0.00000000000E+00 0.  1.
          2    1    6    6  502    0  0.92446398295E+01  0.16011172705E+02 -0.92661990421E+02  0.94488441017E+02  0.00000000000E+00 0. -1.
          1    1    5    5  503    0 -0.18646710440E+01  0.75448516215E+01 -0.13208002170E+02  0.15324917795E+02  0.00000000000E+00 0. -1.
         -2    1    5    5    0  503 -0.26129707029E+03  0.48503983897E+03 -0.92886404234E+02  0.55871968680E+03  0.00000000000E+00 0.  1.
         -1    1    6    6    0  502 -0.90082102533E+02 -0.27034230499E+02 -0.76126895442E+03  0.76705674874E+03  0.00000000000E+00 0.  1.
<mgrwt>
<rscale>  0 0.16667002E+04</rscale>
<asrwt>0</asrwt>
<pdfrwt beam="1">  1        2 0.28359304E+00 0.16667002E+04</pdfrwt>
<pdfrwt beam="2">  1       -2 0.57960579E-01 0.16667002E+04</pdfrwt>
<totfact> 0.21696798E+01</totfact>
</mgrwt>
</event>
<event>
12    1  0.1980523E-007  0.2064508E+04  0.7818608E-02  0.8577041E-01
         -2   -1    0    0    0  501 -0.00000000000E+00  0.00000000000E+00  0.66131963457E+03  0.66131963457E+03  0.00000000000E+00 0.  1.
          2   -1    0    0  501    0  0.00000000000E+00 -0.00000000000E+00 -0.16112462911E+04  0.16112462911E+04  0.00000000000E+00 0. -1.
         23    2    1    2    0    0 -0.62899742443E+03 -0.52541740922E+03 -0.55740721055E+03  0.99527126635E+03  0.90337596717E+02 0.  0.
        254    2    1    2    0    0  0.62899742443E+03  0.52541740922E+03 -0.39251944601E+03  0.12772946593E+04  0.89761289956E+03 0.  0.
        -24    2    4    4    0    0  0.21037077364E+03  0.22914299825E+03  0.28163416679E+03  0.42635883021E+03  0.75509417619E+02 0.  0.
         24    2    4    4    0    0  0.41862665079E+03  0.29627441097E+03 -0.67415361280E+03  0.85093582913E+03  0.81128862354E+02 0.  0.
         11    1    3    3    0    0 -0.24910749030E+03 -0.18015113451E+03 -0.16340618335E+03  0.34815306080E+03  0.00000000000E+00 0.  1.
        -11    1    3    3    0    0 -0.37988993414E+03 -0.34526627471E+03 -0.39400102721E+03  0.64711820555E+03  0.00000000000E+00 0. -1.
          2    1    6    6  502    0  0.33524218669E+03  0.25006130753E+03 -0.59351971930E+03  0.72607412738E+03  0.00000000000E+00 0. -1.
          1    1    5    5  503    0  0.17556539147E+03  0.21985236294E+03  0.22999065208E+03  0.36339230622E+03  0.00000000000E+00 0. -1.
         -2    1    5    5    0  503  0.34805382175E+02  0.92906353022E+01  0.51643514709E+02  0.62966523996E+02  0.00000000000E+00 0.  1.
         -1    1    6    6    0  502  0.83384464102E+02  0.46213103441E+02 -0.80633893502E+02  0.12486170175E+03  0.00000000000E+00 0.  1.
<mgrwt>
<rscale>  0 0.20645085E+04</rscale>
<asrwt>0</asrwt>
<pdfrwt beam="1">  1        2 0.24788404E+00 0.20645085E+04</pdfrwt>
<pdfrwt beam="2">  1       -2 0.10174148E+00 0.20645085E+04</pdfrwt>
<totfact> 0.80535798E+00</totfact>
</mgrwt>
</event>
<event>
12    1  0.1980523E-007  0.2110897E+04  0.7818608E-02  0.8556458E-01
         -2   -1    0    0    0  501 -0.00000000000E+00  0.00000000000E+00  0.45027624006E+03  0.45027624006E+03  0.00000000000E+00 0. -1.
          2   -1    0    0  501    0  0.00000000000E+00 -0.00000000000E+00 -0.24739736025E+04  0.24739736025E+04  0.00000000000E+00 0.  1.
         23    2    1    2    0    0  0.81602298169E+03 -0.88627045864E+02 -0.47288064099E+03  0.95164009463E+03  0.90854329426E+02 0.  0.
        254    2    1    2    0    0 -0.81602298169E+03  0.88627045864E+02 -0.15508167214E+04  0.19726097479E+04  0.90133703694E+03 0.  0.
        -24    2    4    4    0    0 -0.81712802443E+02  0.76731635754E+02  0.96201648991E+02  0.16753222543E+03  0.79041528844E+02 0.  0.
         24    2    4    4    0    0 -0.73431017925E+03  0.11895410111E+02 -0.16470183704E+04  0.18050775225E+04  0.79261652113E+02 0.  0.
         13    1    3    3    0    0  0.59278271862E+03 -0.23595637755E+02 -0.33442558241E+03  0.68102024624E+03  0.00000000000E+00 0. -1.
        -13    1    3    3    0    0  0.22324026307E+03 -0.65031408110E+02 -0.13845505857E+03  0.27061984839E+03  0.00000000000E+00 0.  1.
          2    1    6    6  502    0 -0.30270467705E+03 -0.16556192078E+02 -0.75947383880E+03  0.81774368895E+03  0.00000000000E+00 0. -1.
          1    1    5    5  503    0 -0.88988653708E+02  0.48300987477E+02  0.50316928243E+02  0.11306528710E+03  0.00000000000E+00 0. -1.
         -2    1    5    5    0  503  0.72758512650E+01  0.28430648277E+02  0.45884720748E+02  0.54466938331E+02  0.00000000000E+00 0.  1.
         -1    1    6    6    0  502 -0.43160550219E+03  0.28451602189E+02 -0.88754453161E+03  0.98733383351E+03  0.00000000000E+00 0.  1.
<mgrwt>
<rscale>  0 0.21108970E+04</rscale>
<asrwt>0</asrwt>
<pdfrwt beam="1">  1        2 0.38061132E+00 0.21108970E+04</pdfrwt>
<pdfrwt beam="2">  1       -2 0.69273269E-01 0.21108970E+04</pdfrwt>
<totfact> 0.63123198E+00</totfact>
</mgrwt>
</event>
<event>
12    1  0.1980523E-007  0.2607411E+04  0.7818608E-02  0.8365688E-01
         -2   -1    0    0    0  501 -0.00000000000E+00  0.00000000000E+00  0.88529375324E+03  0.88529375324E+03  0.00000000000E+00 0.  1.
          2   -1    0    0  501    0  0.00000000000E+00 -0.00000000000E+00 -0.19198693423E+04  0.19198693423E+04  0.00000000000E+00 0. -1.
         23    2    1    2    0    0 -0.23747356087E+02 -0.82783614111E+03 -0.13102863300E+04  0.15528027226E+04  0.92029427552E+02 0.  0.
        254    2    1    2    0    0  0.23747356087E+02  0.82783614111E+03  0.27571074089E+03  0.12523603729E+04  0.89806095422E+03 0.  0.
        -24    2    4    4    0    0 -0.32970759089E+02  0.51849041435E+03 -0.29005523935E+03  0.60034114555E+03  0.79737497044E+02 0.  0.
         24    2    4    4    0    0  0.56718115177E+02  0.30934572676E+03  0.56576598024E+03  0.65201922734E+03  0.78270078377E+02 0.  0.
         13    1    3    3    0    0 -0.32374882173E+02 -0.40594259541E+03 -0.56705609468E+03  0.69813332414E+03  0.00000000000E+00 0.  1.
        -13    1    3    3    0    0  0.86275260862E+01 -0.42189354570E+03 -0.74323023528E+03  0.85466939850E+03  0.00000000000E+00 0. -1.
          2    1    6    6  502    0  0.42109725361E+02  0.14191501933E+03  0.19398532169E+03  0.24401517722E+03  0.00000000000E+00 0. -1.
          1    1    5    5  503    0 -0.16856843906E+02  0.69028243971E+02 -0.69603365537E+02  0.99466980180E+02  0.00000000000E+00 0. -1.
         -2    1    5    5    0  503 -0.16113915184E+02  0.44946217038E+03 -0.22045187382E+03  0.50087416537E+03  0.00000000000E+00 0.  1.
         -1    1    6    6    0  502  0.14608389815E+02  0.16743070743E+03  0.37178065855E+03  0.40800405012E+03  0.00000000000E+00 0.  1.
<mgrwt>
<rscale>  0 0.26074112E+04</rscale>
<asrwt>0</asrwt>
<pdfrwt beam="1">  1        2 0.29536451E+00 0.26074112E+04</pdfrwt>
<pdfrwt beam="2">  1       -2 0.13619904E+00 0.26074112E+04</pdfrwt>
<totfact> 0.25242429E+00</totfact>
</mgrwt>
</event>
<event>
12    1  0.1980523E-007  0.2353611E+04  0.7818608E-02  0.8457078E-01
          2   -1    0    0  501    0  0.00000000000E+00  0.00000000000E+00  0.26448533473E+04  0.26448533473E+04  0.00000000000E+00 0. -1.
         -2   -1    0    0    0  501 -0.00000000000E+00 -0.00000000000E+00 -0.52360986150E+03  0.52360986150E+03  0.00000000000E+00 0.  1.
         23    2    1    2    0    0 -0.60888654190E+03  0.72405969726E+03  0.13565352040E+04  0.16562847622E+04  0.89923233274E+02 0.  0.
        254    2    1    2    0    0  0.60888654190E+03 -0.72405969726E+03  0.76470828183E+03  0.15121784466E+04  0.89827592191E+03 0.  0.
        -24    2    4    4    0    0  0.20561183147E+03  0.77847401871E+02  0.53253727501E+03  0.58160349653E+03  0.79562771998E+02 0.  0.
         24    2    4    4    0    0  0.40327471043E+03 -0.80190709913E+03  0.23217100683E+03  0.93057495004E+03  0.79880370135E+02 0.  0.
         13    1    3    3    0    0 -0.49597340183E+03  0.54443320485E+03  0.10927264031E+04  0.13177435721E+04  0.00000000000E+00 0. -1.
        -13    1    3    3    0    0 -0.11291314007E+03  0.17962649240E+03  0.26380880086E+03  0.33854119009E+03  0.00000000000E+00 0.  1.
          4    1    6    6  502    0 -0.35445618925E+01 -0.10508289271E+02  0.51798513895E+01  0.12240054037E+02  0.00000000000E+00 0. -1.
          1    1    5    5  503    0  0.13744236183E+03  0.37749709949E+02  0.24556350161E+03  0.28393111268E+03  0.00000000000E+00 0. -1.
         -2    1    5    5    0  503  0.68169469641E+02  0.40097691923E+02  0.28697377340E+03  0.29767238385E+03  0.00000000000E+00 0.  1.
         -3    1    6    6    0  502  0.40681927232E+03 -0.79139880986E+03  0.22699115544E+03  0.91833489601E+03  0.00000000000E+00 0.  1.
<mgrwt>
<rscale>  0 0.23536111E+04</rscale>
<asrwt>0</asrwt>
<pdfrwt beam="1">  1        2 0.40690051E+00 0.23536111E+04</pdfrwt>
<pdfrwt beam="2">  1       -2 0.80555365E-01 0.23536111E+04</pdfrwt>
<totfact> 0.35177425E+00</totfact>
</mgrwt>
</event>
<event>
12    1  0.1980523E-007  0.1306046E+04  0.7818608E-02  0.9024784E-01
         -1   -1    0    0    0  501 -0.00000000000E+00  0.00000000000E+00  0.22100977450E+04  0.22100977450E+04  0.00000000000E+00 0.  1.
          1   -1    0    0  501    0  0.00000000000E+00 -0.00000000000E+00 -0.19295039019E+03  0.19295039019E+03  0.00000000000E+00 0. -1.
         23    2    1    2    0    0 -0.23022803740E+03  0.24064687924E+03  0.58664538077E+03  0.68080002879E+03  0.91760594637E+02 0.  0.
        254    2    1    2    0    0  0.23022803740E+03 -0.24064687924E+03  0.14305019741E+04  0.17222481064E+04  0.89938132768E+03 0.  0.
        -24    2    4    4    0    0 -0.12438844058E+03 -0.38318390141E+03  0.25452027230E+03  0.48302444300E+03  0.78928176655E+02 0.  0.
         24    2    4    4    0    0  0.35461647798E+03  0.14253702217E+03  0.11759817018E+04  0.12392236634E+04  0.81686449036E+02 0.  0.
         11    1    3    3    0    0 -0.63736332224E+02  0.18601867263E+02  0.89559812718E+02  0.11148681341E+03  0.00000000000E+00 0.  1.
        -11    1    3    3    0    0 -0.16649170518E+03  0.22204501198E+03  0.49708556805E+03  0.56931321538E+03  0.00000000000E+00 0. -1.
          2    1    6    6  502    0  0.11861057933E+03  0.22050207526E+02  0.28012902941E+03  0.30500320376E+03  0.00000000000E+00 0. -1.
          3    1    5    5  503    0 -0.57580725223E+02 -0.99375204638E+02  0.10379286023E+03  0.15480287158E+03  0.00000000000E+00 0. -1.
         -4    1    5    5    0  503 -0.66807715357E+02 -0.28380869677E+03  0.15072741207E+03  0.32822157142E+03  0.00000000000E+00 0.  1.
         -1    1    6    6    0  502  0.23600589865E+03  0.12048681465E+03  0.89585267237E+03  0.93422045968E+03  0.00000000000E+00 0.  1.
<mgrwt>
<rscale>  0 0.13060463E+04</rscale>
<asrwt>0</asrwt>
<pdfrwt beam="1">  1        1 0.29684677E-01 0.13060463E+04</pdfrwt>
<pdfrwt beam="2">  1       -1 0.34001502E+00 0.13060463E+04</pdfrwt>
<totfact> 0.27916050E+00</totfact>
</mgrwt>
</event>
<event>
12    1  0.1980523E-007  0.2264714E+04  0.7818608E-02  0.8491965E-01
          2   -1    0    0  501    0  0.00000000000E+00  0.00000000000E+00  0.14500071522E+04  0.14500071522E+04  0.00000000000E+00 0. -1.
         -2   -1    0    0    0  501 -0.00000000000E+00 -0.00000000000E+00 -0.88429421631E+03  0.88429421631E+03  0.00000000000E+00 0.  1.
         23    2    1    2    0    0  0.16905274660E+03  0.90734650307E+03  0.48032590807E+03  0.10442840553E+04  0.89217164938E+02 0.  0.
        254    2    1    2    0    0 -0.16905274660E+03 -0.90734650307E+03  0.85387027850E+02  0.12900173132E+04  0.89721637081E+03 0.  0.
        -24    2    4    4    0    0 -0.49329730527E+03 -0.55141997578E+03  0.23346968985E+03  0.77998015097E+03  0.80341264278E+02 0.  0.
         24    2    4    4    0    0  0.32424455867E+03 -0.35592652729E+03 -0.14808266200E+03  0.51003716223E+03  0.79945014931E+02 0.  0.
         13    1    3    3    0    0  0.17536428526E+03  0.77684162474E+03  0.40469899616E+03  0.89331787174E+03  0.00000000000E+00 0. -1.
        -13    1    3    3    0    0 -0.63115386589E+01  0.13050487833E+03  0.75626911906E+02  0.15096618361E+03  0.00000000000E+00 0.  1.
          2    1    6    6  502    0  0.12647091052E+03 -0.16416396915E+03 -0.26483241712E+02  0.20891639970E+03  0.00000000000E+00 0. -1.
          1    1    5    5  503    0 -0.15066906386E+03 -0.13866946059E+03  0.96339156848E+02  0.22629984368E+03  0.00000000000E+00 0. -1.
         -2    1    5    5    0  503 -0.34262824141E+03 -0.41275051519E+03  0.13713053300E+03  0.55368030729E+03  0.00000000000E+00 0.  1.
         -1    1    6    6    0  502  0.19777364816E+03 -0.19176255814E+03 -0.12159942029E+03  0.30112076253E+03  0.00000000000E+00 0.  1.
<mgrwt>
<rscale>  0 0.22647145E+04</rscale>
<asrwt>0</asrwt>
<pdfrwt beam="1">  1        2 0.22307802E+00 0.22647145E+04</pdfrwt>
<pdfrwt beam="2">  1       -2 0.13604526E+00 0.22647145E+04</pdfrwt>
<totfact> 0.47662222E+00</totfact>
</mgrwt>
</event>
<event>
12    1  0.1980523E-007  0.1270183E+04  0.7818608E-02  0.9053550E-01
          2   -1    0    0  501    0  0.00000000000E+00  0.00000000000E+00  0.20311149270E+04  0.20311149270E+04  0.00000000000E+00 0. -1.
         -2   -1    0    0    0  501 -0.00000000000E+00 -0.00000000000E+00 -0.19858123909E+03  0.19858123909E+03  0.00000000000E+00 0.  1.
         23    2    1    2    0    0 -0.65729341007E+02 -0.26314936689E+03  0.25982100700E+03  0.38670350656E+03  0.92003862668E+02 0.  0.
        254    2    1    2    0    0  0.65729341007E+02  0.26314936689E+03  0.15727126810E+04  0.18429926596E+04  0.92175312902E+03 0.  0.
        -24    2    4    4    0    0  0.44684640726E+03  0.33361286301E+03  0.97667388020E+03  0.11274850043E+04  0.79757836866E+02 0.  0.
         24    2    4    4    0    0 -0.38111706625E+03 -0.70463496125E+02  0.59603880076E+03  0.71550765531E+03  0.80458873469E+02 0.  0.
         13    1    3    3    0    0 -0.84564221512E+02 -0.18097953903E+03  0.20447580000E+03  0.28585845080E+03  0.00000000000E+00 0.  1.
        -13    1    3    3    0    0  0.18834880506E+02 -0.82169827858E+02  0.55345206999E+02  0.10084505576E+03  0.00000000000E+00 0. -1.
          2    1    6    6  502    0 -0.35956535605E+03 -0.44868890646E+02  0.54788812464E+03  0.65687278810E+03  0.00000000000E+00 0. -1.
          1    1    5    5  503    0  0.23719347676E+03  0.12764919002E+03  0.45860256621E+03  0.53185653598E+03  0.00000000000E+00 0. -1.
         -2    1    5    5    0  503  0.20965293051E+03  0.20596367299E+03  0.51807131399E+03  0.59562846829E+03  0.00000000000E+00 0.  1.
         -1    1    6    6    0  502 -0.21551710201E+02 -0.25594605480E+02  0.48150676113E+02  0.58634867207E+02  0.00000000000E+00 0.  1.
<mgrwt>
<rscale>  0 0.12701832E+04</rscale>
<asrwt>0</asrwt>
<pdfrwt beam="1">  1        2 0.31247921E+00 0.12701832E+04</pdfrwt>
<pdfrwt beam="2">  1       -2 0.30550961E-01 0.12701832E+04</pdfrwt>
<totfact> 0.62566951E+01</totfact>
</mgrwt>
</event>
<event>
12    1  0.1980523E-007  0.1770760E+04  0.7818608E-02  0.8722005E-01
         -3   -1    0    0    0  501 -0.00000000000E+00  0.00000000000E+00  0.25096980250E+03  0.25096980250E+03  0.00000000000E+00 0.  1.
          3   -1    0    0  501    0  0.00000000000E+00 -0.00000000000E+00 -0.31234752477E+04  0.31234752477E+04  0.00000000000E+00 0. -1.
         23    2    1    2    0    0 -0.53540173684E+03  0.32951811643E+03 -0.73321693929E+03  0.97056285819E+03  0.95645035194E+02 0.  0.
        254    2    1    2    0    0  0.53540173684E+03 -0.32951811643E+03 -0.21392885059E+04  0.24038821920E+04  0.89825223221E+03 0.  0.
        -24    2    4    4    0    0  0.58089104684E+03 -0.27384800627E+03 -0.21897440896E+04  0.22833231443E+04  0.78474611266E+02 0.  0.
         24    2    4    4    0    0 -0.45489309994E+02 -0.55670110161E+02  0.50455583722E+02  0.12055904766E+03  0.82584983834E+02 0.  0.
         13    1    3    3    0    0 -0.32791691195E+03  0.18396718112E+03 -0.36878659348E+03  0.52666590587E+03  0.00000000000E+00 0.  1.
        -13    1    3    3    0    0 -0.20748482490E+03  0.14555093531E+03 -0.36443034581E+03  0.44389695232E+03  0.00000000000E+00 0. -1.
          4    1    6    6  502    0 -0.12439560240E+02 -0.48618855776E+02  0.66368383831E+02  0.83206358941E+02  0.00000000000E+00 0. -1.
          1    1    5    5  503    0  0.35370176576E+03 -0.12447078979E+03 -0.12909514017E+04  0.13443040721E+04  0.00000000000E+00 0. -1.
         -2    1    5    5    0  503  0.22718928108E+03 -0.14937721648E+03 -0.89879268791E+03  0.93901907227E+03  0.00000000000E+00 0.  1.
         -3    1    6    6    0  502 -0.33049749754E+02 -0.70512543852E+01 -0.15912800109E+02  0.37352688719E+02  0.00000000000E+00 0.  1.
<mgrwt>
<rscale>  0 0.17707603E+04</rscale>
<asrwt>0</asrwt>
<pdfrwt beam="1">  1        3 0.48053464E+00 0.17707603E+04</pdfrwt>
<pdfrwt beam="2">  1       -3 0.38610740E-01 0.17707603E+04</pdfrwt>
<totfact> 0.71083947E-02</totfact>
</mgrwt>
</event>
<event>
12    1  0.1980523E-007  0.2608278E+04  0.7818608E-02  0.8365395E-01
          1   -1    0    0  501    0  0.00000000000E+00  0.00000000000E+00  0.17051847129E+04  0.17051847129E+04  0.00000000000E+00 0. -1.
         -1   -1    0    0    0  501 -0.00000000000E+00 -0.00000000000E+00 -0.99741611488E+03  0.99741611488E+03  0.00000000000E+00 0.  1.
         23    2    1    2    0    0 -0.16237321028E+03  0.10420372801E+04  0.77852183262E+03  0.13136175312E+04  0.85369912051E+02 0.  0.
        254    2    1    2    0    0  0.16237321028E+03 -0.10420372801E+04 -0.70753234623E+02  0.13889832966E+04  0.90114473057E+03 0.  0.
        -24    2    4    4    0    0  0.16942989851E+03 -0.40827172220E+03  0.39567035438E+03  0.59795573523E+03  0.74858147883E+02 0.  0.
         24    2    4    4    0    0 -0.70566882327E+01 -0.63376555789E+03 -0.46642358900E+03  0.79102756134E+03  0.80405591938E+02 0.  0.
         11    1    3    3    0    0 -0.16478828448E+03  0.10258169467E+04  0.75247567680E+03  0.12828387393E+04  0.00000000000E+00 0. -1.
        -11    1    3    3    0    0  0.24150742026E+01  0.16220333412E+02  0.26046155821E+02  0.30778791926E+02  0.00000000000E+00 0.  1.
          4    1    6    6  502    0 -0.34472092758E+02 -0.54237326141E+03 -0.39734047209E+03  0.67322843867E+03  0.00000000000E+00 0. -1.
          3    1    5    5  503    0  0.16568002097E+03 -0.40351583723E+03  0.37126812101E+03  0.57281316145E+03  0.00000000000E+00 0. -1.
         -4    1    5    5    0  503  0.37498775378E+01 -0.47558849700E+01  0.24402233362E+02  0.25142573783E+02  0.00000000000E+00 0.  1.
         -3    1    6    6    0  502  0.27415404525E+02 -0.91392296473E+02 -0.69083116912E+02  0.11779912267E+03  0.00000000000E+00 0.  1.
<mgrwt>
<rscale>  0 0.26082781E+04</rscale>
<asrwt>0</asrwt>
<pdfrwt beam="1">  1        1 0.26233611E+00 0.26082781E+04</pdfrwt>
<pdfrwt beam="2">  1       -1 0.15344863E+00 0.26082781E+04</pdfrwt>
<totfact> 0.13647719E+00</totfact>
</mgrwt>
</event>
<event>
12    1  0.1980523E-007  0.1891882E+04  0.7818608E-02  0.8658908E-01
          2   -1    0    0  501    0  0.00000000000E+00  0.00000000000E+00  0.21183789736E+04  0.21183789736E+04  0.00000000000E+00 0.  1.
         -2   -1    0    0    0  501 -0.00000000000E+00 -0.00000000000E+00 -0.42240032381E+03  0.42240032381E+03  0.00000000000E+00 0. -1.
         23    2    1    2    0    0 -0.24222098982E+03 -0.36923185943E+03  0.14381776862E+04  0.15072781290E+04  0.92353273243E+02 0.  0.
        254    2    1    2    0    0  0.24222098982E+03  0.36923185943E+03  0.25780096360E+03  0.10335011684E+04  0.89814261363E+03 0.  0.
        -24    2    4    4    0    0 -0.17678517014E+02 -0.10420178196E+03  0.43871332370E+03  0.45830034225E+03  0.79995512313E+02 0.  0.
         24    2    4    4    0    0  0.25989950683E+03  0.47343364139E+03 -0.18091236010E+03  0.57520082619E+03  0.80246756676E+02 0.  0.
         11    1    3    3    0    0 -0.13654983451E+03 -0.28488497580E+03  0.10007325373E+04  0.10494145596E+04  0.00000000000E+00 0. -1.
        -11    1    3    3    0    0 -0.10567115531E+03 -0.84346883628E+02  0.43744514888E+03  0.45786356933E+03  0.00000000000E+00 0.  1.
          4    1    6    6  502    0  0.19579487214E+03  0.27842261611E+03 -0.12291461058E+03  0.36188780943E+03  0.00000000000E+00 0. -1.
          1    1    5    5  503    0  0.85864124027E+01 -0.59422255430E+02  0.35316812582E+03  0.35823519650E+03  0.00000000000E+00 0. -1.
         -2    1    5    5    0  503 -0.26264929417E+02 -0.44779526534E+02  0.85545197879E+02  0.10006514575E+03  0.00000000000E+00 0.  1.
         -3    1    6    6    0  502  0.64104634694E+02  0.19501102528E+03 -0.57997749528E+02  0.21331301677E+03  0.00000000000E+00 0.  1.
<mgrwt>
<rscale>  0 0.18918816E+04</rscale>
<asrwt>0</asrwt>
<pdfrwt beam="1">  1        2 0.32590445E+00 0.18918816E+04</pdfrwt>
<pdfrwt beam="2">  1       -2 0.64984667E-01 0.18918816E+04</pdfrwt>
<totfact> 0.11747047E+01</totfact>
</mgrwt>
</event>
<event>
12    1  0.1980523E-007  0.2293825E+04  0.7818608E-02  0.8480360E-01
          1   -1    0    0  501    0  0.00000000000E+00  0.00000000000E+00  0.28505937255E+04  0.28505937255E+04  0.00000000000E+00 0. -1.
         -1   -1    0    0    0  501 -0.00000000000E+00 -0.00000000000E+00 -0.46145078683E+03  0.46145078683E+03  0.00000000000E+00 0.  1.
         23    2    1    2    0    0  0.96211256160E+03  0.33662638159E+02  0.11673799152E+04  0.15158156275E+04  0.90152069767E+02 0.  0.
        254    2    1    2    0    0 -0.96211256160E+03 -0.33662638159E+02  0.12217630235E+04  0.17962288848E+04  0.89829815030E+03 0.  0.
        -24    2    4    4    0    0 -0.82367904741E+03  0.13417140133E+03  0.37562485701E+03  0.91886712623E+03  0.82302031446E+02 0.  0.
         24    2    4    4    0    0 -0.13843351419E+03 -0.16783403949E+03  0.84613816646E+03  0.87736175862E+03  0.80509354018E+02 0.  0.
         11    1    3    3    0    0  0.18164501731E+03  0.37061875472E+02  0.25269059202E+03  0.31340234559E+03  0.00000000000E+00 0. -1.
        -11    1    3    3    0    0  0.78046754430E+03 -0.33992373130E+01  0.91468932316E+03  0.12024132819E+04  0.00000000000E+00 0.  1.
          4    1    6    6  502    0 -0.59321990773E+02 -0.48089212277E+02  0.17317237288E+03  0.18926262614E+03  0.00000000000E+00 0. -1.
          3    1    5    5  503    0 -0.55614402026E+03  0.12943129329E+03  0.25557575874E+03  0.62559379745E+03  0.00000000000E+00 0. -1.
         -4    1    5    5    0  503 -0.26753502715E+03  0.47401080431E+01  0.12004909827E+03  0.29327332878E+03  0.00000000000E+00 0.  1.
         -3    1    6    6    0  502 -0.79111523422E+02 -0.11974482721E+03  0.67296579358E+03  0.68809913247E+03  0.00000000000E+00 0.  1.
<mgrwt>
<rscale>  0 0.22938254E+04</rscale>
<asrwt>0</asrwt>
<pdfrwt beam="1">  1        1 0.43855287E+00 0.22938254E+04</pdfrwt>
<pdfrwt beam="2">  1       -1 0.70992430E-01 0.22938254E+04</pdfrwt>
<totfact> 0.13901757E+00</totfact>
</mgrwt>
</event>
<event>
12    1  0.1980523E-007  0.2265804E+04  0.7818608E-02  0.8491528E-01
         -2   -1    0    0    0  501 -0.00000000000E+00  0.00000000000E+00  0.14244056305E+04  0.14244056305E+04  0.00000000000E+00 0.  1.
          2   -1    0    0  501    0  0.00000000000E+00 -0.00000000000E+00 -0.90105425576E+03  0.90105425576E+03  0.00000000000E+00 0. -1.
         23    2    1    2    0    0  0.14518844852E+03  0.83750807381E+03 -0.21926364214E+03  0.88210241653E+03  0.86767904223E+02 0.  0.
        254    2    1    2    0    0 -0.14518844852E+03 -0.83750807381E+03  0.74261501686E+03  0.14433574697E+04  0.89961339630E+03 0.  0.
        -24    2    4    4    0    0 -0.38341414875E+03 -0.73426604117E+03  0.81243690544E+03  0.11630414739E+04  0.80366137070E+02 0.  0.
         24    2    4    4    0    0  0.23822570023E+03 -0.10324203264E+03 -0.69821888589E+02  0.28031599581E+03  0.79319353435E+02 0.  0.
         11    1    3    3    0    0  0.96455342638E+02  0.42235381182E+03 -0.14961402087E+03  0.45833473655E+03  0.00000000000E+00 0. -1.
        -11    1    3    3    0    0  0.48733105881E+02  0.41515426199E+03 -0.69649621267E+02  0.42376767998E+03  0.00000000000E+00 0.  1.
          2    1    6    6  502    0  0.23014064471E+03 -0.10835383548E+03 -0.51334382815E+02  0.25950046025E+03  0.00000000000E+00 0. -1.
          3    1    5    5  503    0 -0.10552052272E+03 -0.17296519423E+03  0.15572065294E+03  0.25553954857E+03  0.00000000000E+00 0. -1.
         -4    1    5    5    0  503 -0.27789362603E+03 -0.56130084694E+03  0.65671625251E+03  0.90750192532E+03  0.00000000000E+00 0.  1.
         -1    1    6    6    0  502  0.80850555151E+01  0.51118028377E+01 -0.18487505775E+02  0.20815535561E+02  0.00000000000E+00 0.  1.
<mgrwt>
<rscale>  0 0.22658038E+04</rscale>
<asrwt>0</asrwt>
<pdfrwt beam="1">  1        2 0.13862373E+00 0.22658038E+04</pdfrwt>
<pdfrwt beam="2">  1       -2 0.21913933E+00 0.22658038E+04</pdfrwt>
<totfact> 0.26628438E+00</totfact>
</mgrwt>
</event>
<event>
12    1  0.1980523E-007  0.4063074E+04  0.7818608E-02  0.7991942E-01
          1   -1    0    0  501    0  0.00000000000E+00  0.00000000000E+00  0.20959804810E+04  0.20959804810E+04  0.00000000000E+00 0. -1.
         -1   -1    0    0    0  501 -0.00000000000E+00 -0.00000000000E+00 -0.19690750686E+04  0.19690750686E+04  0.00000000000E+00 0.  1.
         23    2    1    2    0    0 -0.13211849372E+04 -0.64162748091E+03 -0.11931795726E+04  0.18945269585E+04  0.91320541253E+02 0.  0.
        254    2    1    2    0    0  0.13211849372E+04  0.64162748091E+03  0.13200849850E+04  0.21705285912E+04  0.90075220509E+03 0.  0.
        -24    2    4    4    0    0  0.68359412991E+03  0.57678389468E+03  0.26921214498E+03  0.93704218473E+03  0.74781557519E+02 0.  0.
         24    2    4    4    0    0  0.63759080731E+03  0.64843586221E+02  0.10508728400E+04  0.12334864065E+04  0.80176435384E+02 0.  0.
         11    1    3    3    0    0 -0.60443922405E+03 -0.29250483786E+03 -0.48714925212E+03  0.82959041073E+03  0.00000000000E+00 0. -1.
        -11    1    3    3    0    0 -0.71674571317E+03 -0.34912264304E+03 -0.70603032049E+03  0.10649365477E+04  0.00000000000E+00 0.  1.
          4    1    6    6  502    0  0.60933137066E+03  0.44429633916E+02  0.99800231903E+03  0.11701569726E+04  0.00000000000E+00 0. -1.
          1    1    5    5  503    0  0.54224911966E+03  0.41736705014E+03  0.21388340923E+03  0.71692082901E+03  0.00000000000E+00 0. -1.
         -2    1    5    5    0  503  0.14134501024E+03  0.15941684454E+03  0.55328735747E+02  0.22012135572E+03  0.00000000000E+00 0.  1.
         -3    1    6    6    0  502  0.28259436652E+02  0.20413952306E+02  0.52870521003E+02  0.63329433913E+02  0.00000000000E+00 0.  1.
<mgrwt>
<rscale>  0 0.40630742E+04</rscale>
<asrwt>0</asrwt>
<pdfrwt beam="1">  1        1 0.32245853E+00 0.40630742E+04</pdfrwt>
<pdfrwt beam="2">  1       -1 0.30293463E+00 0.40630742E+04</pdfrwt>
<totfact> 0.63115923E-02</totfact>
</mgrwt>
</event>
<event>
12    1  0.1980523E-007  0.2034845E+04  0.7818608E-02  0.8590501E-01
          2   -1    0    0  501    0  0.00000000000E+00  0.00000000000E+00  0.12376806706E+04  0.12376806706E+04  0.00000000000E+00 0. -1.
         -2   -1    0    0    0  501 -0.00000000000E+00 -0.00000000000E+00 -0.83636162641E+03  0.83636162641E+03  0.00000000000E+00 0.  1.
         23    2    1    2    0    0  0.10733213603E+03  0.39428418824E+03 -0.55713613893E+03  0.69694018203E+03  0.91349501924E+02 0.  0.
        254    2    1    2    0    0 -0.10733213603E+03 -0.39428418824E+03  0.95845518314E+03  0.13771021150E+04  0.90044083012E+03 0.  0.
        -24    2    4    4    0    0  0.22129340399E+03 -0.36139707775E+03  0.94317569732E+03  0.10370969015E+04  0.80068524737E+02 0.  0.
         24    2    4    4    0    0 -0.32862554002E+03 -0.32887110485E+02  0.15279485829E+02  0.34000521350E+03  0.79333315367E+02 0.  0.
         11    1    3    3    0    0  0.40646876520E+02  0.73348888601E+02 -0.17084983076E+03  0.19032049995E+03  0.00000000000E+00 0.  1.
        -11    1    3    3    0    0  0.66685259514E+02  0.32093529964E+03 -0.38628630817E+03  0.50661968208E+03  0.00000000000E+00 0. -1.
          4    1    6    6  502    0 -0.23255792763E+03  0.43573793351E+01  0.34650237269E+02  0.23516550640E+03  0.00000000000E+00 0. -1.
          3    1    5    5  503    0  0.10464460951E+03 -0.99152577583E+02  0.30547659190E+03  0.33778347523E+03  0.00000000000E+00 0. -1.
         -2    1    5    5    0  503  0.11664879448E+03 -0.26224450017E+03  0.63769910542E+03  0.69931342628E+03  0.00000000000E+00 0.  1.
         -3    1    6    6    0  502 -0.96067612399E+02 -0.37244489820E+02 -0.19370751440E+02  0.10483970710E+03  0.00000000000E+00 0.  1.
<mgrwt>
<rscale>  0 0.20348451E+04</rscale>
<asrwt>0</asrwt>
<pdfrwt beam="1">  1        2 0.19041241E+00 0.20348451E+04</pdfrwt>
<pdfrwt beam="2">  1       -2 0.12867102E+00 0.20348451E+04</pdfrwt>
<totfact> 0.74290837E+00</totfact>
</mgrwt>
</event>
<event>
12    1  0.1980523E-007  0.2112892E+04  0.7818608E-02  0.8555586E-01
          2   -1    0    0  501    0  0.00000000000E+00  0.00000000000E+00  0.11656676355E+04  0.11656676355E+04  0.00000000000E+00 0. -1.
         -2   -1    0    0    0  501 -0.00000000000E+00 -0.00000000000E+00 -0.95745810633E+03  0.95745810633E+03  0.00000000000E+00 0.  1.
         23    2    1    2    0    0  0.11226387888E+03 -0.82629086106E+03  0.30538929918E+03  0.89257863445E+03  0.89856714038E+02 0.  0.
        254    2    1    2    0    0 -0.11226387888E+03  0.82629086106E+03 -0.97179769990E+02  0.12305471074E+04  0.89969023016E+03 0.  0.
        -24    2    4    4    0    0 -0.24901576366E+03  0.67048452794E+03  0.29655030991E+03  0.77825246224E+03  0.78590431497E+02 0.  0.
         24    2    4    4    0    0  0.13675188479E+03  0.15580633312E+03 -0.39373007990E+03  0.45229464515E+03  0.81057872990E+02 0.  0.
         11    1    3    3    0    0  0.73836019378E+02 -0.59965904252E+03  0.17844393755E+03  0.62998806646E+03  0.00000000000E+00 0.  1.
        -11    1    3    3    0    0  0.38427859498E+02 -0.22663181854E+03  0.12694536163E+03  0.26259056800E+03  0.00000000000E+00 0. -1.
          2    1    6    6  502    0  0.11010995500E+03  0.15513638565E+03 -0.30335698446E+03  0.35807395935E+03  0.00000000000E+00 0. -1.
          3    1    5    5  503    0 -0.17046963057E+03  0.46361534401E+03  0.24342445695E+03  0.55068552585E+03  0.00000000000E+00 0. -1.
         -4    1    5    5    0  503 -0.78546133096E+02  0.20686918393E+03  0.53125852962E+02  0.22756693639E+03  0.00000000000E+00 0.  1.
         -1    1    6    6    0  502  0.26641929790E+02  0.66994747234E+00 -0.90373095440E+02  0.94220685796E+02  0.00000000000E+00 0.  1.
<mgrwt>
<rscale>  0 0.21128918E+04</rscale>
<asrwt>0</asrwt>
<pdfrwt beam="1">  1        2 0.17933348E+00 0.21128918E+04</pdfrwt>
<pdfrwt beam="2">  1       -2 0.14730125E+00 0.21128918E+04</pdfrwt>
<totfact> 0.57488209E+00</totfact>
</mgrwt>
</event>
<event>
12    1  0.1980523E-007  0.1940493E+04  0.7818608E-02  0.8634959E-01
         -1   -1    0    0    0  501 -0.00000000000E+00  0.00000000000E+00  0.70843735990E+03  0.70843735990E+03  0.00000000000E+00 0.  1.
          1   -1    0    0  501    0  0.00000000000E+00 -0.00000000000E+00 -0.13288094417E+04  0.13288094417E+04  0.00000000000E+00 0. -1.
         23    2    1    2    0    0 -0.40060468328E+03  0.62883933054E+03 -0.33529862474E+03  0.82268099137E+03  0.91955586655E+02 0.  0.
        254    2    1    2    0    0  0.40060468328E+03 -0.62883933054E+03 -0.28507345705E+03  0.12145658102E+04  0.91541259305E+03 0.  0.
        -24    2    4    4    0    0 -0.17045787757E+02 -0.63826368214E+03 -0.41974797611E+03  0.76826397822E+03  0.79812843405E+02 0.  0.
         24    2    4    4    0    0  0.41765047104E+03  0.94243516022E+01  0.13467451905E+03  0.44630183199E+03  0.80792108477E+02 0.  0.
         11    1    3    3    0    0 -0.12653210006E+03  0.26402934833E+03 -0.10072523430E+03  0.30962467917E+03  0.00000000000E+00 0. -1.
        -11    1    3    3    0    0 -0.27407258322E+03  0.36480998221E+03 -0.23457339044E+03  0.51305631220E+03  0.00000000000E+00 0.  1.
          4    1    6    6  502    0  0.31461784204E+03  0.34840557616E+02  0.78062526112E+02  0.32602455271E+03  0.00000000000E+00 0. -1.
          1    1    5    5  503    0  0.20493436036E+02 -0.49294721164E+03 -0.32221415335E+03  0.58926979814E+03  0.00000000000E+00 0. -1.
         -2    1    5    5    0  503 -0.37539223793E+02 -0.14531647050E+03 -0.97533822751E+02  0.17899418008E+03  0.00000000000E+00 0.  1.
         -3    1    6    6    0  502  0.10303262900E+03 -0.25416206013E+02  0.56611992940E+02  0.12027727928E+03  0.00000000000E+00 0.  1.
<mgrwt>
<rscale>  0 0.19404930E+04</rscale>
<asrwt>0</asrwt>
<pdfrwt beam="1">  1        1 0.20443222E+00 0.19404930E+04</pdfrwt>
<pdfrwt beam="2">  1       -1 0.10899036E+00 0.19404930E+04</pdfrwt>
<totfact> 0.62746688E+00</totfact>
</mgrwt>
</event>
<event>
12    1  0.1980523E-007  0.1594749E+04  0.7818608E-02  0.8823780E-01
         -2   -1    0    0    0  501 -0.00000000000E+00  0.00000000000E+00  0.82410425117E+03  0.82410425117E+03  0.00000000000E+00 0.  1.
          2   -1    0    0  501    0  0.00000000000E+00 -0.00000000000E+00 -0.77151205247E+03  0.77151205247E+03  0.00000000000E+00 0. -1.
         23    2    1    2    0    0  0.16955307619E+03  0.49175523299E+03 -0.12573310728E+03  0.54189315051E+03  0.85252081997E+02 0.  0.
        254    2    1    2    0    0 -0.16955307619E+03 -0.49175523299E+03  0.17832530598E+03  0.10537231531E+04  0.89886657178E+03 0.  0.
        -24    2    4    4    0    0 -0.18949711522E+03 -0.20441815991E+03 -0.34536379911E+03  0.45080344071E+03  0.79067361423E+02 0.  0.
         24    2    4    4    0    0  0.19944039025E+02 -0.28733707307E+03  0.52368910509E+03  0.60291971242E+03  0.79382256058E+02 0.  0.
         13    1    3    3    0    0  0.43880547400E+02  0.59531586935E+02  0.20466745736E+01  0.73984465666E+02  0.00000000000E+00 0.  1.
        -13    1    3    3    0    0  0.12567252879E+03  0.43222364605E+03 -0.12777978186E+03  0.46790868484E+03  0.00000000000E+00 0. -1.
          4    1    6    6  502    0  0.41605252228E+02 -0.98785232231E+02  0.22151410692E+03  0.24608538901E+03  0.00000000000E+00 0. -1.
          3    1    5    5  503    0 -0.99056091456E+02 -0.51946034481E+02 -0.11953776505E+03  0.16370637442E+03  0.00000000000E+00 0. -1.
         -4    1    5    5    0  503 -0.90441023760E+02 -0.15247212543E+03 -0.22582603406E+03  0.28709706629E+03  0.00000000000E+00 0.  1.
         -3    1    6    6    0  502 -0.21661213203E+02 -0.18855184084E+03  0.30217499817E+03  0.35683432341E+03  0.00000000000E+00 0.  1.
<mgrwt>
<rscale>  0 0.15947493E+04</rscale>
<asrwt>0</asrwt>
<pdfrwt beam="1">  1        2 0.11869416E+00 0.15947493E+04</pdfrwt>
<pdfrwt beam="2">  1       -2 0.12678527E+00 0.15947493E+04</pdfrwt>
<totfact> 0.16037829E+01</totfact>
</mgrwt>
</event>
<event>
12    1  0.1980523E-007  0.3513463E+04  0.7818608E-02  0.8110607E-01
         -2   -1    0    0    0  501 -0.00000000000E+00  0.00000000000E+00  0.17839976593E+04  0.17839976593E+04  0.00000000000E+00 0.  1.
          2   -1    0    0  501    0  0.00000000000E+00 -0.00000000000E+00 -0.17298822695E+04  0.17298822695E+04  0.00000000000E+00 0. -1.
         23    2    1    2    0    0  0.13882693445E+04 -0.72353088794E+03  0.50381287582E+03  0.16467331051E+04  0.84343270061E+02 0.  0.
        254    2    1    2    0    0 -0.13882693445E+04  0.72353088794E+03 -0.44969748610E+03  0.18671468237E+04  0.91280924269E+03 0.  0.
        -24    2    4    4    0    0 -0.14876126499E+04  0.55350664451E+03 -0.32784778230E+03  0.16227238948E+04  0.79922893193E+02 0.  0.
         24    2    4    4    0    0  0.99343305408E+02  0.17002424343E+03 -0.12184970379E+03  0.24442292886E+03  0.78216891733E+02 0.  0.
         11    1    3    3    0    0  0.60184788042E+03 -0.28093972830E+03  0.24508121625E+03  0.70796384417E+03  0.00000000000E+00 0.  1.
        -11    1    3    3    0    0  0.78642146403E+03 -0.44259115964E+03  0.25873165956E+03  0.93876926097E+03  0.00000000000E+00 0. -1.
          4    1    6    6  502    0  0.27355248526E+02  0.65093361195E+02 -0.87850657712E+02  0.11270844402E+03  0.00000000000E+00 0. -1.
          1    1    5    5  503    0 -0.40743316533E+03  0.16548891862E+03 -0.56954154557E+02  0.44343222945E+03  0.00000000000E+00 0. -1.
         -2    1    5    5    0  503 -0.10801794845E+04  0.38801772589E+03 -0.27089362775E+03  0.11792916653E+04  0.00000000000E+00 0.  1.
         -3    1    6    6    0  502  0.71988056883E+02  0.10493088224E+03 -0.33999046081E+02  0.13171448483E+03  0.00000000000E+00 0.  1.
<mgrwt>
<rscale>  0 0.35134632E+04</rscale>
<asrwt>0</asrwt>
<pdfrwt beam="1">  1        2 0.26613574E+00 0.35134632E+04</pdfrwt>
<pdfrwt beam="2">  1       -2 0.27446118E+00 0.35134632E+04</pdfrwt>
<totfact> 0.35266056E-01</totfact>
</mgrwt>
</event>
<event>
12    1  0.1980523E-007  0.1626490E+04  0.7818608E-02  0.8804438E-01
         -1   -1    0    0    0  501 -0.00000000000E+00  0.00000000000E+00  0.44432775691E+03  0.44432775691E+03  0.00000000000E+00 0.  1.
          1   -1    0    0  501    0  0.00000000000E+00 -0.00000000000E+00 -0.14884671371E+04  0.14884671371E+04  0.00000000000E+00 0. -1.
         23    2    1    2    0    0 -0.13443030832E+03  0.54134562176E+03 -0.40478679231E+03  0.69502558829E+03  0.89897892932E+02 0.  0.
        254    2    1    2    0    0  0.13443030832E+03 -0.54134562176E+03 -0.63935258785E+03  0.12377693057E+04  0.90120726392E+03 0.  0.
        -24    2    4    4    0    0  0.14892133335E+03 -0.73222209446E+03 -0.69403393938E+03  0.10229228341E+04  0.79757484853E+02 0.  0.
         24    2    4    4    0    0 -0.14491025030E+02  0.19087647270E+03  0.54681351536E+02  0.21484647158E+03  0.80778329449E+02 0.  0.
         11    1    3    3    0    0 -0.49667933831E+02  0.33095469508E+03 -0.27869854749E+03  0.43551210571E+03  0.00000000000E+00 0. -1.
        -11    1    3    3    0    0 -0.84762374493E+02  0.21039092668E+03 -0.12608824482E+03  0.25951348258E+03  0.00000000000E+00 0.  1.
          2    1    6    6  502    0  0.30623975879E+02  0.10058236581E+03  0.41571271120E+02  0.11306109318E+03  0.00000000000E+00 0. -1.
          3    1    5    5  503    0 -0.30466116161E+01 -0.13920277528E+03 -0.13270988701E+03  0.19235022381E+03  0.00000000000E+00 0. -1.
         -4    1    5    5    0  503  0.15196794497E+03 -0.59301931918E+03 -0.56132405238E+03  0.83057261031E+03  0.00000000000E+00 0.  1.
         -1    1    6    6    0  502 -0.45115000909E+02  0.90294106896E+02  0.13110080416E+02  0.10178537840E+03  0.00000000000E+00 0.  1.
<mgrwt>
<rscale>  0 0.16264898E+04</rscale>
<asrwt>0</asrwt>
<pdfrwt beam="1">  1        1 0.22899494E+00 0.16264898E+04</pdfrwt>
<pdfrwt beam="2">  1       -1 0.68358116E-01 0.16264898E+04</pdfrwt>
<totfact> 0.13819227E+01</totfact>
</mgrwt>
</event>
<event>
12    1  0.1980523E-007  0.4111006E+04  0.7818608E-02  0.7982520E-01
         -2   -1    0    0    0  501 -0.00000000000E+00  0.00000000000E+00  0.19969009116E+04  0.19969009116E+04  0.00000000000E+00 0.  1.
          2   -1    0    0  501    0  0.00000000000E+00 -0.00000000000E+00 -0.21158246191E+04  0.21158246191E+04  0.00000000000E+00 0. -1.
         23    2    1    2    0    0  0.17247494564E+02 -0.19523437391E+04  0.62078030199E+02  0.19555756277E+04  0.92080411794E+02 0.  0.
        254    2    1    2    0    0 -0.17247494564E+02  0.19523437391E+04 -0.18100173774E+03  0.21571499030E+04  0.89921661656E+03 0.  0.
        -24    2    4    4    0    0  0.42437928489E+02  0.17651011776E+04 -0.44123862005E+03  0.18215154743E+04  0.76445787681E+02 0.  0.
         24    2    4    4    0    0 -0.59685423053E+02  0.18724256144E+03  0.26023688231E+03  0.33563442867E+03  0.79404711786E+02 0.  0.
         11    1    3    3    0    0 -0.95840097615E+01 -0.88334936724E+03  0.70515863034E+02  0.88621128677E+03  0.00000000000E+00 0.  1.
        -11    1    3    3    0    0  0.26831504325E+02 -0.10689943718E+04 -0.84378328351E+01  0.10693643409E+04  0.00000000000E+00 0. -1.
          4    1    6    6  502    0 -0.33541951792E+02  0.18130887069E+03  0.23603979774E+03  0.29952087613E+03  0.00000000000E+00 0. -1.
          3    1    5    5  503    0  0.21823050127E+02  0.13312609047E+04 -0.30023768075E+03  0.13648716082E+04  0.00000000000E+00 0. -1.
         -4    1    5    5    0  503  0.20614878362E+02  0.43384027294E+03 -0.14100093930E+03  0.45664386618E+03  0.00000000000E+00 0.  1.
         -3    1    6    6    0  502 -0.26143471261E+02  0.59336907580E+01  0.24197084569E+02  0.36113552542E+02  0.00000000000E+00 0.  1.
<mgrwt>
<rscale>  0 0.41110058E+04</rscale>
<asrwt>0</asrwt>
<pdfrwt beam="1">  1        2 0.32551148E+00 0.41110058E+04</pdfrwt>
<pdfrwt beam="2">  1       -2 0.30721552E+00 0.41110058E+04</pdfrwt>
<totfact> 0.12921055E-01</totfact>
</mgrwt>
</event>
<event>
12    1  0.1980523E-007  0.1678449E+04  0.7818608E-02  0.8773752E-01
          1   -1    0    0  501    0  0.00000000000E+00  0.00000000000E+00  0.11381234783E+04  0.11381234783E+04  0.00000000000E+00 0. -1.
         -1   -1    0    0    0  501 -0.00000000000E+00 -0.00000000000E+00 -0.61882385164E+03  0.61882385164E+03  0.00000000000E+00 0.  1.
         23    2    1    2    0    0  0.52123482406E+03 -0.14989424580E+03  0.44107482923E+03  0.70532875509E+03  0.93742311921E+02 0.  0.
        254    2    1    2    0    0 -0.52123482406E+03  0.14989424580E+03  0.78224797473E+02  0.10516185749E+04  0.89756809290E+03 0.  0.
        -24    2    4    4    0    0  0.11789876562E+03  0.30040125109E+03  0.18680835515E+03  0.38132714030E+03  0.79824781761E+02 0.  0.
         24    2    4    4    0    0 -0.63913358967E+03 -0.15050700529E+03 -0.10858355768E+03  0.67029143460E+03  0.79725241981E+02 0.  0.
         11    1    3    3    0    0  0.40014158216E+03 -0.98920548061E+02  0.28402197258E+03  0.50056672034E+03  0.00000000000E+00 0.  1.
        -11    1    3    3    0    0  0.12109324190E+03 -0.50973697744E+02  0.15705285665E+03  0.20476203476E+03  0.00000000000E+00 0. -1.
          2    1    6    6  502    0 -0.52546893186E+03 -0.91689906983E+02 -0.84357239394E+02  0.54003775908E+03  0.00000000000E+00 0. -1.
          1    1    5    5  503    0  0.54175387730E+02  0.10461852877E+03  0.11116172712E+03  0.16197820462E+03  0.00000000000E+00 0. -1.
         -2    1    5    5    0  503  0.63723377885E+02  0.19578272232E+03  0.75646628033E+02  0.21934893567E+03  0.00000000000E+00 0.  1.
         -1    1    6    6    0  502 -0.11366465781E+03 -0.58817098303E+02 -0.24226318282E+02  0.13025367551E+03  0.00000000000E+00 0.  1.
<mgrwt>
<rscale>  0 0.16784492E+04</rscale>
<asrwt>0</asrwt>
<pdfrwt beam="1">  1        1 0.17509592E+00 0.16784492E+04</pdfrwt>
<pdfrwt beam="2">  1       -1 0.95203670E-01 0.16784492E+04</pdfrwt>
<totfact> 0.12061603E+01</totfact>
</mgrwt>
</event>
<event>
12    1  0.1980523E-007  0.3205767E+04  0.7818608E-02  0.8187296E-01
         -2   -1    0    0    0  501 -0.00000000000E+00  0.00000000000E+00  0.14069615958E+04  0.14069615958E+04  0.00000000000E+00 0. -1.
          2   -1    0    0  501    0  0.00000000000E+00 -0.00000000000E+00 -0.18260878867E+04  0.18260878867E+04  0.00000000000E+00 0.  1.
         23    2    1    2    0    0  0.86377480649E+03  0.11383488277E+04 -0.55514638210E+03  0.15357225623E+04  0.91166402649E+02 0.  0.
        254    2    1    2    0    0 -0.86377480649E+03 -0.11383488277E+04  0.13602009122E+03  0.16973269201E+04  0.90579922655E+03 0.  0.
        -24    2    4    4    0    0 -0.10826322201E+03 -0.64706890046E+03 -0.25934657478E+03  0.70989509793E+03  0.79191647519E+02 0.  0.
         24    2    4    4    0    0 -0.75551158448E+03 -0.49127992723E+03  0.39536666599E+03  0.98743182221E+03  0.80951107237E+02 0.  0.
         13    1    3    3    0    0  0.36329801828E+03  0.53113296766E+03 -0.28465143342E+03  0.70364345941E+03  0.00000000000E+00 0. -1.
        -13    1    3    3    0    0  0.50047678820E+03  0.60721586003E+03 -0.27049494869E+03  0.83207910289E+03  0.00000000000E+00 0.  1.
          4    1    6    6  502    0 -0.38468964839E+03 -0.28529558057E+03  0.17945616287E+03  0.51145303623E+03  0.00000000000E+00 0. -1.
          1    1    5    5  503    0 -0.33051194499E+02 -0.18388884146E+03 -0.11303319993E+03  0.21836664525E+03  0.00000000000E+00 0. -1.
         -2    1    5    5    0  503 -0.75212027507E+02 -0.46318005900E+03 -0.14631337485E+03  0.49152845269E+03  0.00000000000E+00 0.  1.
         -3    1    6    6    0  502 -0.37082193609E+03 -0.20598434666E+03  0.21591050312E+03  0.47597878599E+03  0.00000000000E+00 0.  1.
<mgrwt>
<rscale>  0 0.32057670E+04</rscale>
<asrwt>0</asrwt>
<pdfrwt beam="1">  1        2 0.28093659E+00 0.32057670E+04</pdfrwt>
<pdfrwt beam="2">  1       -2 0.21645563E+00 0.32057670E+04</pdfrwt>
<totfact> 0.73129099E-01</totfact>
</mgrwt>
</event>
<event>
12    1  0.1980523E-007  0.1511174E+04  0.7818608E-02  0.8877056E-01
         -2   -1    0    0    0  501 -0.00000000000E+00  0.00000000000E+00  0.39499365978E+03  0.39499365978E+03  0.00000000000E+00 0.  1.
          2   -1    0    0  501    0  0.00000000000E+00 -0.00000000000E+00 -0.14453701393E+04  0.14453701393E+04  0.00000000000E+00 0. -1.
         23    2    1    2    0    0 -0.19599636815E+03 -0.43656666642E+03 -0.31958099483E+03  0.58264375733E+03  0.91305559203E+02 0.  0.
        254    2    1    2    0    0  0.19599636815E+03  0.43656666642E+03 -0.73079548470E+03  0.12577200418E+04  0.90487161101E+03 0.  0.
        -24    2    4    4    0    0  0.25963319408E+03 -0.26397785131E+02  0.11021508362E+03  0.29228634061E+03  0.71956248689E+02 0.  0.
         24    2    4    4    0    0 -0.63636825922E+02  0.46296445156E+03 -0.84101056831E+03  0.96543370115E+03  0.79860667892E+02 0.  0.
         13    1    3    3    0    0 -0.83344318564E+02 -0.24058321323E+03 -0.12163478206E+03  0.28217295783E+03  0.00000000000E+00 0.  1.
        -13    1    3    3    0    0 -0.11265204959E+03 -0.19598345320E+03 -0.19794621278E+03  0.30047079951E+03  0.00000000000E+00 0. -1.
          4    1    6    6  502    0 -0.33495361615E+02  0.27523366106E+03 -0.41724757616E+03  0.50097010614E+03  0.00000000000E+00 0. -1.
          3    1    5    5  503    0  0.89852681159E+02 -0.38417981332E+01  0.25227160798E+01  0.89970149609E+02  0.00000000000E+00 0. -1.
         -4    1    5    5    0  503  0.16978051292E+03 -0.22555986998E+02  0.10769236754E+03  0.20231619100E+03  0.00000000000E+00 0.  1.
         -3    1    6    6    0  502 -0.30141464307E+02  0.18773079049E+03 -0.42376299215E+03  0.46446359501E+03  0.00000000000E+00 0.  1.
<mgrwt>
<rscale>  0 0.15111744E+04</rscale>
<asrwt>0</asrwt>
<pdfrwt beam="1">  1        2 0.22236464E+00 0.15111744E+04</pdfrwt>
<pdfrwt beam="2">  1       -2 0.60768256E-01 0.15111744E+04</pdfrwt>
<totfact> 0.33174509E+01</totfact>
</mgrwt>
</event>
<event>
12    1  0.1980523E-007  0.2933222E+04  0.7818608E-02  0.8263061E-01
         -2   -1    0    0    0  501 -0.00000000000E+00  0.00000000000E+00  0.46557023937E+03  0.46557023937E+03  0.00000000000E+00 0. -1.
          2   -1    0    0  501    0  0.00000000000E+00 -0.00000000000E+00 -0.46200289112E+04  0.46200289112E+04  0.00000000000E+00 0.  1.
         23    2    1    2    0    0  0.75179584380E+03 -0.70383082430E+03 -0.33361892037E+04  0.34926130272E+04  0.87249839253E+02 0.  0.
        254    2    1    2    0    0 -0.75179584380E+03  0.70383082430E+03 -0.81826946807E+03  0.15929861234E+04  0.89859058916E+03 0.  0.
        -24    2    4    4    0    0 -0.51623183588E+03 -0.22501762174E+02 -0.81884148423E+02  0.52914069446E+03  0.79266784270E+02 0.  0.
         24    2    4    4    0    0 -0.23556400791E+03  0.72633258647E+03 -0.73638531965E+03  0.10638454289E+04  0.80338842710E+02 0.  0.
         11    1    3    3    0    0  0.50970742724E+03 -0.52586220233E+03 -0.24238005854E+04  0.25320233006E+04  0.00000000000E+00 0. -1.
        -11    1    3    3    0    0  0.24208841656E+03 -0.17796862197E+03 -0.91238861835E+03  0.96058972654E+03  0.00000000000E+00 0.  1.
          4    1    6    6  502    0 -0.16265513499E+03  0.38599588990E+03 -0.37696178741E+03  0.56351549147E+03  0.00000000000E+00 0. -1.
          3    1    5    5  503    0 -0.16269464932E+03 -0.43112945933E+02 -0.35034964192E+02  0.17191778192E+03  0.00000000000E+00 0. -1.
         -4    1    5    5    0  503 -0.35353718657E+03  0.20611183759E+02 -0.46849184231E+02  0.35722291254E+03  0.00000000000E+00 0.  1.
         -3    1    6    6    0  502 -0.72908872923E+02  0.34033669657E+03 -0.35942353223E+03  0.50032993745E+03  0.00000000000E+00 0.  1.
<mgrwt>
<rscale>  0 0.29332221E+04</rscale>
<asrwt>0</asrwt>
<pdfrwt beam="1">  1        2 0.71077369E+00 0.29332221E+04</pdfrwt>
<pdfrwt beam="2">  1       -2 0.71626189E-01 0.29332221E+04</pdfrwt>
<totfact> 0.14178937E-01</totfact>
</mgrwt>
</event>
<event>
12    1  0.1980523E-007  0.1205205E+04  0.7818608E-02  0.9108313E-01
         -2   -1    0    0    0  501 -0.00000000000E+00  0.00000000000E+00  0.66585246471E+03  0.66585246471E+03  0.00000000000E+00 0.  1.
          2   -1    0    0  501    0  0.00000000000E+00 -0.00000000000E+00 -0.54536039529E+03  0.54536039529E+03  0.00000000000E+00 0. -1.
         23    2    1    2    0    0 -0.20233215408E+03  0.85359265844E+02 -0.10234764251E+03  0.25879480282E+03  0.90968154865E+02 0.  0.
        254    2    1    2    0    0  0.20233215408E+03 -0.85359265844E+02  0.22283971193E+03  0.95241805718E+03  0.89956551378E+03 0.  0.
        -24    2    4    4    0    0  0.33808646773E+03 -0.35590312289E+03 -0.95020198396E+02  0.50594615476E+03  0.77351023695E+02 0.  0.
         24    2    4    4    0    0 -0.13575431365E+03  0.27054385705E+03  0.31785991033E+03  0.44647190241E+03  0.81725300781E+02 0.  0.
         13    1    3    3    0    0 -0.15167739380E+03  0.36402726403E+02 -0.31989194903E+02  0.15923096078E+03  0.00000000000E+00 0. -1.
        -13    1    3    3    0    0 -0.50654760285E+02  0.48956539441E+02 -0.70358447607E+02  0.99563842047E+02  0.00000000000E+00 0.  1.
          4    1    6    6  502    0 -0.99264999793E+02  0.10793884646E+03  0.14009267153E+03  0.20280604373E+03  0.00000000000E+00 0. -1.
          3    1    5    5  503    0  0.20051947227E+03 -0.18159800559E+03 -0.18816400379E+02  0.27118250555E+03  0.00000000000E+00 0. -1.
         -4    1    5    5    0  503  0.13756699546E+03 -0.17430511730E+03 -0.76203798017E+02  0.23476364921E+03  0.00000000000E+00 0.  1.
         -3    1    6    6    0  502 -0.36489313857E+02  0.16260501059E+03  0.17776723880E+03  0.24366585868E+03  0.00000000000E+00 0.  1.
<mgrwt>
<rscale>  0 0.12052047E+04</rscale>
<asrwt>0</asrwt>
<pdfrwt beam="1">  1        2 0.83901600E-01 0.12052047E+04</pdfrwt>
<pdfrwt beam="2">  1       -2 0.10243884E+00 0.12052047E+04</pdfrwt>
<totfact> 0.42786940E+01</totfact>
</mgrwt>
</event>
<event>
12    1  0.1980523E-007  0.1959340E+04  0.7818608E-02  0.8625870E-01
          2   -1    0    0  501    0  0.00000000000E+00  0.00000000000E+00  0.12221158777E+04  0.12221158777E+04  0.00000000000E+00 0. -1.
         -2   -1    0    0    0  501 -0.00000000000E+00 -0.00000000000E+00 -0.78532082291E+03  0.78532082291E+03  0.00000000000E+00 0.  1.
         23    2    1    2    0    0 -0.33899176358E+03 -0.69034347132E+03  0.19248574770E+03  0.79784735309E+03  0.89555075761E+02 0.  0.
        254    2    1    2    0    0  0.33899176358E+03  0.69034347132E+03  0.24430930708E+03  0.12095893475E+04  0.90107148878E+03 0.  0.
        -24    2    4    4    0    0  0.91486876138E+02  0.69740630699E+03 -0.16181586865E+03  0.72627495752E+03  0.80904468642E+02 0.  0.
         24    2    4    4    0    0  0.24750488744E+03 -0.70628356640E+01  0.40612517572E+03  0.48331438998E+03  0.85712240967E+02 0.  0.
         13    1    3    3    0    0 -0.24235009189E+03 -0.53399630269E+03  0.18086658997E+03  0.61367608858E+03  0.00000000000E+00 0. -1.
        -13    1    3    3    0    0 -0.96641671690E+02 -0.15634716863E+03  0.11619157737E+02  0.18417126451E+03  0.00000000000E+00 0.  1.
          2    1    6    6  502    0  0.16101501521E+02  0.25634174199E+01  0.89788982004E+02  0.91257277789E+02  0.00000000000E+00 0. -1.
          1    1    5    5  503    0  0.12450982051E+02  0.31662355421E+02  0.74269567080E+01  0.34823718797E+02  0.00000000000E+00 0. -1.
         -2    1    5    5    0  503  0.79035894087E+02  0.66574395157E+03 -0.16924282536E+03  0.69145123873E+03  0.00000000000E+00 0.  1.
         -1    1    6    6    0  502  0.23140338592E+03 -0.96262530839E+01  0.31633619372E+03  0.39205711219E+03  0.00000000000E+00 0.  1.
<mgrwt>
<rscale>  0 0.19593397E+04</rscale>
<asrwt>0</asrwt>
<pdfrwt beam="1">  1        2 0.18801783E+00 0.19593397E+04</pdfrwt>
<pdfrwt beam="2">  1       -2 0.12081859E+00 0.19593397E+04</pdfrwt>
<totfact> 0.89430553E+00</totfact>
</mgrwt>
</event>
<event>
12    1  0.1980523E-007  0.1475420E+04  0.7818608E-02  0.8900965E-01
          2   -1    0    0  501    0  0.00000000000E+00  0.00000000000E+00  0.19049651388E+04  0.19049651388E+04  0.00000000000E+00 0. -1.
         -2   -1    0    0    0  501 -0.00000000000E+00 -0.00000000000E+00 -0.28568309882E+03  0.28568309882E+03  0.00000000000E+00 0.  1.
         23    2    1    2    0    0 -0.34583231294E+03 -0.14201323391E+03  0.90351391863E+03  0.98226833901E+03  0.93519738027E+02 0.  0.
        254    2    1    2    0    0  0.34583231294E+03  0.14201323391E+03  0.71576812135E+03  0.12083798986E+04  0.89893838972E+03 0.  0.
        -24    2    4    4    0    0 -0.17639856387E+03 -0.20201245624E+03  0.36574832774E+02  0.28171219997E+03  0.78093273785E+02 0.  0.
         24    2    4    4    0    0  0.52223087680E+03  0.34402569015E+03  0.67919328857E+03  0.92666769863E+03  0.79565924023E+02 0.  0.
         13    1    3    3    0    0 -0.30140540726E+03 -0.15421637164E+03  0.77424226854E+03  0.84503195159E+03  0.00000000000E+00 0.  1.
        -13    1    3    3    0    0 -0.44426905675E+02  0.12203137725E+02  0.12927165009E+03  0.13723638743E+03  0.00000000000E+00 0. -1.
          2    1    6    6  502    0  0.15700495724E+03  0.12995349275E+03  0.26602157325E+03  0.33512079062E+03  0.00000000000E+00 0. -1.
          1    1    5    5  503    0 -0.91402350816E+02 -0.64651076823E+02 -0.13087916411E+02  0.11271843250E+03  0.00000000000E+00 0. -1.
         -4    1    5    5    0  503 -0.84996213050E+02 -0.13736137941E+03  0.49662749184E+02  0.16899376747E+03  0.00000000000E+00 0.  1.
         -1    1    6    6    0  502  0.36522591957E+03  0.21407219741E+03  0.41317171532E+03  0.59154690800E+03  0.00000000000E+00 0.  1.
<mgrwt>
<rscale>  0 0.14754204E+04</rscale>
<asrwt>0</asrwt>
<pdfrwt beam="1">  1        2 0.29307155E+00 0.14754204E+04</pdfrwt>
<pdfrwt beam="2">  1       -2 0.43951247E-01 0.14754204E+04</pdfrwt>
<totfact> 0.35861567E+01</totfact>
</mgrwt>
</event>
<event>
12    1  0.1980523E-007  0.2876854E+04  0.7818608E-02  0.8279797E-01
         -2   -1    0    0    0  501 -0.00000000000E+00  0.00000000000E+00  0.10183529783E+04  0.10183529783E+04  0.00000000000E+00 0.  1.
          2   -1    0    0  501    0  0.00000000000E+00 -0.00000000000E+00 -0.20317833452E+04  0.20317833452E+04  0.00000000000E+00 0. -1.
         23    2    1    2    0    0  0.89261108900E+03 -0.90264782532E+03 -0.73281376686E+03  0.14688077087E+04  0.94087275723E+02 0.  0.
        254    2    1    2    0    0 -0.89261108900E+03  0.90264782532E+03 -0.28061660003E+03  0.15813286147E+04  0.90018156990E+03 0.  0.
        -24    2    4    4    0    0 -0.75447587230E+02  0.19460590680E+03  0.28186496787E+03  0.35988868901E+03  0.80673483772E+02 0.  0.
         24    2    4    4    0    0 -0.81716350177E+03  0.70804191853E+03 -0.56248156791E+03  0.12214399257E+04  0.80314574562E+02 0.  0.
         11    1    3    3    0    0  0.16657965522E+03 -0.12130695792E+03 -0.13017197387E+03  0.24373941486E+03  0.00000000000E+00 0. -1.
        -11    1    3    3    0    0  0.72603143378E+03 -0.78134086740E+03 -0.60264179299E+03  0.12250682938E+04  0.00000000000E+00 0.  1.
          2    1    6    6  502    0 -0.17088402721E+03  0.14333467501E+03 -0.15336097175E+03  0.27067649967E+03  0.00000000000E+00 0. -1.
          1    1    5    5  503    0 -0.64567609643E+02  0.15237172151E+03  0.15892183606E+03  0.22943902830E+03  0.00000000000E+00 0. -1.
         -2    1    5    5    0  503 -0.10879977587E+02  0.42234185289E+02  0.12294313181E+03  0.13044966071E+03  0.00000000000E+00 0.  1.
         -1    1    6    6    0  502 -0.64627947455E+03  0.56470724352E+03 -0.40912059616E+03  0.95076342605E+03  0.00000000000E+00 0.  1.
<mgrwt>
<rscale>  0 0.28768543E+04</rscale>
<asrwt>0</asrwt>
<pdfrwt beam="1">  1        2 0.31258205E+00 0.28768543E+04</pdfrwt>
<pdfrwt beam="2">  1       -2 0.15666969E+00 0.28768543E+04</pdfrwt>
<totfact> 0.14793387E+00</totfact>
</mgrwt>
</event>
<event>
12    1  0.1980523E-007  0.3548029E+04  0.7818608E-02  0.8102501E-01
         -1   -1    0    0    0  501 -0.00000000000E+00  0.00000000000E+00  0.19016542653E+04  0.19016542653E+04  0.00000000000E+00 0.  1.
          1   -1    0    0  501    0  0.00000000000E+00 -0.00000000000E+00 -0.16549423200E+04  0.16549423200E+04  0.00000000000E+00 0. -1.
         23    2    1    2    0    0 -0.36121791983E+03 -0.12390539186E+04  0.11595290198E+04  0.17373436230E+04  0.90123901751E+02 0.  0.
        254    2    1    2    0    0  0.36121791983E+03  0.12390539186E+04 -0.91281707454E+03  0.18192529624E+04  0.90039620772E+03 0.  0.
        -24    2    4    4    0    0  0.46603857010E+03  0.12675805393E+04 -0.97842838902E+03  0.16696395078E+04  0.80134894173E+02 0.  0.
         24    2    4    4    0    0 -0.10482065027E+03 -0.28526620679E+02  0.65611314480E+02  0.14961345459E+03  0.79235120980E+02 0.  0.
         13    1    3    3    0    0 -0.18080885070E+03 -0.48331175050E+03  0.43348892998E+03  0.67393971620E+03  0.00000000000E+00 0. -1.
        -13    1    3    3    0    0 -0.18040906913E+03 -0.75574216809E+03  0.72604008987E+03  0.10634039068E+04  0.00000000000E+00 0.  1.
          2    1    6    6  502    0 -0.36140488281E+02 -0.45304099314E+02  0.51477747508E+02  0.77514868228E+02  0.00000000000E+00 0. -1.
          1    1    5    5  503    0  0.74555201514E+02  0.29998331137E+03 -0.22071552771E+03  0.37982075949E+03  0.00000000000E+00 0. -1.
         -2    1    5    5    0  503  0.39148336859E+03  0.96759722790E+03 -0.75771286131E+03  0.12898187483E+04  0.00000000000E+00 0.  1.
         -1    1    6    6    0  502 -0.68680161990E+02  0.16777478636E+02  0.14133566971E+02  0.72098586364E+02  0.00000000000E+00 0.  1.
<mgrwt>
<rscale>  0 0.35480294E+04</rscale>
<asrwt>0</asrwt>
<pdfrwt beam="1">  1        1 0.25460651E+00 0.35480294E+04</pdfrwt>
<pdfrwt beam="2">  1       -1 0.29256219E+00 0.35480294E+04</pdfrwt>
<totfact> 0.15340466E-01</totfact>
</mgrwt>
</event>
<event>
12    1  0.1980523E-007  0.1074143E+04  0.7818608E-02  0.9230767E-01
          2   -1    0    0  501    0  0.00000000000E+00  0.00000000000E+00  0.15128375580E+04  0.15128375580E+04  0.00000000000E+00 0. -1.
         -2   -1    0    0    0  501 -0.00000000000E+00 -0.00000000000E+00 -0.19066547597E+03  0.19066547597E+03  0.00000000000E+00 0.  1.
         23    2    1    2    0    0  0.80161669339E+02 -0.12625815437E+03  0.27495930558E+03  0.32636971959E+03  0.92453011638E+02 0.  0.
        254    2    1    2    0    0 -0.80161669339E+02  0.12625815437E+03  0.10472127765E+04  0.13771333144E+04  0.88174517387E+03 0.  0.
        -24    2    4    4    0    0 -0.13223110283E+03 -0.36365297297E+03  0.45575743082E+03  0.60316527448E+03  0.79780719978E+02 0.  0.
         24    2    4    4    0    0  0.52069433495E+02  0.48991112734E+03  0.59145534564E+03  0.77396803991E+03  0.80516844944E+02 0.  0.
         13    1    3    3    0    0  0.98035408978E+02 -0.12150273212E+03  0.25623811902E+03  0.30005304359E+03  0.00000000000E+00 0. -1.
        -13    1    3    3    0    0 -0.17873739640E+02 -0.47554222548E+01  0.18721186558E+02  0.26316675999E+02  0.00000000000E+00 0.  1.
          2    1    6    6  502    0  0.40932593375E+02  0.45876538878E+03  0.57586240645E+03  0.73739993918E+03  0.00000000000E+00 0. -1.
          1    1    5    5  503    0 -0.14276385420E+03 -0.32551070962E+03  0.40649696426E+03  0.53998011269E+03  0.00000000000E+00 0. -1.
         -2    1    5    5    0  503  0.10532751367E+02 -0.38142263343E+02  0.49260466564E+02  0.63185161790E+02  0.00000000000E+00 0.  1.
         -1    1    6    6    0  502  0.11136840120E+02  0.31145738563E+02  0.15592939193E+02  0.36568100732E+02  0.00000000000E+00 0.  1.
<mgrwt>
<rscale>  0 0.10741432E+04</rscale>
<asrwt>0</asrwt>
<pdfrwt beam="1">  1        2 0.23274423E+00 0.10741432E+04</pdfrwt>
<pdfrwt beam="2">  1       -2 0.29333151E-01 0.10741432E+04</pdfrwt>
<totfact> 0.13263744E+02</totfact>
</mgrwt>
</event>
<event>
12    1  0.1980523E-007  0.1814008E+04  0.7818608E-02  0.8698885E-01
          2   -1    0    0  501    0  0.00000000000E+00  0.00000000000E+00  0.44830865041E+04  0.44830865041E+04  0.00000000000E+00 0. -1.
         -2   -1    0    0    0  501 -0.00000000000E+00 -0.00000000000E+00 -0.18350227646E+03  0.18350227646E+03  0.00000000000E+00 0.  1.
         23    2    1    2    0    0 -0.83924036814E+02  0.65696669155E+03  0.19612408240E+04  0.20720988704E+04  0.92085186334E+02 0.  0.
        254    2    1    2    0    0  0.83924036814E+02 -0.65696669155E+03  0.23383434037E+04  0.25944899102E+04  0.90822879410E+03 0.  0.
        -24    2    4    4    0    0 -0.44214832088E+02  0.21698730579E+03  0.47523384928E+03  0.53078444161E+03  0.82743396773E+02 0.  0.
         24    2    4    4    0    0  0.12813886890E+03 -0.87395399734E+03  0.18631095544E+04  0.20637054686E+04  0.86532594237E+02 0.  0.
         11    1    3    3    0    0 -0.61477302981E+02  0.55235711064E+03  0.17348889858E+04  0.18217347857E+04  0.00000000000E+00 0. -1.
        -11    1    3    3    0    0 -0.22446733833E+02  0.10460958092E+03  0.22635183819E+03  0.25036408474E+03  0.00000000000E+00 0.  1.
          2    1    6    6  502    0  0.75522952352E+02 -0.25160558910E+03  0.57473068996E+03  0.63192124096E+03  0.00000000000E+00 0. -1.
          1    1    5    5  503    0 -0.61671904651E+02  0.10778896363E+03  0.22013166434E+03  0.25274460262E+03  0.00000000000E+00 0. -1.
         -2    1    5    5    0  503  0.17457072564E+02  0.10919834216E+03  0.25510218493E+03  0.27803983900E+03  0.00000000000E+00 0.  1.
         -1    1    6    6    0  502  0.52615916550E+02 -0.62234840824E+03  0.12883788645E+04  0.14317842276E+04  0.00000000000E+00 0.  1.
<mgrwt>
<rscale>  0 0.18140084E+04</rscale>
<asrwt>0</asrwt>
<pdfrwt beam="1">  1        2 0.68970553E+00 0.18140084E+04</pdfrwt>
<pdfrwt beam="2">  1       -2 0.28231123E-01 0.18140084E+04</pdfrwt>
<totfact> 0.14147195E+00</totfact>
</mgrwt>
</event>
<event>
12    1  0.1980523E-007  0.2055865E+04  0.7818608E-02  0.8580938E-01
         -2   -1    0    0    0  501 -0.00000000000E+00  0.00000000000E+00  0.12775995704E+04  0.12775995704E+04  0.00000000000E+00 0.  1.
          2   -1    0    0  501    0  0.00000000000E+00 -0.00000000000E+00 -0.82705482141E+03  0.82705482141E+03  0.00000000000E+00 0. -1.
         23    2    1    2    0    0 -0.65338954497E+03  0.30882425956E+02 -0.33748982620E+03  0.74124321945E+03  0.87581424257E+02 0.  0.
        254    2    1    2    0    0  0.65338954497E+03 -0.30882425956E+02  0.78803457517E+03  0.13634111723E+04  0.90001106187E+03 0.  0.
        -24    2    4    4    0    0  0.14777654888E+03  0.12349776459E+03  0.80226150029E+03  0.82887528067E+03  0.79505407366E+02 0.  0.
         24    2    4    4    0    0  0.50561299610E+03 -0.15438019055E+03 -0.14226925120E+02  0.53453589167E+03  0.77771903875E+02 0.  0.
         11    1    3    3    0    0 -0.21713996092E+03  0.31219492698E+02 -0.73607139695E+02  0.23139237318E+03  0.00000000000E+00 0.  1.
        -11    1    3    3    0    0 -0.43624958405E+03 -0.33706674221E+00 -0.26388268650E+03  0.50985084627E+03  0.00000000000E+00 0. -1.
          4    1    6    6  502    0  0.25606729037E+03 -0.94489275890E+02 -0.42944173265E+02  0.27630215793E+03  0.00000000000E+00 0. -1.
          3    1    5    5  503    0  0.13342961233E+03  0.10716228400E+03  0.77664445122E+03  0.79527593964E+03  0.00000000000E+00 0. -1.
         -4    1    5    5    0  503  0.14346936547E+02  0.16335480594E+02  0.25617049063E+02  0.33599341024E+02  0.00000000000E+00 0.  1.
         -3    1    6    6    0  502  0.24954570572E+03 -0.59890914659E+02  0.28717248145E+02  0.25823373375E+03  0.00000000000E+00 0.  1.
<mgrwt>
<rscale>  0 0.20558647E+04</rscale>
<asrwt>0</asrwt>
<pdfrwt beam="1">  1        2 0.12723920E+00 0.20558647E+04</pdfrwt>
<pdfrwt beam="2">  1       -2 0.19655378E+00 0.20558647E+04</pdfrwt>
<totfact> 0.42679214E+00</totfact>
</mgrwt>
</event>
<event>
12    1  0.1980523E-007  0.3080381E+04  0.7818608E-02  0.8221143E-01
         -2   -1    0    0    0  501 -0.00000000000E+00  0.00000000000E+00  0.73139909414E+03  0.73139909414E+03  0.00000000000E+00 0.  1.
          2   -1    0    0  501    0  0.00000000000E+00 -0.00000000000E+00 -0.32433547815E+04  0.32433547815E+04  0.00000000000E+00 0. -1.
         23    2    1    2    0    0 -0.11535721946E+04  0.68247912819E+03 -0.17031215618E+04  0.21691551804E+04  0.90025406333E+02 0.  0.
        254    2    1    2    0    0  0.11535721946E+04 -0.68247912819E+03 -0.80883412559E+03  0.18055986953E+04  0.89970408304E+03 0.  0.
        -24    2    4    4    0    0  0.83542537265E+03 -0.88753711484E+03 -0.67574846779E+03  0.13958873563E+04  0.78789824182E+02 0.  0.
         24    2    4    4    0    0  0.31814682197E+03  0.20505798665E+03 -0.13308565780E+03  0.40971133893E+03  0.82978375023E+02 0.  0.
         11    1    3    3    0    0 -0.47534895768E+03  0.32662710631E+03 -0.76631141914E+03  0.95910118822E+03  0.00000000000E+00 0. -1.
        -11    1    3    3    0    0 -0.67822323694E+03  0.35585202188E+03 -0.93681014262E+03  0.12100539922E+04  0.00000000000E+00 0.  1.
          4    1    6    6  502    0  0.59912018915E+02  0.77483552568E+02 -0.49828839467E+02  0.10989114692E+03  0.00000000000E+00 0. -1.
          3    1    5    5  503    0  0.44421077898E+02 -0.53254281811E+02 -0.19169412680E+02  0.71949406359E+02  0.00000000000E+00 0. -1.
         -4    1    5    5    0  503  0.79100429475E+03 -0.83428283303E+03 -0.65657905511E+03  0.13239379500E+04  0.00000000000E+00 0.  1.
         -3    1    6    6    0  502  0.25823480305E+03  0.12757443408E+03 -0.83256818334E+02  0.29982019201E+03  0.00000000000E+00 0.  1.
<mgrwt>
<rscale>  0 0.30803810E+04</rscale>
<asrwt>0</asrwt>
<pdfrwt beam="1">  1        2 0.49897767E+00 0.30803810E+04</pdfrwt>
<pdfrwt beam="2">  1       -2 0.11252293E+00 0.30803810E+04</pdfrwt>
<totfact> 0.64167112E-01</totfact>
</mgrwt>
</event>
<event>
12    1  0.1980523E-007  0.2011950E+04  0.7818608E-02  0.8601054E-01
         -1   -1    0    0    0  501 -0.00000000000E+00  0.00000000000E+00  0.31100837830E+03  0.31100837830E+03  0.00000000000E+00 0. -1.
          1   -1    0    0  501    0  0.00000000000E+00 -0.00000000000E+00 -0.32538843999E+04  0.32538843999E+04  0.00000000000E+00 0.  1.
         23    2    1    2    0    0 -0.22648462750E+03 -0.21338960924E+03  0.12910763338E+03  0.34837870509E+03  0.88704731206E+02 0.  0.
        254    2    1    2    0    0  0.22648462750E+03  0.21338960924E+03 -0.30719836550E+04  0.32165140731E+04  0.90113750015E+03 0.  0.
        -24    2    4    4    0    0  0.55855125609E+03  0.36183893860E+02 -0.19544701485E+04  0.20346366998E+04  0.80648366109E+02 0.  0.
         24    2    4    4    0    0 -0.33206662859E+03  0.17720571538E+03 -0.11175135066E+04  0.11818773734E+04  0.79546068201E+02 0.  0.
         11    1    3    3    0    0 -0.13255727522E+03 -0.65515866424E+02  0.49225163913E+02  0.15584247409E+03  0.00000000000E+00 0.  1.
        -11    1    3    3    0    0 -0.93927352275E+02 -0.14787374282E+03  0.79882469469E+02  0.19253623100E+03  0.00000000000E+00 0. -1.
          4    1    6    6  502    0 -0.91094015416E+02  0.51702284819E+02 -0.43123997354E+03  0.44377827874E+03  0.00000000000E+00 0. -1.
          1    1    5    5  503    0  0.41495670210E+03  0.20828361653E+02 -0.13155628509E+04  0.13796117208E+04  0.00000000000E+00 0. -1.
         -2    1    5    5    0  503  0.14359455398E+03  0.15355532206E+02 -0.63890729751E+03  0.65502497900E+03  0.00000000000E+00 0.  1.
         -3    1    6    6    0  502 -0.24097261317E+03  0.12550343056E+03 -0.68627353304E+03  0.73809909465E+03  0.00000000000E+00 0.  1.
<mgrwt>
<rscale>  0 0.20119496E+04</rscale>
<asrwt>0</asrwt>
<pdfrwt beam="1">  1        1 0.50059761E+00 0.20119496E+04</pdfrwt>
<pdfrwt beam="2">  1       -1 0.47847442E-01 0.20119496E+04</pdfrwt>
<totfact> 0.15700845E+00</totfact>
</mgrwt>
</event>
<event>
12    1  0.1980523E-007  0.2425161E+04  0.7818608E-02  0.8430143E-01
          1   -1    0    0  501    0  0.00000000000E+00  0.00000000000E+00  0.15101091311E+04  0.15101091311E+04  0.00000000000E+00 0. -1.
         -1   -1    0    0    0  501 -0.00000000000E+00 -0.00000000000E+00 -0.97367203073E+03  0.97367203073E+03  0.00000000000E+00 0.  1.
         23    2    1    2    0    0  0.90424335964E+03  0.44204718790E+03  0.51242712129E+03  0.11331445794E+04  0.91505810229E+02 0.  0.
        254    2    1    2    0    0 -0.90424335964E+03 -0.44204718790E+03  0.24009979108E+02  0.13506365825E+04  0.90032268055E+03 0.  0.
        -24    2    4    4    0    0 -0.12429360969E+01 -0.20488702756E+03 -0.28835665989E+03  0.36283948827E+03  0.80763184657E+02 0.  0.
         24    2    4    4    0    0 -0.90300042355E+03 -0.23716016033E+03  0.31236663899E+03  0.98779709423E+03  0.80718496271E+02 0.  0.
         11    1    3    3    0    0  0.79179323016E+03  0.39256623476E+03  0.48164288912E+03  0.10064912521E+04  0.00000000000E+00 0. -1.
        -11    1    3    3    0    0  0.11245012949E+03  0.49480953139E+02  0.30784232174E+02  0.12665332722E+03  0.00000000000E+00 0.  1.
          2    1    6    6  502    0 -0.18876166499E+02  0.19926050799E+01  0.16914838677E+02  0.25424238517E+02  0.00000000000E+00 0. -1.
          1    1    5    5  503    0  0.15883426939E+02 -0.35238394460E+01 -0.36240235961E+02  0.39724745415E+02  0.00000000000E+00 0. -1.
         -4    1    5    5    0  503 -0.17126363036E+02 -0.20136318812E+03 -0.25211642392E+03  0.32311474286E+03  0.00000000000E+00 0.  1.
         -1    1    6    6    0  502 -0.88412425705E+03 -0.23915276541E+03  0.29545180032E+03  0.96237285571E+03  0.00000000000E+00 0.  1.
<mgrwt>
<rscale>  0 0.24251606E+04</rscale>
<asrwt>0</asrwt>
<pdfrwt beam="1">  1        1 0.23232448E+00 0.24251606E+04</pdfrwt>
<pdfrwt beam="2">  1       -1 0.14979570E+00 0.24251606E+04</pdfrwt>
<totfact> 0.20156467E+00</totfact>
</mgrwt>
</event>
<event>
12    1  0.1980523E-007  0.1957632E+04  0.7818608E-02  0.8626689E-01
          2   -1    0    0  501    0  0.00000000000E+00  0.00000000000E+00  0.79083356622E+03  0.79083356622E+03  0.00000000000E+00 0.  1.
         -2   -1    0    0    0  501 -0.00000000000E+00 -0.00000000000E+00 -0.12114817199E+04  0.12114817199E+04  0.00000000000E+00 0. -1.
         23    2    1    2    0    0 -0.27758039262E+03 -0.68625371278E+03 -0.37171110394E+03  0.83328386059E+03  0.90541785213E+02 0.  0.
        254    2    1    2    0    0  0.27758039262E+03  0.68625371278E+03 -0.48937049729E+02  0.11690314255E+04  0.90346256497E+03 0.  0.
        -24    2    4    4    0    0  0.26224488130E+03  0.17125305888E+03  0.37636509156E+03  0.49614550332E+03  0.80060541927E+02 0.  0.
         24    2    4    4    0    0  0.15335511316E+02  0.51500065389E+03 -0.42530214129E+03  0.67288592218E+03  0.80204123711E+02 0.  0.
         13    1    3    3    0    0 -0.22941634625E+03 -0.53540854496E+03 -0.25145163911E+03  0.63444629146E+03  0.00000000000E+00 0. -1.
        -13    1    3    3    0    0 -0.48164046370E+02 -0.15084516782E+03 -0.12025946483E+03  0.19883756913E+03  0.00000000000E+00 0.  1.
          4    1    6    6  502    0  0.83027847522E+01  0.49403711603E+03 -0.38304071429E+03  0.62518940894E+03  0.00000000000E+00 0. -1.
          3    1    5    5  503    0  0.20226903422E+03  0.13822009575E+03  0.33865473114E+03  0.41797677447E+03  0.00000000000E+00 0. -1.
         -4    1    5    5    0  503  0.59975847087E+02  0.33032963135E+02  0.37710360419E+02  0.78168728851E+02  0.00000000000E+00 0.  1.
         -3    1    6    6    0  502  0.70327265642E+01  0.20963537867E+02 -0.42261427005E+02  0.47696513241E+02  0.00000000000E+00 0.  1.
<mgrwt>
<rscale>  0 0.19576316E+04</rscale>
<asrwt>0</asrwt>
<pdfrwt beam="1">  1        2 0.12166670E+00 0.19576316E+04</pdfrwt>
<pdfrwt beam="2">  1       -2 0.18638180E+00 0.19576316E+04</pdfrwt>
<totfact> 0.53437589E+00</totfact>
</mgrwt>
</event>
<event>
12    1  0.1980523E-007  0.1933410E+04  0.7818608E-02  0.8638403E-01
          1   -1    0    0  501    0  0.00000000000E+00  0.00000000000E+00  0.69393250115E+03  0.69393250115E+03  0.00000000000E+00 0. -1.
         -1   -1    0    0    0  501 -0.00000000000E+00 -0.00000000000E+00 -0.13466993446E+04  0.13466993446E+04  0.00000000000E+00 0.  1.
         23    2    1    2    0    0  0.40293317950E+03 -0.53140326952E+03  0.11656016403E+03  0.68327793613E+03  0.92400671830E+02 0.  0.
        254    2    1    2    0    0 -0.40293317950E+03  0.53140326952E+03 -0.76932700751E+03  0.13573539096E+04  0.89766419642E+03 0.  0.
        -24    2    4    4    0    0 -0.28153977186E+03  0.25692456377E+03  0.12634872478E+03  0.40949955310E+03  0.80318174355E+02 0.  0.
         24    2    4    4    0    0 -0.12139340764E+03  0.27447870575E+03 -0.89567573229E+03  0.94785435654E+03  0.78217290115E+02 0.  0.
         11    1    3    3    0    0  0.34320166619E+02 -0.27563632203E+02  0.29413111691E+02  0.52941087979E+02  0.00000000000E+00 0. -1.
        -11    1    3    3    0    0  0.36861301288E+03 -0.50383963732E+03  0.87147052343E+02  0.63033684815E+03  0.00000000000E+00 0.  1.
          2    1    6    6  502    0 -0.42093210925E+02  0.15967488355E+03 -0.57262594444E+03  0.59596004823E+03  0.00000000000E+00 0. -1.
          1    1    5    5  503    0 -0.16835588634E+03  0.10468804317E+03  0.46205063456E+02  0.20356374613E+03  0.00000000000E+00 0. -1.
         -2    1    5    5    0  503 -0.11318388552E+03  0.15223652060E+03  0.80143661319E+02  0.20593580698E+03  0.00000000000E+00 0.  1.
         -1    1    6    6    0  502 -0.79300196719E+02  0.11480382220E+03 -0.32304978785E+03  0.35189430831E+03  0.00000000000E+00 0.  1.
<mgrwt>
<rscale>  0 0.19334099E+04</rscale>
<asrwt>0</asrwt>
<pdfrwt beam="1">  1        1 0.10675885E+00 0.19334099E+04</pdfrwt>
<pdfrwt beam="2">  1       -1 0.20718451E+00 0.19334099E+04</pdfrwt>
<totfact> 0.34600005E+00</totfact>
</mgrwt>
</event>
<event>
12    1  0.1980523E-007  0.1748254E+04  0.7818608E-02  0.8734312E-01
         -1   -1    0    0    0  501 -0.00000000000E+00  0.00000000000E+00  0.48615828672E+03  0.48615828672E+03  0.00000000000E+00 0.  1.
          1   -1    0    0  501    0  0.00000000000E+00 -0.00000000000E+00 -0.15717060016E+04  0.15717060016E+04  0.00000000000E+00 0. -1.
         23    2    1    2    0    0 -0.15341971039E+03 -0.70066786718E+00 -0.10955867378E+04  0.11100773005E+04  0.91778072137E+02 0.  0.
        254    2    1    2    0    0  0.15341971039E+03  0.70066786718E+00  0.10039022938E+02  0.94778698783E+03  0.93523328311E+03 0.  0.
        -24    2    4    4    0    0 -0.12107904345E+03 -0.14675474074E+03 -0.38618186362E+03  0.43778277702E+03  0.79499933216E+02 0.  0.
         24    2    4    4    0    0  0.27449875384E+03  0.14745540860E+03  0.39622088655E+03  0.51000421080E+03  0.77592787744E+02 0.  0.
         13    1    3    3    0    0 -0.14577605728E+03 -0.14895246282E+01 -0.10918376072E+04  0.11015272299E+04  0.00000000000E+00 0. -1.
        -13    1    3    3    0    0 -0.76436531078E+01  0.78885676100E+00 -0.37491305962E+01  0.85500706458E+01  0.00000000000E+00 0.  1.
          4    1    6    6  502    0  0.11046883312E+03  0.71461709791E+02  0.22705636810E+03  0.26242090875E+03  0.00000000000E+00 0. -1.
          3    1    5    5  503    0 -0.12720571354E+03 -0.13909449133E+03 -0.38395154421E+03  0.42772346134E+03  0.00000000000E+00 0. -1.
         -4    1    5    5    0  503  0.61266700940E+01 -0.76602494070E+01 -0.22303194041E+01  0.10059315686E+02  0.00000000000E+00 0.  1.
         -3    1    6    6    0  502  0.16402992071E+03  0.75993698812E+02  0.16916451846E+03  0.24758330205E+03  0.00000000000E+00 0.  1.
<mgrwt>
<rscale>  0 0.17482539E+04</rscale>
<asrwt>0</asrwt>
<pdfrwt beam="1">  1        1 0.24180092E+00 0.17482539E+04</pdfrwt>
<pdfrwt beam="2">  1       -1 0.74793582E-01 0.17482539E+04</pdfrwt>
<totfact> 0.99457634E+00</totfact>
</mgrwt>
</event>
<event>
12    1  0.1980523E-007  0.2996645E+04  0.7818608E-02  0.8244690E-01
          1   -1    0    0  501    0  0.00000000000E+00  0.00000000000E+00  0.32732058758E+04  0.32732058758E+04  0.00000000000E+00 0. -1.
         -1   -1    0    0    0  501 -0.00000000000E+00 -0.00000000000E+00 -0.68586287956E+03  0.68586287956E+03  0.00000000000E+00 0.  1.
         23    2    1    2    0    0  0.12143616829E+04 -0.23528824771E+03  0.19159863329E+04  0.22830048414E+04  0.10522652498E+03 0.  0.
        254    2    1    2    0    0 -0.12143616829E+04  0.23528824771E+03  0.67135666338E+03  0.16760639140E+04  0.91018438691E+03 0.  0.
        -24    2    4    4    0    0 -0.31796934205E+03 -0.51555811130E+02  0.65178434716E+03  0.73126251471E+03  0.78482648274E+02 0.  0.
         24    2    4    4    0    0 -0.89639234080E+03  0.28684405884E+03  0.19572316221E+02  0.94480139932E+03  0.80423043096E+02 0.  0.
         11    1    3    3    0    0  0.10408240174E+04 -0.19407929307E+03  0.17018652497E+04  0.20043270031E+04  0.00000000000E+00 0. -1.
        -11    1    3    3    0    0  0.17353766545E+03 -0.41208954644E+02  0.21412108317E+03  0.27867783825E+03  0.00000000000E+00 0.  1.
          4    1    6    6  502    0 -0.82124866917E+03  0.28538109502E+03  0.19694593948E+02  0.86964338843E+03  0.00000000000E+00 0. -1.
          3    1    5    5  503    0 -0.23982527243E+03 -0.41404034672E+02  0.40815481359E+03  0.47520606819E+03  0.00000000000E+00 0. -1.
         -4    1    5    5    0  503 -0.78144069617E+02 -0.10151776457E+02  0.24362953356E+03  0.25605644652E+03  0.00000000000E+00 0.  1.
         -3    1    6    6    0  502 -0.75143671629E+02  0.14629638152E+01 -0.12227772755E+00  0.75158010890E+02  0.00000000000E+00 0.  1.
<mgrwt>
<rscale>  0 0.29966451E+04</rscale>
<asrwt>0</asrwt>
<pdfrwt beam="1">  1        1 0.50357013E+00 0.29966451E+04</pdfrwt>
<pdfrwt beam="2">  1       -1 0.10551737E+00 0.29966451E+04</pdfrwt>
<totfact> 0.26794690E-01</totfact>
</mgrwt>
</event>
<event>
12    1  0.1980523E-007  0.1251357E+04  0.7818608E-02  0.9069055E-01
          1   -1    0    0  501    0  0.00000000000E+00  0.00000000000E+00  0.16205776414E+04  0.16205776414E+04  0.00000000000E+00 0. -1.
         -1   -1    0    0    0  501 -0.00000000000E+00 -0.00000000000E+00 -0.24156417868E+03  0.24156417868E+03  0.00000000000E+00 0.  1.
         23    2    1    2    0    0  0.85739630936E+02  0.87475529555E+02  0.73644591421E+03  0.75213659290E+03  0.91398124853E+02 0.  0.
        254    2    1    2    0    0 -0.85739630936E+02 -0.87475529555E+02  0.64256754846E+03  0.11100052271E+04  0.89678051794E+03 0.  0.
        -24    2    4    4    0    0 -0.22169198818E+03 -0.30258695509E+03 -0.30054083082E+02  0.38651703966E+03  0.88238149499E+02 0.  0.
         24    2    4    4    0    0  0.13595235725E+03  0.21511142553E+03  0.67262163154E+03  0.72348818747E+03  0.79115923570E+02 0.  0.
         11    1    3    3    0    0 -0.51715438314E+01  0.49893319830E+02  0.33934314687E+03  0.34303040617E+03  0.00000000000E+00 0. -1.
        -11    1    3    3    0    0  0.90911174767E+02  0.37582209724E+02  0.39710276734E+03  0.40910618672E+03  0.00000000000E+00 0.  1.
          2    1    6    6  502    0  0.10066695143E+03  0.15178576428E+03  0.37125381475E+03  0.41352406014E+03  0.00000000000E+00 0. -1.
          3    1    5    5  503    0 -0.83382313613E+02 -0.11257285733E+03  0.31459487620E+02  0.14357909943E+03  0.00000000000E+00 0. -1.
         -4    1    5    5    0  503 -0.13830967457E+03 -0.19001409776E+03 -0.61513570702E+02  0.24293794024E+03  0.00000000000E+00 0.  1.
         -1    1    6    6    0  502  0.35285405818E+02  0.63325661254E+02  0.30136781679E+03  0.30996412734E+03  0.00000000000E+00 0.  1.
<mgrwt>
<rscale>  0 0.12513569E+04</rscale>
<asrwt>0</asrwt>
<pdfrwt beam="1">  1        1 0.24931963E+00 0.12513569E+04</pdfrwt>
<pdfrwt beam="2">  1       -1 0.37163721E-01 0.12513569E+04</pdfrwt>
<totfact> 0.37093879E+01</totfact>
</mgrwt>
</event>
<event>
12    1  0.1980523E-007  0.3038492E+04  0.7818608E-02  0.8232824E-01
          1   -1    0    0  501    0  0.00000000000E+00  0.00000000000E+00  0.12855642143E+04  0.12855642143E+04  0.00000000000E+00 0. -1.
         -1   -1    0    0    0  501 -0.00000000000E+00 -0.00000000000E+00 -0.17954045236E+04  0.17954045236E+04  0.00000000000E+00 0.  1.
         23    2    1    2    0    0 -0.83145659390E+03  0.10106795350E+04  0.22913086877E+03  0.13316053460E+04  0.88761772997E+02 0.  0.
        254    2    1    2    0    0  0.83145659390E+03 -0.10106795350E+04 -0.73897117812E+03  0.17493633919E+04  0.89520985523E+03 0.  0.
        -24    2    4    4    0    0  0.30993127499E+03  0.99437068365E+02 -0.28238900301E+03  0.43821825221E+03  0.79665310982E+02 0.  0.
         24    2    4    4    0    0  0.52152531892E+03 -0.11101166034E+04 -0.45658217511E+03  0.13111451397E+04  0.79289112791E+02 0.  0.
         13    1    3    3    0    0 -0.57423729725E+03  0.75643958689E+03  0.18006868493E+03  0.96663025685E+03  0.00000000000E+00 0.  1.
        -13    1    3    3    0    0 -0.25721929666E+03  0.25423994813E+03  0.49062183847E+02  0.36497508912E+03  0.00000000000E+00 0. -1.
          2    1    6    6  502    0  0.36722704940E+03 -0.77481421233E+03 -0.28012198380E+03  0.90203164869E+03  0.00000000000E+00 0. -1.
          1    1    5    5  503    0  0.24037688264E+03  0.79427015231E+02 -0.25895677984E+03  0.36214404631E+03  0.00000000000E+00 0. -1.
         -2    1    5    5    0  503  0.69554392341E+02  0.20010053134E+02 -0.23432223174E+02  0.76074205900E+02  0.00000000000E+00 0.  1.
         -1    1    6    6    0  502  0.15429826951E+03 -0.33530239105E+03 -0.17646019131E+03  0.40911349103E+03  0.00000000000E+00 0.  1.
<mgrwt>
<rscale>  0 0.30384916E+04</rscale>
<asrwt>0</asrwt>
<pdfrwt beam="1">  1        1 0.19777911E+00 0.30384916E+04</pdfrwt>
<pdfrwt beam="2">  1       -1 0.27621608E+00 0.30384916E+04</pdfrwt>
<totfact> 0.37001453E-01</totfact>
</mgrwt>
</event>
<event>
12    1  0.1980523E-007  0.1436376E+04  0.7818608E-02  0.8927901E-01
          2   -1    0    0  501    0  0.00000000000E+00  0.00000000000E+00  0.44002081292E+03  0.44002081292E+03  0.00000000000E+00 0.  1.
         -2   -1    0    0    0  501 -0.00000000000E+00 -0.00000000000E+00 -0.11722035867E+04  0.11722035867E+04  0.00000000000E+00 0. -1.
         23    2    1    2    0    0 -0.24125897952E+03 -0.48791001608E+02  0.16948783846E+03  0.31259433827E+03  0.91665892744E+02 0.  0.
        254    2    1    2    0    0  0.24125897952E+03  0.48791001608E+02 -0.90167061220E+03  0.12996300613E+04  0.90301824250E+03 0.  0.
        -24    2    4    4    0    0  0.48884601467E+03  0.29366322359E+03 -0.60926414650E+03  0.83828022567E+03  0.79387792533E+02 0.  0.
         24    2    4    4    0    0 -0.24758703514E+03 -0.24487222198E+03 -0.29240646570E+03  0.46134983562E+03  0.77976820776E+02 0.  0.
         11    1    3    3    0    0 -0.21558827221E+03 -0.10489091337E+02  0.14809746196E+03  0.26176551031E+03  0.00000000000E+00 0.  1.
        -11    1    3    3    0    0 -0.25670707318E+02 -0.38301910271E+02  0.21390376503E+02  0.50828827958E+02  0.00000000000E+00 0. -1.
          2    1    6    6  502    0 -0.59646900879E+02 -0.26294524220E+02 -0.80463456218E+02  0.10355444257E+03  0.00000000000E+00 0. -1.
          3    1    5    5  503    0  0.34319983675E+02  0.37929659090E+02 -0.82096629240E+02  0.96728366319E+02  0.00000000000E+00 0. -1.
         -2    1    5    5    0  503  0.45452603099E+03  0.25573356450E+03 -0.52716751726E+03  0.74155185936E+03  0.00000000000E+00 0.  1.
         -1    1    6    6    0  502 -0.18794013426E+03 -0.21857769776E+03 -0.21194300948E+03  0.35779539306E+03  0.00000000000E+00 0.  1.
<mgrwt>
<rscale>  0 0.14363760E+04</rscale>
<asrwt>0</asrwt>
<pdfrwt beam="1">  1        2 0.67695510E-01 0.14363760E+04</pdfrwt>
<pdfrwt beam="2">  1       -2 0.18033901E+00 0.14363760E+04</pdfrwt>
<totfact> 0.12478201E+01</totfact>
</mgrwt>
</event>
<event>
12    1  0.1980523E-007  0.1726166E+04  0.7818608E-02  0.8746580E-01
          2   -1    0    0  501    0  0.00000000000E+00  0.00000000000E+00  0.26649353340E+03  0.26649353340E+03  0.00000000000E+00 0.  1.
         -2   -1    0    0    0  501 -0.00000000000E+00 -0.00000000000E+00 -0.27952370365E+04  0.27952370365E+04  0.00000000000E+00 0. -1.
         23    2    1    2    0    0 -0.44906481694E+03  0.43194312119E+03 -0.85680456104E+03  0.10631703847E+04  0.89348426446E+02 0.  0.
        254    2    1    2    0    0  0.44906481694E+03 -0.43194312119E+03 -0.16719389420E+04  0.19985601852E+04  0.90034933116E+03 0.  0.
        -24    2    4    4    0    0  0.25390881915E+02  0.13917932977E+03 -0.10126378395E+04  0.10255101670E+04  0.78867773756E+02 0.  0.
         24    2    4    4    0    0  0.42367393503E+03 -0.57112245096E+03 -0.65930110250E+03  0.97305001823E+03  0.80423485360E+02 0.  0.
         13    1    3    3    0    0 -0.43273297078E+03  0.41476926432E+03 -0.78582087083E+03  0.98833486615E+03  0.00000000000E+00 0.  1.
        -13    1    3    3    0    0 -0.16331846164E+02  0.17173856865E+02 -0.70983690210E+02  0.74835518536E+02  0.00000000000E+00 0. -1.
          2    1    6    6  502    0  0.14916094631E+03 -0.25716973259E+03 -0.30357198318E+03  0.42490141002E+03  0.00000000000E+00 0. -1.
          3    1    5    5  503    0  0.30679217659E+02  0.12808440544E+03 -0.67955925309E+03  0.69220488858E+03  0.00000000000E+00 0. -1.
         -4    1    5    5    0  503 -0.52883357440E+01  0.11094924334E+02 -0.33307858645E+03  0.33330527837E+03  0.00000000000E+00 0.  1.
         -3    1    6    6    0  502  0.27451298871E+03 -0.31395271837E+03 -0.35572911932E+03  0.54814860821E+03  0.00000000000E+00 0.  1.
<mgrwt>
<rscale>  0 0.17261664E+04</rscale>
<asrwt>0</asrwt>
<pdfrwt beam="1">  1        2 0.40999009E-01 0.17261664E+04</pdfrwt>
<pdfrwt beam="2">  1       -2 0.43003642E+00 0.17261664E+04</pdfrwt>
<totfact> 0.56300640E-01</totfact>
</mgrwt>
</event>
<event>
12    1  0.1980523E-007  0.1382302E+04  0.7818608E-02  0.8966730E-01
          1   -1    0    0  501    0  0.00000000000E+00  0.00000000000E+00  0.35961043794E+03  0.35961043794E+03  0.00000000000E+00 0. -1.
         -1   -1    0    0    0  501 -0.00000000000E+00 -0.00000000000E+00 -0.13283523396E+04  0.13283523396E+04  0.00000000000E+00 0.  1.
         23    2    1    2    0    0  0.29166034197E+03 -0.21370389570E+03 -0.94338339762E+02  0.38449794161E+03  0.90575022135E+02 0.  0.
        254    2    1    2    0    0 -0.29166034197E+03  0.21370389570E+03 -0.87440356190E+03  0.13034648359E+04  0.89649533146E+03 0.  0.
        -24    2    4    4    0    0  0.21001971261E+03 -0.21457796692E+01 -0.68442490846E+03  0.72034868915E+03  0.79698774034E+02 0.  0.
         24    2    4    4    0    0 -0.50168005459E+03  0.21584967537E+03 -0.18997865344E+03  0.58311614678E+03  0.75223615629E+02 0.  0.
         11    1    3    3    0    0  0.17555832233E+03 -0.80659375394E+02 -0.25083689069E+02  0.19482261376E+03  0.00000000000E+00 0. -1.
        -11    1    3    3    0    0  0.11610201965E+03 -0.13304452031E+03 -0.69254650693E+02  0.18967532785E+03  0.00000000000E+00 0.  1.
          4    1    6    6  502    0 -0.18855966038E+03  0.43135098294E+02 -0.57935720119E+02  0.20192060294E+03  0.00000000000E+00 0. -1.
          1    1    5    5  503    0  0.17296925921E+02  0.18395545249E+02 -0.39075801459E+02  0.46524165667E+02  0.00000000000E+00 0. -1.
         -2    1    5    5    0  503  0.19272278669E+03 -0.20541324918E+02 -0.64534910700E+03  0.67382452348E+03  0.00000000000E+00 0.  1.
         -3    1    6    6    0  502 -0.31312039421E+03  0.17271457708E+03 -0.13204293332E+03  0.38119554384E+03  0.00000000000E+00 0.  1.
<mgrwt>
<rscale>  0 0.13823015E+04</rscale>
<asrwt>0</asrwt>
<pdfrwt beam="1">  1        1 0.55324682E-01 0.13823015E+04</pdfrwt>
<pdfrwt beam="2">  1       -1 0.20436190E+00 0.13823015E+04</pdfrwt>
<totfact> 0.94770535E+00</totfact>
</mgrwt>
</event>
<event>
12    1  0.1980523E-007  0.2378444E+04  0.7818608E-02  0.8447618E-01
          1   -1    0    0  501    0  0.00000000000E+00  0.00000000000E+00  0.11624722719E+04  0.11624722719E+04  0.00000000000E+00 0. -1.
         -1   -1    0    0    0  501 -0.00000000000E+00 -0.00000000000E+00 -0.12165871967E+04  0.12165871967E+04  0.00000000000E+00 0.  1.
         23    2    1    2    0    0 -0.39352749130E+03 -0.72844224452E+03 -0.61364956279E+03  0.10345521652E+04  0.90776685307E+02 0.  0.
        254    2    1    2    0    0  0.39352749130E+03  0.72844224452E+03  0.55953463793E+03  0.13445073034E+04  0.89951591855E+03 0.  0.
        -24    2    4    4    0    0  0.35919783469E+02  0.63604593998E+02  0.57530002214E+03  0.58525278182E+03  0.78834814235E+02 0.  0.
         24    2    4    4    0    0  0.35760770784E+03  0.66483765052E+03 -0.15765384207E+02  0.75925452153E+03  0.79539341672E+02 0.  0.
         13    1    3    3    0    0 -0.19895944752E+03 -0.34043277164E+03 -0.23840279916E+03  0.46077676635E+03  0.00000000000E+00 0. -1.
        -13    1    3    3    0    0 -0.19456804378E+03 -0.38800947288E+03 -0.37524676363E+03  0.57377539885E+03  0.00000000000E+00 0.  1.
          4    1    6    6  502    0  0.22278371588E+03  0.48783658451E+03 -0.15871112278E+01  0.53630181444E+03  0.00000000000E+00 0. -1.
          1    1    5    5  503    0  0.50815364644E+01  0.38399234191E+02  0.48518338740E+03  0.48672707199E+03  0.00000000000E+00 0. -1.
         -2    1    5    5    0  503  0.30838247004E+02  0.25205359808E+02  0.90116634746E+02  0.98525709839E+02  0.00000000000E+00 0.  1.
         -3    1    6    6    0  502  0.13482399195E+03  0.17700106601E+03 -0.14178272980E+02  0.22295270710E+03  0.00000000000E+00 0.  1.
<mgrwt>
<rscale>  0 0.23784439E+04</rscale>
<asrwt>0</asrwt>
<pdfrwt beam="1">  1        1 0.17884189E+00 0.23784439E+04</pdfrwt>
<pdfrwt beam="2">  1       -1 0.18716726E+00 0.23784439E+04</pdfrwt>
<totfact> 0.18915209E+00</totfact>
</mgrwt>
</event>
<event>
12    1  0.1980523E-007  0.3589086E+04  0.7818608E-02  0.8092996E-01
          2   -1    0    0  501    0  0.00000000000E+00  0.00000000000E+00  0.36201344164E+04  0.36201344164E+04  0.00000000000E+00 0. -1.
         -2   -1    0    0    0  501 -0.00000000000E+00 -0.00000000000E+00 -0.88957575586E+03  0.88957575586E+03  0.00000000000E+00 0.  1.
         23    2    1    2    0    0  0.86144141258E+03 -0.11115142393E+04  0.12483200337E+03  0.14147538012E+04  0.91651935820E+02 0.  0.
        254    2    1    2    0    0 -0.86144141258E+03  0.11115142393E+04  0.26057266572E+04  0.30949563711E+04  0.90077650703E+03 0.  0.
        -24    2    4    4    0    0 -0.69132032009E+03  0.60883071902E+03  0.84031766431E+03  0.12498208323E+04  0.85555283229E+02 0.  0.
         24    2    4    4    0    0 -0.17012109249E+03  0.50268352029E+03  0.17654089929E+04  0.18451355388E+04  0.78894466144E+02 0.  0.
         13    1    3    3    0    0  0.20346789585E+03 -0.32458690052E+03  0.48737945920E+02  0.38617512608E+03  0.00000000000E+00 0. -1.
        -13    1    3    3    0    0  0.65797351673E+03 -0.78692733879E+03  0.76094057449E+02  0.10285786751E+04  0.00000000000E+00 0.  1.
          4    1    6    6  502    0  0.63758468159E+01  0.47124816166E+02  0.17836252557E+03  0.18459303955E+03  0.00000000000E+00 0. -1.
          3    1    5    5  503    0 -0.43281315944E+03  0.33591923856E+03  0.53159449493E+03  0.76338828446E+03  0.00000000000E+00 0. -1.
         -4    1    5    5    0  503 -0.25850716065E+03  0.27291148045E+03  0.30872316939E+03  0.48643254783E+03  0.00000000000E+00 0.  1.
         -3    1    6    6    0  502 -0.17649693930E+03  0.45555870413E+03  0.15870464673E+04  0.16605424993E+04  0.00000000000E+00 0.  1.
<mgrwt>
<rscale>  0 0.35890856E+04</rscale>
<asrwt>0</asrwt>
<pdfrwt beam="1">  1        2 0.55694375E+00 0.35890856E+04</pdfrwt>
<pdfrwt beam="2">  1       -2 0.13685781E+00 0.35890856E+04</pdfrwt>
<totfact> 0.20708394E-01</totfact>
</mgrwt>
</event>
<event>
12    1  0.1980523E-007  0.1363531E+04  0.7818608E-02  0.8980648E-01
         -2   -1    0    0    0  501 -0.00000000000E+00  0.00000000000E+00  0.36714232358E+03  0.36714232358E+03  0.00000000000E+00 0.  1.
          2   -1    0    0  501    0  0.00000000000E+00 -0.00000000000E+00 -0.12660050262E+04  0.12660050262E+04  0.00000000000E+00 0. -1.
         23    2    1    2    0    0  0.14706285323E+03 -0.33465053556E+03 -0.16967084306E+03  0.41331136070E+03  0.91758499039E+02 0.  0.
        254    2    1    2    0    0 -0.14706285323E+03  0.33465053556E+03 -0.72919185954E+03  0.12198359891E+04  0.90700639933E+03 0.  0.
        -24    2    4    4    0    0  0.34876149970E+03  0.27983669281E+03 -0.46445963916E+03  0.64939945413E+03  0.77805760046E+02 0.  0.
         24    2    4    4    0    0 -0.49582435293E+03  0.54813842753E+02 -0.26473222038E+03  0.57043653493E+03  0.80426025370E+02 0.  0.
         11    1    3    3    0    0  0.11419092077E+03 -0.27359097043E+03 -0.17413251326E+03  0.34382221811E+03  0.00000000000E+00 0.  1.
        -11    1    3    3    0    0  0.32871932454E+02 -0.61059565128E+02  0.44616702011E+01  0.69489142590E+02  0.00000000000E+00 0. -1.
          4    1    6    6  502    0 -0.73966389180E+02 -0.20711560144E+01 -0.10815379104E+02  0.74781607637E+02  0.00000000000E+00 0. -1.
          1    1    5    5  503    0 -0.35408815736E+01  0.55504284496E+01 -0.12282692811E+02  0.13935911918E+02  0.00000000000E+00 0. -1.
         -2    1    5    5    0  503  0.35230238128E+03  0.27428626436E+03 -0.45217694635E+03  0.63546354221E+03  0.00000000000E+00 0.  1.
         -3    1    6    6    0  502 -0.42185796375E+03  0.56884998767E+02 -0.25391684127E+03  0.49565492729E+03  0.00000000000E+00 0.  1.
<mgrwt>
<rscale>  0 0.13635308E+04</rscale>
<asrwt>0</asrwt>
<pdfrwt beam="1">  1        2 0.19477001E+00 0.13635308E+04</pdfrwt>
<pdfrwt beam="2">  1       -2 0.56483434E-01 0.13635308E+04</pdfrwt>
<totfact> 0.49666446E+01</totfact>
</mgrwt>
</event>
<event>
12    1  0.1980523E-007  0.1249991E+04  0.7818608E-02  0.9070191E-01
         -2   -1    0    0    0  501 -0.00000000000E+00  0.00000000000E+00  0.65515841986E+03  0.65515841986E+03  0.00000000000E+00 0.  1.
          2   -1    0    0  501    0  0.00000000000E+00 -0.00000000000E+00 -0.59622084360E+03  0.59622084360E+03  0.00000000000E+00 0. -1.
         23    2    1    2    0    0 -0.45737312512E+02 -0.25806743801E+03 -0.11104465190E+03  0.29922335906E+03  0.92265917737E+02 0.  0.
        254    2    1    2    0    0  0.45737312512E+02  0.25806743801E+03  0.16998222816E+03  0.95215590439E+03  0.89945328064E+03 0.  0.
        -24    2    4    4    0    0  0.27693449037E+03 -0.23902405548E+03  0.58955251104E+01  0.37444878866E+03  0.79698977773E+02 0.  0.
         24    2    4    4    0    0 -0.23119717786E+03  0.49709149349E+03  0.16408670305E+03  0.57770711574E+03  0.79176874809E+02 0.  0.
         13    1    3    3    0    0 -0.12893756674E+02  0.40882997843E+01 -0.73812308222E+01  0.15409273985E+02  0.00000000000E+00 0. -1.
        -13    1    3    3    0    0 -0.32843555839E+02 -0.26215573780E+03 -0.10366342107E+03  0.28381408508E+03  0.00000000000E+00 0.  1.
          2    1    6    6  502    0 -0.17723402178E+03  0.31122134997E+03  0.81656444087E+02  0.36733962761E+03  0.00000000000E+00 0. -1.
          3    1    5    5  503    0  0.22477304336E+03 -0.14829790932E+03  0.12610298988E+02  0.26958154716E+03  0.00000000000E+00 0. -1.
         -4    1    5    5    0  503  0.52161447012E+02 -0.90726146159E+02 -0.67147738775E+01  0.10486724150E+03  0.00000000000E+00 0.  1.
         -1    1    6    6    0  502 -0.53963156071E+02  0.18587014352E+03  0.82430258963E+02  0.21036748812E+03  0.00000000000E+00 0.  1.
<mgrwt>
<rscale>  0 0.12499906E+04</rscale>
<asrwt>0</asrwt>
<pdfrwt beam="1">  1        2 0.91726284E-01 0.12499906E+04</pdfrwt>
<pdfrwt beam="2">  1       -2 0.10079360E+00 0.12499906E+04</pdfrwt>
<totfact> 0.39853459E+01</totfact>
</mgrwt>
</event>
<event>
12    1  0.1980523E-007  0.3245494E+04  0.7818608E-02  0.8176905E-01
         -1   -1    0    0    0  501 -0.00000000000E+00  0.00000000000E+00  0.18834089386E+04  0.18834089386E+04  0.00000000000E+00 0.  1.
          1   -1    0    0  501    0  0.00000000000E+00 -0.00000000000E+00 -0.13981600977E+04  0.13981600977E+04  0.00000000000E+00 0. -1.
         23    2    1    2    0    0  0.46611422379E+03  0.12571340463E+04  0.89456332659E+03  0.16142845371E+04  0.89568641114E+02 0.  0.
        254    2    1    2    0    0 -0.46611422379E+03 -0.12571340463E+04 -0.40931448565E+03  0.16672844992E+04  0.90258006474E+03 0.  0.
        -24    2    4    4    0    0 -0.57319896846E+03 -0.33486750149E+03 -0.56050224460E+02  0.67090035331E+03  0.79198203360E+02 0.  0.
         24    2    4    4    0    0  0.10708474467E+03 -0.92226654476E+03 -0.35326426119E+03  0.99638414590E+03  0.77090893292E+02 0.  0.
         13    1    3    3    0    0  0.25300710022E+03  0.68000779106E+03  0.43031647612E+03  0.84356117638E+03  0.00000000000E+00 0. -1.
        -13    1    3    3    0    0  0.21310712357E+03  0.57712625519E+03  0.46424685047E+03  0.77072336069E+03  0.00000000000E+00 0.  1.
          4    1    6    6  502    0  0.97262404445E+02 -0.69456895867E+03 -0.23536607903E+03  0.73978591824E+03  0.00000000000E+00 0. -1.
          1    1    5    5  503    0 -0.50589472046E+03 -0.28260001179E+03 -0.72872363689E+02  0.58403990981E+03  0.00000000000E+00 0. -1.
         -2    1    5    5    0  503 -0.67304247993E+02 -0.52267489699E+02  0.16822139229E+02  0.86860443503E+02  0.00000000000E+00 0.  1.
         -3    1    6    6    0  502  0.98223402204E+01 -0.22769758610E+03 -0.11789818216E+03  0.25659822766E+03  0.00000000000E+00 0.  1.
<mgrwt>
<rscale>  0 0.32454936E+04</rscale>
<asrwt>0</asrwt>
<pdfrwt beam="1">  1        1 0.21510155E+00 0.32454936E+04</pdfrwt>
<pdfrwt beam="2">  1       -1 0.28975522E+00 0.32454936E+04</pdfrwt>
<totfact> 0.24710192E-01</totfact>
</mgrwt>
</event>
<event>
12    1  0.1980523E-007  0.2657576E+04  0.7818608E-02  0.8348903E-01
         -2   -1    0    0    0  501 -0.00000000000E+00  0.00000000000E+00  0.95277023017E+03  0.95277023017E+03  0.00000000000E+00 0.  1.
          2   -1    0    0  501    0  0.00000000000E+00 -0.00000000000E+00 -0.18532040253E+04  0.18532040253E+04  0.00000000000E+00 0. -1.
         23    2    1    2    0    0 -0.75496094005E+03 -0.57233835181E+03  0.33478846246E+03  0.10089218395E+04  0.91119447577E+02 0.  0.
        254    2    1    2    0    0  0.75496094005E+03  0.57233835181E+03 -0.12352222576E+04  0.17970524160E+04  0.89782300597E+03 0.  0.
        -24    2    4    4    0    0  0.27226847864E+03 -0.21541172299E+03 -0.50177659345E+03  0.61502390123E+03  0.77086409302E+02 0.  0.
         24    2    4    4    0    0  0.48269246142E+03  0.78775007480E+03 -0.73344566419E+03  0.11820285147E+04  0.75542535604E+02 0.  0.
         11    1    3    3    0    0 -0.57061018122E+03 -0.44640333978E+03  0.21582167353E+03  0.75594372505E+03  0.00000000000E+00 0. -1.
        -11    1    3    3    0    0 -0.18435075883E+03 -0.12593501203E+03  0.11896678893E+03  0.25297811448E+03  0.00000000000E+00 0.  1.
          4    1    6    6  502    0  0.27364770784E+03  0.48486533270E+03 -0.40155073972E+03  0.68645499156E+03  0.00000000000E+00 0. -1.
          1    1    5    5  503    0  0.17174366317E+03 -0.10882076383E+03 -0.23570600834E+03  0.31127988507E+03  0.00000000000E+00 0. -1.
         -4    1    5    5    0  503  0.10052481547E+03 -0.10659095916E+03 -0.26607058510E+03  0.30374401617E+03  0.00000000000E+00 0.  1.
         -3    1    6    6    0  502  0.20904475357E+03  0.30288474210E+03 -0.33189492446E+03  0.49557352318E+03  0.00000000000E+00 0.  1.
<mgrwt>
<rscale>  0 0.26575761E+04</rscale>
<asrwt>0</asrwt>
<pdfrwt beam="1">  1        2 0.28510831E+00 0.26575761E+04</pdfrwt>
<pdfrwt beam="2">  1       -2 0.14658004E+00 0.26575761E+04</pdfrwt>
<totfact> 0.22604266E+00</totfact>
</mgrwt>
</event>
<event>
12    1  0.3956045E-007  0.3596985E+04  0.7818608E-02  0.8091183E-01
         -2   -1    0    0    0  501 -0.00000000000E+00  0.00000000000E+00  0.20869215005E+04  0.20869215005E+04  0.00000000000E+00 0.  1.
          2   -1    0    0  501    0  0.00000000000E+00 -0.00000000000E+00 -0.15499267700E+04  0.15499267700E+04  0.00000000000E+00 0. -1.
         23    2    1    2    0    0  0.70992173896E+03 -0.15233900062E+04  0.12849226090E+03  0.16880398863E+04  0.90897800647E+02 0.  0.
        254    2    1    2    0    0 -0.70992173896E+03  0.15233900062E+04  0.40850246957E+03  0.19488083842E+04  0.89792753852E+03 0.  0.
        -24    2    4    4    0    0 -0.53388247635E+03  0.13154012916E+04  0.66179529975E+03  0.15683109334E+04  0.79467657312E+02 0.  0.
         24    2    4    4    0    0 -0.17603926260E+03  0.20798871458E+03 -0.25329283018E+03  0.38049745083E+03  0.79824337735E+02 0.  0.
         11    1    3    3    0    0  0.41821228084E+03 -0.99953513872E+03  0.88565217790E+02  0.10871135190E+04  0.00000000000E+00 0. -1.
        -11    1    3    3    0    0  0.29170945812E+03 -0.52385486747E+03  0.39927043106E+02  0.60092636728E+03  0.00000000000E+00 0.  1.
          2    1    6    6  502    0 -0.19546099926E+02  0.11070085597E+02  0.14393081344E+01  0.22509296420E+02  0.00000000000E+00 0. -1.
          1    1    5    5  503    0 -0.36638621533E+02  0.90125299969E+02  0.68492419175E+02  0.11897970317E+03  0.00000000000E+00 0. -1.
         -2    1    5    5    0  503 -0.49724385482E+03  0.12252759916E+04  0.59330288057E+03  0.14493312302E+04  0.00000000000E+00 0.  1.
         -1    1    6    6    0  502 -0.15649316268E+03  0.19691862898E+03 -0.25473213832E+03  0.35798815441E+03  0.00000000000E+00 0.  1.
<mgrwt>
<rscale>  0 0.35969851E+04</rscale>
<asrwt>0</asrwt>
<pdfrwt beam="1">  1        2 0.23845027E+00 0.35969851E+04</pdfrwt>
<pdfrwt beam="2">  1       -2 0.32106485E+00 0.35969851E+04</pdfrwt>
<totfact> 0.22869612E-01</totfact>
</mgrwt>
</event>
<event>
12    1  0.2011584E-007  0.3613021E+04  0.7818608E-02  0.8087516E-01
         -1   -1    0    0    0  501 -0.00000000000E+00  0.00000000000E+00  0.13206614174E+04  0.13206614174E+04  0.00000000000E+00 0.  1.
          1   -1    0    0  501    0  0.00000000000E+00 -0.00000000000E+00 -0.24710954386E+04  0.24710954386E+04  0.00000000000E+00 0. -1.
         23    2    1    2    0    0  0.53876189376E+02  0.14335542190E+04 -0.14836013265E+04  0.20657613830E+04  0.91196783007E+02 0.  0.
        254    2    1    2    0    0 -0.53876189376E+02 -0.14335542190E+04  0.33316730526E+03  0.17259954730E+04  0.90004420834E+03 0.  0.
        -24    2    4    4    0    0  0.25254375584E+03 -0.34366303963E+03  0.39778045437E+03  0.58914495664E+03  0.83545536275E+02 0.  0.
         24    2    4    4    0    0 -0.30641994522E+03 -0.10898911793E+04 -0.64613149111E+02  0.11368505163E+04  0.80611859223E+02 0.  0.
         11    1    3    3    0    0  0.59472206243E+02  0.11630405718E+04 -0.12484321446E+04  0.17072735969E+04  0.00000000000E+00 0. -1.
        -11    1    3    3    0    0 -0.55960168668E+01  0.27051364722E+03 -0.23516918184E+03  0.35848778615E+03  0.00000000000E+00 0.  1.
          4    1    6    6  502    0  0.34991022816E+01 -0.38814065078E+02 -0.63612302392E+01  0.39487220905E+02  0.00000000000E+00 0. -1.
          3    1    5    5  503    0  0.33860156967E+02 -0.44101135142E+02  0.18342209194E+02  0.58547903368E+02  0.00000000000E+00 0. -1.
         -4    1    5    5    0  503  0.21868359887E+03 -0.29956190449E+03  0.37943824518E+03  0.53059705327E+03  0.00000000000E+00 0.  1.
         -3    1    6    6    0  502 -0.30991904750E+03 -0.10510771143E+04 -0.58251918872E+02  0.10973632954E+04  0.00000000000E+00 0.  1.
<mgrwt>
<rscale>  0 0.36130211E+04</rscale>
<asrwt>0</asrwt>
<pdfrwt beam="1">  1        1 0.38016853E+00 0.36130211E+04</pdfrwt>
<pdfrwt beam="2">  1       -1 0.20317868E+00 0.36130211E+04</pdfrwt>
<totfact> 0.16407198E-01</totfact>
</mgrwt>
</event>
<event>
12    1  0.1980523E-007  0.1015966E+04  0.7818608E-02  0.9291205E-01
          1   -1    0    0  501    0  0.00000000000E+00  0.00000000000E+00  0.78719652479E+03  0.78719652479E+03  0.00000000000E+00 0. -1.
         -1   -1    0    0    0  501 -0.00000000000E+00 -0.00000000000E+00 -0.32780462139E+03  0.32780462139E+03  0.00000000000E+00 0.  1.
         23    2    1    2    0    0  0.54450619090E+01  0.24911760151E+02  0.12985865908E+03  0.15874929134E+03  0.87680223940E+02 0.  0.
        254    2    1    2    0    0 -0.54450619090E+01 -0.24911760151E+02  0.32953324432E+03  0.95625185483E+03  0.89731555557E+03 0.  0.
        -24    2    4    4    0    0  0.10980363048E+03 -0.12251284767E+02 -0.29034963112E+03  0.32073401931E+03  0.79752564880E+02 0.  0.
         24    2    4    4    0    0 -0.11524869239E+03 -0.12660475384E+02  0.61988287544E+03  0.63551783552E+03  0.78648529972E+02 0.  0.
         11    1    3    3    0    0  0.32937762804E+01 -0.23028827939E+02  0.98996705934E+02  0.10169328230E+03  0.00000000000E+00 0. -1.
        -11    1    3    3    0    0  0.21512856286E+01  0.47940588090E+02  0.30861953150E+02  0.57056009048E+02  0.00000000000E+00 0.  1.
          4    1    6    6  502    0 -0.88209970986E+02 -0.39471149448E+02  0.35525510549E+03  0.36816458357E+03  0.00000000000E+00 0. -1.
          1    1    5    5  503    0  0.98360511041E+02  0.17123020210E+02 -0.25221019287E+03  0.27125259325E+03  0.00000000000E+00 0. -1.
         -2    1    5    5    0  503  0.11443119442E+02 -0.29374304977E+02 -0.38139438245E+02  0.49481426062E+02  0.00000000000E+00 0.  1.
         -3    1    6    6    0  502 -0.27038721406E+02  0.26810674064E+02  0.26462776995E+03  0.26735325195E+03  0.00000000000E+00 0.  1.
<mgrwt>
<rscale>  0 0.10159659E+04</rscale>
<asrwt>0</asrwt>
<pdfrwt beam="1">  1        1 0.12110716E+00 0.10159659E+04</pdfrwt>
<pdfrwt beam="2">  1       -1 0.50431481E-01 0.10159659E+04</pdfrwt>
<totfact> 0.89710872E+01</totfact>
</mgrwt>
</event>
<event>
12    1  0.1980523E-007  0.5469866E+04  0.7818608E-02  0.7759849E-01
         -2   -1    0    0    0  501 -0.00000000000E+00  0.00000000000E+00  0.15173691168E+04  0.15173691168E+04  0.00000000000E+00 0.  1.
          2   -1    0    0  501    0  0.00000000000E+00 -0.00000000000E+00 -0.49294918093E+04  0.49294918093E+04  0.00000000000E+00 0. -1.
         23    2    1    2    0    0 -0.21854008050E+04  0.11836843168E+04 -0.54298640554E+03  0.25456080248E+04  0.90557931161E+02 0.  0.
        254    2    1    2    0    0  0.21854008050E+04 -0.11836843168E+04 -0.28691362869E+04  0.39012529013E+04  0.90041430845E+03 0.  0.
        -24    2    4    4    0    0  0.15969753004E+04 -0.11693764390E+04 -0.17924597257E+04  0.26715413031E+04  0.80310022340E+02 0.  0.
         24    2    4    4    0    0  0.58842550460E+03 -0.14307877732E+02 -0.10766765612E+04  0.12297115982E+04  0.80677800430E+02 0.  0.
         13    1    3    3    0    0 -0.19780269536E+04  0.10654113197E+04 -0.46373794321E+03  0.22940673026E+04  0.00000000000E+00 0.  1.
        -13    1    3    3    0    0 -0.20737385143E+03  0.11827299710E+03 -0.79248462332E+02  0.25154072212E+03  0.00000000000E+00 0. -1.
          2    1    6    6  502    0  0.49810819665E+03 -0.37432883656E+02 -0.87531380995E+03  0.10078131088E+04  0.00000000000E+00 0. -1.
          1    1    5    5  503    0  0.13113709649E+04 -0.98820579136E+03 -0.15130023497E+04  0.22328055455E+04  0.00000000000E+00 0. -1.
         -2    1    5    5    0  503  0.28560433544E+03 -0.18117064768E+03 -0.27945737600E+03  0.43873575761E+03  0.00000000000E+00 0.  1.
         -1    1    6    6    0  502  0.90317307954E+02  0.23125005924E+02 -0.20136275124E+03  0.22189848941E+03  0.00000000000E+00 0.  1.
<mgrwt>
<rscale>  0 0.54698660E+04</rscale>
<asrwt>0</asrwt>
<pdfrwt beam="1">  1        2 0.75838335E+00 0.54698660E+04</pdfrwt>
<pdfrwt beam="2">  1       -2 0.23344140E+00 0.54698660E+04</pdfrwt>
<totfact> 0.23535035E-03</totfact>
</mgrwt>
</event>
<event>
12    1  0.1980523E-007  0.1891761E+04  0.7818608E-02  0.8658968E-01
         -2   -1    0    0    0  501 -0.00000000000E+00  0.00000000000E+00  0.31720700408E+03  0.31720700408E+03  0.00000000000E+00 0.  1.
          2   -1    0    0  501    0  0.00000000000E+00 -0.00000000000E+00 -0.28205230225E+04  0.28205230225E+04  0.00000000000E+00 0. -1.
         23    2    1    2    0    0  0.41873007823E+03 -0.59059796463E+03 -0.87676893860E+03  0.11407605808E+04  0.92033128434E+02 0.  0.
        254    2    1    2    0    0 -0.41873007823E+03  0.59059796463E+03 -0.16265470799E+04  0.19969694458E+04  0.90448368164E+03 0.  0.
        -24    2    4    4    0    0 -0.42550548134E+03  0.48850151499E+03 -0.17190251280E+04  0.18388048067E+04  0.80418166576E+02 0.  0.
         24    2    4    4    0    0  0.67754031083E+01  0.10209644963E+03  0.92478048160E+02  0.15816463915E+03  0.77422687708E+02 0.  0.
         13    1    3    3    0    0  0.17744612260E+03 -0.29046181184E+03 -0.34975618654E+03  0.48804157670E+03  0.00000000000E+00 0. -1.
        -13    1    3    3    0    0  0.24128395563E+03 -0.30013615278E+03 -0.52701275205E+03  0.65271900408E+03  0.00000000000E+00 0.  1.
          4    1    6    6  502    0  0.82396988689E+01  0.11333773203E+03  0.92963390131E+02  0.14681800314E+03  0.00000000000E+00 0. -1.
          1    1    5    5  503    0 -0.31732200649E+03  0.30761202356E+03 -0.11498935827E+04  0.12318983985E+04  0.00000000000E+00 0. -1.
         -2    1    5    5    0  503 -0.10818347485E+03  0.18088949144E+03 -0.56913154534E+03  0.60690640814E+03  0.00000000000E+00 0.  1.
         -3    1    6    6    0  502 -0.14642957606E+01 -0.11241282401E+02 -0.48534197051E+00  0.11346636018E+02  0.00000000000E+00 0.  1.
<mgrwt>
<rscale>  0 0.18917607E+04</rscale>
<asrwt>0</asrwt>
<pdfrwt beam="1">  1        2 0.43392662E+00 0.18917607E+04</pdfrwt>
<pdfrwt beam="2">  1       -2 0.48801078E-01 0.18917607E+04</pdfrwt>
<totfact> 0.83914356E+00</totfact>
</mgrwt>
</event>
<event>
12    1  0.1980523E-007  0.2387647E+04  0.7818608E-02  0.8444143E-01
          2   -1    0    0  501    0  0.00000000000E+00  0.00000000000E+00  0.11405579791E+04  0.11405579791E+04  0.00000000000E+00 0. -1.
         -2   -1    0    0    0  501 -0.00000000000E+00 -0.00000000000E+00 -0.12495766988E+04  0.12495766988E+04  0.00000000000E+00 0.  1.
         23    2    1    2    0    0 -0.63248925460E+03 -0.79382913369E+03 -0.16825323991E+03  0.10325726814E+04  0.87691727011E+02 0.  0.
        254    2    1    2    0    0  0.63248925460E+03  0.79382913369E+03  0.59234520140E+02  0.13575619965E+04  0.89958795862E+03 0.  0.
        -24    2    4    4    0    0  0.38268012134E+03  0.41106086019E+03  0.47088638777E+03  0.73718493988E+03  0.79325527747E+02 0.  0.
         24    2    4    4    0    0  0.24980913326E+03  0.38276827349E+03 -0.41165186763E+03  0.62037705662E+03  0.80587083324E+02 0.  0.
         11    1    3    3    0    0 -0.54212510625E+03 -0.65652645227E+03 -0.16980984132E+03  0.86819467608E+03  0.00000000000E+00 0. -1.
        -11    1    3    3    0    0 -0.90364148352E+02 -0.13730268141E+03  0.15566014047E+01  0.16437800534E+03  0.00000000000E+00 0.  1.
          2    1    6    6  502    0  0.57025688557E+02  0.36364850915E+02 -0.63380182433E+02  0.92689692323E+02  0.00000000000E+00 0. -1.
          1    1    5    5  503    0  0.15747150062E+03  0.22502693743E+03  0.21384709767E+03  0.34808759998E+03  0.00000000000E+00 0. -1.
         -2    1    5    5    0  503  0.22520862072E+03  0.18603392276E+03  0.25703929010E+03  0.38909733991E+03  0.00000000000E+00 0.  1.
         -1    1    6    6    0  502  0.19278344470E+03  0.34640342258E+03 -0.34827168520E+03  0.52768736430E+03  0.00000000000E+00 0.  1.
<mgrwt>
<rscale>  0 0.23876471E+04</rscale>
<asrwt>0</asrwt>
<pdfrwt beam="1">  1        2 0.17547046E+00 0.23876471E+04</pdfrwt>
<pdfrwt beam="2">  1       -2 0.19224257E+00 0.23876471E+04</pdfrwt>
<totfact> 0.27725579E+00</totfact>
</mgrwt>
</event>
<event>
12    1  0.1980523E-007  0.1914587E+04  0.7818608E-02  0.8647629E-01
          2   -1    0    0  501    0  0.00000000000E+00  0.00000000000E+00  0.17275981475E+04  0.17275981475E+04  0.00000000000E+00 0. -1.
         -2   -1    0    0    0  501 -0.00000000000E+00 -0.00000000000E+00 -0.53045363005E+03  0.53045363005E+03  0.00000000000E+00 0.  1.
         23    2    1    2    0    0  0.49758702135E+03  0.27275086770E+03 -0.95804062649E+02  0.58276349927E+03  0.91918431346E+02 0.  0.
        254    2    1    2    0    0 -0.49758702135E+03 -0.27275086770E+03  0.12929485801E+04  0.16752882783E+04  0.90160351871E+03 0.  0.
        -24    2    4    4    0    0  0.57969940154E+02 -0.36715426880E+03  0.17005195958E+03  0.41640744880E+03  0.79465233898E+02 0.  0.
         24    2    4    4    0    0 -0.55555696150E+03  0.94403401099E+02  0.11228966205E+04  0.12588808295E+04  0.79552390750E+02 0.  0.
         11    1    3    3    0    0  0.40175735135E+03  0.20577473185E+03 -0.11107686215E+03  0.46485511608E+03  0.00000000000E+00 0.  1.
        -11    1    3    3    0    0  0.95829669992E+02  0.66976135846E+02  0.15272799500E+02  0.11790838320E+03  0.00000000000E+00 0. -1.
          4    1    6    6  502    0 -0.40937505876E+03  0.97722142180E+02  0.87776080172E+03  0.97344829388E+03  0.00000000000E+00 0. -1.
          3    1    5    5  503    0  0.77298191646E+02 -0.26820241386E+03  0.11954419336E+03  0.30364182749E+03  0.00000000000E+00 0. -1.
         -4    1    5    5    0  503 -0.19328251492E+02 -0.98951854939E+02  0.50507766221E+02  0.11276562131E+03  0.00000000000E+00 0.  1.
         -3    1    6    6    0  502 -0.14618190274E+03 -0.33187410810E+01  0.24513581881E+03  0.28543253562E+03  0.00000000000E+00 0.  1.
<mgrwt>
<rscale>  0 0.19145869E+04</rscale>
<asrwt>0</asrwt>
<pdfrwt beam="1">  1        2 0.26578433E+00 0.19145869E+04</pdfrwt>
<pdfrwt beam="2">  1       -2 0.81608252E-01 0.19145869E+04</pdfrwt>
<totfact> 0.11702515E+01</totfact>
</mgrwt>
</event>
<event>
12    1  0.1980523E-007  0.2582866E+04  0.7818608E-02  0.8374045E-01
         -2   -1    0    0    0  501 -0.00000000000E+00  0.00000000000E+00  0.53963226234E+03  0.53963226234E+03  0.00000000000E+00 0.  1.
          2   -1    0    0  501    0  0.00000000000E+00 -0.00000000000E+00 -0.30906213337E+04  0.30906213337E+04  0.00000000000E+00 0. -1.
         23    2    1    2    0    0  0.90793870377E+03  0.21594208188E+03 -0.20235823500E+04  0.22303985892E+04  0.93854500648E+02 0.  0.
        254    2    1    2    0    0 -0.90793870377E+03 -0.21594208188E+03 -0.52740672139E+03  0.13998550068E+04  0.90025136363E+03 0.  0.
        -24    2    4    4    0    0  0.85846799459E+02  0.18836767301E+03 -0.89894813595E+02  0.23837142065E+03  0.76732023683E+02 0.  0.
         24    2    4    4    0    0 -0.99378550323E+03 -0.40430975489E+03 -0.43751190780E+03  0.11614835861E+04  0.80941009746E+02 0.  0.
         13    1    3    3    0    0  0.39469446914E+03  0.87487371241E+02 -0.98743693307E+03  0.10669908439E+04  0.00000000000E+00 0. -1.
        -13    1    3    3    0    0  0.51324423463E+03  0.12845471064E+03 -0.10361454169E+04  0.11634077454E+04  0.00000000000E+00 0.  1.
          4    1    6    6  502    0 -0.41777574961E+03 -0.14166863746E+03 -0.21215707390E+03  0.48950710293E+03  0.00000000000E+00 0. -1.
          1    1    5    5  503    0  0.88012238568E+02  0.18652641150E+03 -0.69296883995E+02  0.21757829500E+03  0.00000000000E+00 0. -1.
         -2    1    5    5    0  503 -0.21654391092E+01  0.18412615145E+01 -0.20597929600E+02  0.20793125650E+02  0.00000000000E+00 0.  1.
         -3    1    6    6    0  502 -0.57600975362E+03 -0.26264111743E+03 -0.22535483389E+03  0.67197648321E+03  0.00000000000E+00 0.  1.
<mgrwt>
<rscale>  0 0.25828658E+04</rscale>
<asrwt>0</asrwt>
<pdfrwt beam="1">  1        2 0.47548021E+00 0.25828658E+04</pdfrwt>
<pdfrwt beam="2">  1       -2 0.83020348E-01 0.25828658E+04</pdfrwt>
<totfact> 0.17182065E+00</totfact>
</mgrwt>
</event>
<event>
12    1  0.1980523E-007  0.1326981E+04  0.7818608E-02  0.9008438E-01
          2   -1    0    0  501    0  0.00000000000E+00  0.00000000000E+00  0.23144798532E+04  0.23144798532E+04  0.00000000000E+00 0.  1.
         -2   -1    0    0    0  501 -0.00000000000E+00 -0.00000000000E+00 -0.19020248582E+03  0.19020248582E+03  0.00000000000E+00 0. -1.
         23    2    1    2    0    0 -0.24715473972E+03  0.17985434600E+03  0.30051194696E+03  0.43845494525E+03  0.92207687357E+02 0.  0.
        254    2    1    2    0    0  0.24715473972E+03 -0.17985434600E+03  0.18237654204E+04  0.20662273938E+04  0.92181466842E+03 0.  0.
        -24    2    4    4    0    0  0.30450494402E+03  0.14036304245E+02  0.18210013136E+04  0.18480668293E+04  0.79905835688E+02 0.  0.
         24    2    4    4    0    0 -0.57350204302E+02 -0.19389065024E+03  0.27641068342E+01  0.21816056451E+03  0.81876501107E+02 0.  0.
         13    1    3    3    0    0 -0.50136464979E+02  0.18327815986E+02  0.14269763767E+02  0.55255769991E+02  0.00000000000E+00 0. -1.
        -13    1    3    3    0    0 -0.19701827474E+03  0.16152653001E+03  0.28624218319E+03  0.38319917526E+03  0.00000000000E+00 0.  1.
          2    1    6    6  502    0 -0.56080542743E+02 -0.52749135542E+02  0.23004098322E+00  0.76990593540E+02  0.00000000000E+00 0. -1.
          3    1    5    5  503    0  0.26550813071E+03 -0.99484679663E+01  0.14380874687E+04  0.14624257612E+04  0.00000000000E+00 0. -1.
         -4    1    5    5    0  503  0.38996813314E+02  0.23984772212E+02  0.38291384496E+03  0.38564106811E+03  0.00000000000E+00 0.  1.
         -1    1    6    6    0  502 -0.12696615585E+01 -0.14114151470E+03  0.25340658510E+01  0.14116997097E+03  0.00000000000E+00 0.  1.
<mgrwt>
<rscale>  0 0.13269813E+04</rscale>
<asrwt>0</asrwt>
<pdfrwt beam="1">  1        2 0.35607380E+00 0.13269813E+04</pdfrwt>
<pdfrwt beam="2">  1       -2 0.29261923E-01 0.13269813E+04</pdfrwt>
<totfact> 0.46882064E+01</totfact>
</mgrwt>
</event>
<event>
12    1  0.1980523E-007  0.1443971E+04  0.7818608E-02  0.8922591E-01
          2   -1    0    0  501    0  0.00000000000E+00  0.00000000000E+00  0.12086996428E+04  0.12086996428E+04  0.00000000000E+00 0. -1.
         -2   -1    0    0    0  501 -0.00000000000E+00 -0.00000000000E+00 -0.43125916316E+03  0.43125916316E+03  0.00000000000E+00 0.  1.
         23    2    1    2    0    0  0.38046231618E+03 -0.15025132502E+03  0.39996034518E+03  0.57960635608E+03  0.92995782643E+02 0.  0.
        254    2    1    2    0    0 -0.38046231618E+03  0.15025132502E+03  0.37748013443E+03  0.10603524498E+04  0.90251262113E+03 0.  0.
        -24    2    4    4    0    0 -0.41346648304E+01 -0.16496125391E+03  0.51219128216E+03  0.54414813163E+03  0.80795846999E+02 0.  0.
         24    2    4    4    0    0 -0.37632765135E+03  0.31521257893E+03 -0.13471114773E+03  0.51620431822E+03  0.85664074974E+02 0.  0.
         13    1    3    3    0    0  0.11683863460E+03 -0.47369655166E+02  0.18659790153E+03  0.22519753023E+03  0.00000000000E+00 0. -1.
        -13    1    3    3    0    0  0.26362368158E+03 -0.10288166985E+03  0.21336244365E+03  0.35440882586E+03  0.00000000000E+00 0.  1.
          4    1    6    6  502    0 -0.26131953294E+02  0.58555530379E+02 -0.18797612696E+02  0.66820501076E+02  0.00000000000E+00 0. -1.
          1    1    5    5  503    0  0.13873939050E+02 -0.45890768409E+01  0.13138820728E+02  0.19651321105E+02  0.00000000000E+00 0. -1.
         -2    1    5    5    0  503 -0.18008603881E+02 -0.16037217707E+03  0.49905246143E+03  0.52449681052E+03  0.00000000000E+00 0.  1.
         -3    1    6    6    0  502 -0.35019569806E+03  0.25665704855E+03 -0.11591353503E+03  0.44938381714E+03  0.00000000000E+00 0.  1.
<mgrwt>
<rscale>  0 0.14439706E+04</rscale>
<asrwt>0</asrwt>
<pdfrwt beam="1">  1        2 0.18595379E+00 0.14439706E+04</pdfrwt>
<pdfrwt beam="2">  1       -2 0.66347564E-01 0.14439706E+04</pdfrwt>
<totfact> 0.37926748E+01</totfact>
</mgrwt>
</event>
<event>
12    1  0.2276531E-007  0.2302224E+04  0.7818608E-02  0.8477045E-01
          1   -1    0    0  501    0  0.00000000000E+00  0.00000000000E+00  0.10983656078E+04  0.10983656078E+04  0.00000000000E+00 0. -1.
         -1   -1    0    0    0  501 -0.00000000000E+00 -0.00000000000E+00 -0.12063917043E+04  0.12063917043E+04  0.00000000000E+00 0.  1.
         23    2    1    2    0    0  0.43289280991E+03  0.10897776769E+03 -0.91034428044E+03  0.10178005403E+04  0.88988157155E+02 0.  0.
        254    2    1    2    0    0 -0.43289280991E+03 -0.10897776769E+03  0.80231818401E+03  0.12869567718E+04  0.90181534995E+03 0.  0.
        -24    2    4    4    0    0 -0.67352050195E+03  0.85600897219E+02  0.58612182230E+03  0.90052690649E+03  0.80327694972E+02 0.  0.
         24    2    4    4    0    0  0.24062769204E+03 -0.19457866490E+03  0.21619636170E+03  0.38642986532E+03  0.82611324814E+02 0.  0.
         11    1    3    3    0    0  0.32482129688E+03  0.87594107499E+02 -0.76254245415E+03  0.83345821548E+03  0.00000000000E+00 0.  1.
        -11    1    3    3    0    0  0.10807151303E+03  0.21383660187E+02 -0.14780182629E+03  0.18434232479E+03  0.00000000000E+00 0. -1.
          2    1    6    6  502    0  0.45380678031E+02 -0.13488458944E+01  0.26071165721E+02  0.52353901534E+02  0.00000000000E+00 0. -1.
          1    1    5    5  503    0 -0.11056921639E+03 -0.12646098258E+02  0.11337710605E+03  0.15887052462E+03  0.00000000000E+00 0. -1.
         -2    1    5    5    0  503 -0.56295128556E+03  0.98246995477E+02  0.47274471625E+03  0.74165638188E+03  0.00000000000E+00 0.  1.
         -3    1    6    6    0  502  0.19524701401E+03 -0.19322981901E+03  0.19012519598E+03  0.33407596379E+03  0.00000000000E+00 0.  1.
<mgrwt>
<rscale>  0 0.23022243E+04</rscale>
<asrwt>0</asrwt>
<pdfrwt beam="1">  1        1 0.16897932E+00 0.23022243E+04</pdfrwt>
<pdfrwt beam="2">  1       -1 0.18559872E+00 0.23022243E+04</pdfrwt>
<totfact> 0.21810111E+00</totfact>
</mgrwt>
</event>
<event>
12    1  0.1980523E-007  0.1309391E+04  0.7818608E-02  0.9022151E-01
          1   -1    0    0  501    0  0.00000000000E+00  0.00000000000E+00  0.13523219962E+04  0.13523219962E+04  0.00000000000E+00 0. -1.
         -1   -1    0    0    0  501 -0.00000000000E+00 -0.00000000000E+00 -0.31695568212E+03  0.31695568212E+03  0.00000000000E+00 0.  1.
         23    2    1    2    0    0 -0.19880657875E+02  0.29618418745E+03  0.48440227650E+03  0.57513833409E+03  0.89544538738E+02 0.  0.
        254    2    1    2    0    0  0.19880657875E+02 -0.29618418745E+03  0.55096403757E+03  0.10941393442E+04  0.89747379929E+03 0.  0.
        -24    2    4    4    0    0  0.15593781490E+03 -0.24152976025E+03 -0.17718300295E+03  0.34723476259E+03  0.80777079744E+02 0.  0.
         24    2    4    4    0    0 -0.13605715703E+03 -0.54654427196E+02  0.72814704052E+03  0.74690458162E+03  0.78547342704E+02 0.  0.
         11    1    3    3    0    0 -0.11455218755E+02  0.88179839789E+02  0.76981440334E+02  0.11761398020E+03  0.00000000000E+00 0.  1.
        -11    1    3    3    0    0 -0.84254391206E+01  0.20800434766E+03  0.40742083616E+03  0.45752435390E+03  0.00000000000E+00 0. -1.
          2    1    6    6  502    0 -0.68049783994E+02 -0.10266678234E+02  0.50042213880E+03  0.50513215576E+03  0.00000000000E+00 0. -1.
          1    1    5    5  503    0  0.79070041099E+02 -0.57351702710E+02 -0.74130665445E+02  0.12262399750E+03  0.00000000000E+00 0. -1.
         -2    1    5    5    0  503  0.76867773803E+02 -0.18417805754E+03 -0.10305233751E+03  0.22461076509E+03  0.00000000000E+00 0.  1.
         -1    1    6    6    0  502 -0.68007373033E+02 -0.44387748962E+02  0.22772490172E+03  0.24177242586E+03  0.00000000000E+00 0.  1.
<mgrwt>
<rscale>  0 0.13093909E+04</rscale>
<asrwt>0</asrwt>
<pdfrwt beam="1">  1        1 0.20804953E+00 0.13093909E+04</pdfrwt>
<pdfrwt beam="2">  1       -1 0.48762414E-01 0.13093909E+04</pdfrwt>
<totfact> 0.34308461E+01</totfact>
</mgrwt>
</event>
<event>
12    1  0.1980523E-007  0.1353192E+04  0.7818608E-02  0.8988416E-01
         -1   -1    0    0    0  501 -0.00000000000E+00  0.00000000000E+00  0.45706410875E+03  0.45706410875E+03  0.00000000000E+00 0.  1.
          1   -1    0    0  501    0  0.00000000000E+00 -0.00000000000E+00 -0.10015703078E+04  0.10015703078E+04  0.00000000000E+00 0. -1.
         23    2    1    2    0    0 -0.20495282149E+03 -0.23455358584E+03  0.62821155548E+02  0.33057132379E+03  0.91158427257E+02 0.  0.
        254    2    1    2    0    0  0.20495282149E+03  0.23455358584E+03 -0.60732735458E+03  0.11280630927E+04  0.89814184956E+03 0.  0.
        -24    2    4    4    0    0  0.49484378977E+03  0.15846617073E+03 -0.62466315849E+03  0.81649192986E+03  0.80455617667E+02 0.  0.
         24    2    4    4    0    0 -0.28989096828E+03  0.76087415111E+02  0.17335803906E+02  0.31157116289E+03  0.83366607324E+02 0.  0.
         13    1    3    3    0    0 -0.85429266264E+02 -0.14605122700E+03  0.19799073159E+00  0.16920153559E+03  0.00000000000E+00 0. -1.
        -13    1    3    3    0    0 -0.11952355522E+03 -0.88502358833E+02  0.62623164816E+02  0.16136978820E+03  0.00000000000E+00 0.  1.
          2    1    6    6  502    0 -0.16374072948E+03  0.77894748370E+02  0.33446370531E+02  0.18438350798E+03  0.00000000000E+00 0. -1.
          3    1    5    5  503    0  0.34219067063E+03  0.12070971245E+03 -0.37806737969E+03  0.52402312290E+03  0.00000000000E+00 0. -1.
         -2    1    5    5    0  503  0.15265311914E+03  0.37756458273E+02 -0.24659577879E+03  0.29246880696E+03  0.00000000000E+00 0.  1.
         -1    1    6    6    0  502 -0.12615023881E+03 -0.18073332591E+01 -0.16110566625E+02  0.12718765491E+03  0.00000000000E+00 0.  1.
<mgrwt>
<rscale>  0 0.13531915E+04</rscale>
<asrwt>0</asrwt>
<pdfrwt beam="1">  1        1 0.15408774E+00 0.13531915E+04</pdfrwt>
<pdfrwt beam="2">  1       -1 0.70317556E-01 0.13531915E+04</pdfrwt>
<totfact> 0.30186644E+01</totfact>
</mgrwt>
</event>
<event>
12    1  0.1980523E-007  0.1881154E+04  0.7818608E-02  0.8664295E-01
         -1   -1    0    0    0  501 -0.00000000000E+00  0.00000000000E+00  0.11460568896E+04  0.11460568896E+04  0.00000000000E+00 0.  1.
          1   -1    0    0  501    0  0.00000000000E+00 -0.00000000000E+00 -0.77193797375E+03  0.77193797375E+03  0.00000000000E+00 0. -1.
         23    2    1    2    0    0 -0.52411163517E+03  0.46210768908E+03 -0.26801610219E+02  0.70519722781E+03  0.91368930064E+02 0.  0.
        254    2    1    2    0    0  0.52411163517E+03 -0.46210768908E+03  0.40092052610E+03  0.12127976356E+04  0.90658938565E+03 0.  0.
        -24    2    4    4    0    0  0.54424752163E+03 -0.68825836865E+03  0.41003768605E+03  0.97191503857E+03  0.81135635831E+02 0.  0.
         24    2    4    4    0    0 -0.20135886463E+02  0.22615067956E+03 -0.91171599491E+01  0.24088259700E+03  0.79948227885E+02 0.  0.
         13    1    3    3    0    0 -0.39915759248E+03  0.29789003443E+03 -0.99845428581E+01  0.49816156751E+03  0.00000000000E+00 0.  1.
        -13    1    3    3    0    0 -0.12495404268E+03  0.16421765465E+03 -0.16817067361E+02  0.20703566030E+03  0.00000000000E+00 0. -1.
          2    1    6    6  502    0 -0.75139919299E+00  0.31174090233E+02  0.27471247108E+02  0.41557886379E+02  0.00000000000E+00 0. -1.
          1    1    5    5  503    0  0.15007354742E+03 -0.15341743732E+03  0.12994734516E+03  0.25088900379E+03  0.00000000000E+00 0. -1.
         -2    1    5    5    0  503  0.39417397421E+03 -0.53484093133E+03  0.28009034090E+03  0.72102603478E+03  0.00000000000E+00 0.  1.
         -1    1    6    6    0  502 -0.19384487270E+02  0.19497658933E+03 -0.36588407057E+02  0.19932471062E+03  0.00000000000E+00 0.  1.
<mgrwt>
<rscale>  0 0.18811537E+04</rscale>
<asrwt>0</asrwt>
<pdfrwt beam="1">  1        1 0.11875969E+00 0.18811537E+04</pdfrwt>
<pdfrwt beam="2">  1       -1 0.17631645E+00 0.18811537E+04</pdfrwt>
<totfact> 0.48529537E+00</totfact>
</mgrwt>
</event>
<event>
12    1  0.1980523E-007  0.1320694E+04  0.7818608E-02  0.9013314E-01
         -2   -1    0    0    0  501 -0.00000000000E+00  0.00000000000E+00  0.63100748268E+03  0.63100748268E+03  0.00000000000E+00 0.  1.
          2   -1    0    0  501    0  0.00000000000E+00 -0.00000000000E+00 -0.69105043107E+03  0.69105043107E+03  0.00000000000E+00 0. -1.
         23    2    1    2    0    0  0.18816310368E+03 -0.21362484127E+03  0.18102456882E+03  0.34871934161E+03  0.88285663079E+02 0.  0.
        254    2    1    2    0    0 -0.18816310368E+03  0.21362484127E+03 -0.24106751720E+03  0.97333857214E+03  0.89901807644E+03 0.  0.
        -24    2    4    4    0    0 -0.61642083096E+02  0.21028581230E+03 -0.56737715384E+03  0.61330897443E+03  0.78811129633E+02 0.  0.
         24    2    4    4    0    0 -0.12652102058E+03  0.33390289693E+01  0.32630963664E+03  0.36002959771E+03  0.84407431525E+02 0.  0.
         13    1    3    3    0    0  0.72444981449E+02 -0.11114609526E+03  0.37698938100E+02  0.13792367369E+03  0.00000000000E+00 0.  1.
        -13    1    3    3    0    0  0.11571812223E+03 -0.10247874601E+03  0.14332563072E+03  0.21079566792E+03  0.00000000000E+00 0. -1.
          4    1    6    6  502    0 -0.90708140925E+01  0.22437919552E+02  0.19923867638E+02  0.31348052631E+02  0.00000000000E+00 0. -1.
          1    1    5    5  503    0  0.56292900650E+01 -0.41913624050E+01 -0.30082871113E+02  0.30890703454E+02  0.00000000000E+00 0. -1.
         -4    1    5    5    0  503 -0.67271373161E+02  0.21447717471E+03 -0.53729428273E+03  0.58241827098E+03  0.00000000000E+00 0.  1.
         -3    1    6    6    0  502 -0.11745020649E+03 -0.19098890582E+02  0.30638576900E+03  0.32868154508E+03  0.00000000000E+00 0.  1.
<mgrwt>
<rscale>  0 0.13206937E+04</rscale>
<asrwt>0</asrwt>
<pdfrwt beam="1">  1        2 0.10631545E+00 0.13206937E+04</pdfrwt>
<pdfrwt beam="2">  1       -2 0.97078074E-01 0.13206937E+04</pdfrwt>
<totfact> 0.36121135E+01</totfact>
</mgrwt>
</event>
<event>
12    1  0.1980523E-007  0.3843973E+04  0.7818608E-02  0.8036784E-01
         -2   -1    0    0    0  501 -0.00000000000E+00  0.00000000000E+00  0.10901857208E+04  0.10901857208E+04  0.00000000000E+00 0.  1.
          2   -1    0    0  501    0  0.00000000000E+00 -0.00000000000E+00 -0.33884430721E+04  0.33884430721E+04  0.00000000000E+00 0. -1.
         23    2    1    2    0    0 -0.14448986912E+04 -0.64590628268E+03 -0.21195953528E+04  0.26467526196E+04  0.87680191303E+02 0.  0.
        254    2    1    2    0    0  0.14448986912E+04  0.64590628268E+03 -0.17866199848E+03  0.18318761733E+04  0.90494367275E+03 0.  0.
        -24    2    4    4    0    0  0.97871230507E+03  0.50701178867E+02 -0.36535659152E+03  0.10490916570E+04  0.81605638473E+02 0.  0.
         24    2    4    4    0    0  0.46618638609E+03  0.59520510382E+03  0.18669459304E+03  0.78278451628E+03  0.79359093136E+02 0.  0.
         13    1    3    3    0    0 -0.11284228760E+04 -0.50017579360E+03 -0.17115528864E+04  0.21101960322E+04  0.00000000000E+00 0. -1.
        -13    1    3    3    0    0 -0.31647581512E+03 -0.14573048909E+03 -0.40804246641E+03  0.53655658732E+03  0.00000000000E+00 0.  1.
          4    1    6    6  502    0  0.15839289289E+03  0.26361484386E+03  0.66127799882E+02  0.31456951591E+03  0.00000000000E+00 0. -1.
          3    1    5    5  503    0  0.73642715745E+03  0.33888676686E+02 -0.31154718065E+03  0.80033433415E+03  0.00000000000E+00 0. -1.
         -4    1    5    5    0  503  0.24228514762E+03  0.16812502181E+02 -0.53809410862E+02  0.24875732287E+03  0.00000000000E+00 0.  1.
         -3    1    6    6    0  502  0.30779349321E+03  0.33159025995E+03  0.12056679316E+03  0.46821500037E+03  0.00000000000E+00 0.  1.
<mgrwt>
<rscale>  0 0.38439731E+04</rscale>
<asrwt>0</asrwt>
<pdfrwt beam="1">  1        2 0.52129893E+00 0.38439731E+04</pdfrwt>
<pdfrwt beam="2">  1       -2 0.16772088E+00 0.38439731E+04</pdfrwt>
<totfact> 0.17138565E-01</totfact>
</mgrwt>
</event>
<event>
12    1  0.1980523E-007  0.1626729E+04  0.7818608E-02  0.8804294E-01
         -2   -1    0    0    0  501 -0.00000000000E+00  0.00000000000E+00  0.11211068025E+04  0.11211068025E+04  0.00000000000E+00 0.  1.
          2   -1    0    0  501    0  0.00000000000E+00 -0.00000000000E+00 -0.59009669657E+03  0.59009669657E+03  0.00000000000E+00 0. -1.
         23    2    1    2    0    0  0.34112081935E+03 -0.16883280774E+03  0.61737679462E+03  0.73118659818E+03  0.92799808505E+02 0.  0.
        254    2    1    2    0    0 -0.34112081935E+03  0.16883280774E+03 -0.86366688704E+02  0.98001690089E+03  0.89894715681E+03 0.  0.
        -24    2    4    4    0    0  0.25858954528E+03 -0.89139794586E+02  0.90956038516E+02  0.29875259735E+03  0.78521701299E+02 0.  0.
         24    2    4    4    0    0 -0.59971036463E+03  0.25797260232E+03 -0.17732272722E+03  0.68126430353E+03  0.80469352468E+02 0.  0.
         11    1    3    3    0    0  0.16843589469E+03 -0.11822348622E+03  0.39249955309E+03  0.44317416722E+03  0.00000000000E+00 0.  1.
        -11    1    3    3    0    0  0.17268492466E+03 -0.50609321516E+02  0.22487724153E+03  0.28801243096E+03  0.00000000000E+00 0. -1.
          4    1    6    6  502    0 -0.50810253939E+03  0.22806719514E+03 -0.17864237758E+03  0.58488967772E+03  0.00000000000E+00 0. -1.
          1    1    5    5  503    0  0.16399527373E+03 -0.95475113784E+02  0.61025773464E+02  0.19933412197E+03  0.00000000000E+00 0. -1.
         -2    1    5    5    0  503  0.94594271555E+02  0.63353191978E+01  0.29930265052E+02  0.99418475378E+02  0.00000000000E+00 0.  1.
         -3    1    6    6    0  502 -0.91607825240E+02  0.29905407185E+02  0.13196503615E+01  0.96374625816E+02  0.00000000000E+00 0.  1.
<mgrwt>
<rscale>  0 0.16267285E+04</rscale>
<asrwt>0</asrwt>
<pdfrwt beam="1">  1        2 0.90784107E-01 0.16267285E+04</pdfrwt>
<pdfrwt beam="2">  1       -2 0.17247797E+00 0.16267285E+04</pdfrwt>
<totfact> 0.99031536E+00</totfact>
</mgrwt>
</event>
<event>
12    1  0.1980523E-007  0.2982376E+04  0.7818608E-02  0.8248781E-01
         -1   -1    0    0    0  501 -0.00000000000E+00  0.00000000000E+00  0.54930121613E+03  0.54930121613E+03  0.00000000000E+00 0.  1.
          1   -1    0    0  501    0  0.00000000000E+00 -0.00000000000E+00 -0.40481284228E+04  0.40481284228E+04  0.00000000000E+00 0. -1.
         23    2    1    2    0    0  0.27031188469E+03  0.94895017323E+03 -0.30187448450E+04  0.31771961795E+04  0.90444333361E+02 0.  0.
        254    2    1    2    0    0 -0.27031188469E+03 -0.94895017323E+03 -0.48008236161E+03  0.14202334594E+04  0.90167014976E+03 0.  0.
        -24    2    4    4    0    0 -0.96672608586E+02 -0.65500268311E+03 -0.73034354922E+03  0.98918859072E+03  0.81964992591E+02 0.  0.
         24    2    4    4    0    0 -0.17363927610E+03 -0.29394749012E+03  0.25026118760E+03  0.43104486867E+03  0.81322147223E+02 0.  0.
         13    1    3    3    0    0  0.21717957979E+03  0.66259612709E+03 -0.20275035673E+04  0.21440548764E+04  0.00000000000E+00 0. -1.
        -13    1    3    3    0    0  0.53132304895E+02  0.28635404614E+03 -0.99124127768E+03  0.10331413031E+04  0.00000000000E+00 0.  1.
          2    1    6    6  502    0 -0.16789011930E+03 -0.24386236153E+03  0.23609683047E+03  0.37867883079E+03  0.00000000000E+00 0. -1.
          3    1    5    5  503    0 -0.40423517999E+02 -0.34091572845E+03 -0.31936855134E+03  0.46888577105E+03  0.00000000000E+00 0. -1.
         -4    1    5    5    0  503 -0.56249090588E+02 -0.31408695466E+03 -0.41097499788E+03  0.52030281967E+03  0.00000000000E+00 0.  1.
         -1    1    6    6    0  502 -0.57491568000E+01 -0.50085128588E+02  0.14164357132E+02  0.52366037873E+02  0.00000000000E+00 0.  1.
<mgrwt>
<rscale>  0 0.29823761E+04</rscale>
<asrwt>0</asrwt>
<pdfrwt beam="1">  1        1 0.62278897E+00 0.29823761E+04</pdfrwt>
<pdfrwt beam="2">  1       -1 0.84507882E-01 0.29823761E+04</pdfrwt>
<totfact> 0.10271811E-01</totfact>
</mgrwt>
</event>
<event>
12    1  0.1980523E-007  0.1265225E+04  0.7818608E-02  0.9057606E-01
         -2   -1    0    0    0  501 -0.00000000000E+00  0.00000000000E+00  0.98810071073E+02  0.98810071073E+02  0.00000000000E+00 0.  1.
          2   -1    0    0  501    0  0.00000000000E+00 -0.00000000000E+00 -0.40501771694E+04  0.40501771694E+04  0.00000000000E+00 0. -1.
         23    2    1    2    0    0 -0.19273048579E+03  0.17425407034E+03 -0.48404548572E+03  0.55713202301E+03  0.92663572289E+02 0.  0.
        254    2    1    2    0    0  0.19273048579E+03 -0.17425407034E+03 -0.34673216126E+04  0.35918552174E+04  0.90088579564E+03 0.  0.
        -24    2    4    4    0    0 -0.29167004533E+00 -0.44338575974E+03 -0.28593718233E+04  0.28947525807E+04  0.83631709901E+02 0.  0.
         24    2    4    4    0    0  0.19302215584E+03  0.26913168939E+03 -0.60794978929E+03  0.69710263669E+03  0.81607113090E+02 0.  0.
         11    1    3    3    0    0 -0.28070815321E+02  0.82566009658E+02 -0.14383995530E+03  0.16821132353E+03  0.00000000000E+00 0. -1.
        -11    1    3    3    0    0 -0.16465967047E+03  0.91688060685E+02 -0.34020553042E+03  0.38892069948E+03  0.00000000000E+00 0.  1.
          2    1    6    6  502    0  0.17236119120E+03  0.25095767973E+03 -0.49737289808E+03  0.58315344207E+03  0.00000000000E+00 0. -1.
          3    1    5    5  503    0  0.18987183432E+02 -0.14948405976E+03 -0.12026515198E+04  0.12120547328E+04  0.00000000000E+00 0. -1.
         -4    1    5    5    0  503 -0.19278853477E+02 -0.29390169998E+03 -0.16567203035E+04  0.16826978479E+04  0.00000000000E+00 0.  1.
         -1    1    6    6    0  502  0.20660964635E+02  0.18174009666E+02 -0.11057689121E+03  0.11394919463E+03  0.00000000000E+00 0.  1.
<mgrwt>
<rscale>  0 0.12652246E+04</rscale>
<asrwt>0</asrwt>
<pdfrwt beam="1">  1        2 0.62310428E+00 0.12652246E+04</pdfrwt>
<pdfrwt beam="2">  1       -2 0.15201547E-01 0.12652246E+04</pdfrwt>
<totfact> 0.10896669E+01</totfact>
</mgrwt>
</event>
<event>
12    1  0.1980523E-007  0.1785073E+04  0.7818608E-02  0.8714278E-01
          2   -1    0    0  501    0  0.00000000000E+00  0.00000000000E+00  0.99182404837E+03  0.99182404837E+03  0.00000000000E+00 0.  1.
         -2   -1    0    0    0  501 -0.00000000000E+00 -0.00000000000E+00 -0.80318865834E+03  0.80318865834E+03  0.00000000000E+00 0. -1.
         23    2    1    2    0    0  0.25303403466E+03 -0.47165827615E+03  0.45964616492E+03  0.71016259353E+03  0.81046654276E+02 0.  0.
        254    2    1    2    0    0 -0.25303403466E+03  0.47165827615E+03 -0.27101077489E+03  0.10848501132E+04  0.90386125916E+03 0.  0.
        -24    2    4    4    0    0 -0.97472613759E+02  0.71687097756E+03 -0.91151243984E+02  0.73369808282E+03  0.81236805396E+02 0.  0.
         24    2    4    4    0    0 -0.15556142090E+03 -0.24521270142E+03 -0.17985953091E+03  0.35115203036E+03  0.81422803657E+02 0.  0.
         11    1    3    3    0    0  0.16999603107E+03 -0.23145160993E+03  0.24680068293E+03  0.37865429539E+03  0.00000000000E+00 0. -1.
        -11    1    3    3    0    0  0.83038003589E+02 -0.24020666622E+03  0.21284548199E+03  0.33150829814E+03  0.00000000000E+00 0.  1.
          4    1    6    6  502    0 -0.16051368542E+03 -0.23667837826E+03 -0.18441970639E+03  0.34028212714E+03  0.00000000000E+00 0. -1.
          1    1    5    5  503    0 -0.45687778234E+02  0.50286142322E+03 -0.93413138582E+02  0.51350072882E+03  0.00000000000E+00 0. -1.
         -2    1    5    5    0  503 -0.51784835525E+02  0.21400955434E+03  0.22618945981E+01  0.22019735400E+03  0.00000000000E+00 0.  1.
         -3    1    6    6    0  502  0.49522645179E+01 -0.85343231554E+01  0.45601754818E+01  0.10869903219E+02  0.00000000000E+00 0.  1.
<mgrwt>
<rscale>  0 0.17850735E+04</rscale>
<asrwt>0</asrwt>
<pdfrwt beam="1">  1        2 0.15258831E+00 0.17850735E+04</pdfrwt>
<pdfrwt beam="2">  1       -2 0.12356749E+00 0.17850735E+04</pdfrwt>
<totfact> 0.11894321E+01</totfact>
</mgrwt>
</event>
<event>
12    1  0.1980523E-007  0.1254986E+04  0.7818608E-02  0.9066044E-01
          1   -1    0    0  501    0  0.00000000000E+00  0.00000000000E+00  0.59205112363E+03  0.59205112363E+03  0.00000000000E+00 0. -1.
         -1   -1    0    0    0  501 -0.00000000000E+00 -0.00000000000E+00 -0.66505632804E+03  0.66505632804E+03  0.00000000000E+00 0.  1.
         23    2    1    2    0    0 -0.24355785108E+03 -0.10903396070E+03 -0.12359741967E+03  0.30818607297E+03  0.92160197577E+02 0.  0.
        254    2    1    2    0    0  0.24355785108E+03  0.10903396070E+03  0.50592215258E+02  0.94892137870E+03  0.90922130381E+03 0.  0.
        -24    2    4    4    0    0  0.47890264179E+03 -0.96142074891E+02 -0.20573413912E+03  0.53598994820E+03  0.79797554376E+02 0.  0.
         24    2    4    4    0    0 -0.23534479072E+03  0.20517603559E+03  0.25632635438E+03  0.41293143050E+03  0.85584988468E+02 0.  0.
         11    1    3    3    0    0 -0.19590672222E+03 -0.51516756287E+02 -0.63402801757E+02  0.21225770954E+03  0.00000000000E+00 0. -1.
        -11    1    3    3    0    0 -0.47651128857E+02 -0.57517204409E+02 -0.60194617913E+02  0.95928363429E+02  0.00000000000E+00 0.  1.
          2    1    6    6  502    0 -0.17597382518E+03  0.16350768216E+03  0.14664686277E+03  0.28143711843E+03  0.00000000000E+00 0. -1.
          3    1    5    5  503    0  0.20160875934E+03 -0.67261553367E+02 -0.57193208898E+02  0.22009377898E+03  0.00000000000E+00 0. -1.
         -4    1    5    5    0  503  0.27729388246E+03 -0.28880521524E+02 -0.14854093022E+03  0.31589616921E+03  0.00000000000E+00 0.  1.
         -3    1    6    6    0  502 -0.59370965544E+02  0.41668353425E+02  0.10967949161E+03  0.13149431207E+03  0.00000000000E+00 0.  1.
<mgrwt>
<rscale>  0 0.12549858E+04</rscale>
<asrwt>0</asrwt>
<pdfrwt beam="1">  1        1 0.91084789E-01 0.12549858E+04</pdfrwt>
<pdfrwt beam="2">  1       -1 0.10231636E+00 0.12549858E+04</pdfrwt>
<totfact> 0.31136276E+01</totfact>
</mgrwt>
</event>
<event>
12    1  0.1980523E-007  0.2337332E+04  0.7818608E-02  0.8463345E-01
          2   -1    0    0  501    0  0.00000000000E+00  0.00000000000E+00  0.22376389765E+04  0.22376389765E+04  0.00000000000E+00 0. -1.
         -2   -1    0    0    0  501 -0.00000000000E+00 -0.00000000000E+00 -0.61036687747E+03  0.61036687747E+03  0.00000000000E+00 0.  1.
         23    2    1    2    0    0 -0.76087809455E+03  0.46552634434E+03  0.12225919270E+04  0.15160951006E+04  0.90349775666E+02 0.  0.
        254    2    1    2    0    0  0.76087809455E+03 -0.46552634434E+03  0.40468017198E+03  0.13319107534E+04  0.90253529642E+03 0.  0.
        -24    2    4    4    0    0  0.35339930169E+03 -0.61097150215E+03 -0.33215781488E+02  0.71225904175E+03  0.89623721937E+02 0.  0.
         24    2    4    4    0    0  0.40747879286E+03  0.14544515781E+03  0.43789595346E+03  0.61965171161E+03  0.70866896961E+02 0.  0.
         11    1    3    3    0    0 -0.34704817048E+03  0.25068190653E+03  0.53275512646E+03  0.68345583300E+03  0.00000000000E+00 0. -1.
        -11    1    3    3    0    0 -0.41382992407E+03  0.21484443781E+03  0.68983680059E+03  0.83263926761E+03  0.00000000000E+00 0.  1.
          2    1    6    6  502    0  0.93322755347E+02  0.51022928039E+02  0.14539390645E+03  0.18014400874E+03  0.00000000000E+00 0. -1.
          3    1    5    5  503    0  0.28849926485E+02 -0.42925977449E+02 -0.26246761872E+02  0.57998709528E+02  0.00000000000E+00 0. -1.
         -4    1    5    5    0  503  0.32454937521E+03 -0.56804552470E+03 -0.69690196152E+01  0.65426033222E+03  0.00000000000E+00 0.  1.
         -1    1    6    6    0  502  0.31415603751E+03  0.94422229769E+02  0.29250204702E+03  0.43950770288E+03  0.00000000000E+00 0.  1.
<mgrwt>
<rscale>  0 0.23373324E+04</rscale>
<asrwt>0</asrwt>
<pdfrwt beam="1">  1        2 0.34425215E+00 0.23373324E+04</pdfrwt>
<pdfrwt beam="2">  1       -2 0.93902597E-01 0.23373324E+04</pdfrwt>
<totfact> 0.42559528E+00</totfact>
</mgrwt>
</event>
<event>
12    1  0.1980523E-007  0.2542336E+04  0.7818608E-02  0.8388057E-01
          2   -1    0    0  501    0  0.00000000000E+00  0.00000000000E+00  0.21403483683E+04  0.21403483683E+04  0.00000000000E+00 0.  1.
         -2   -1    0    0    0  501 -0.00000000000E+00 -0.00000000000E+00 -0.75495535644E+03  0.75495535644E+03  0.00000000000E+00 0. -1.
         23    2    1    2    0    0 -0.11049196464E+04  0.14632574054E+00  0.49749885334E+03  0.12151952891E+04  0.91362110334E+02 0.  0.
        254    2    1    2    0    0  0.11049196464E+04 -0.14632574054E+00  0.88789415853E+03  0.16801084356E+04  0.90197609300E+03 0.  0.
        -24    2    4    4    0    0  0.74393501809E+02  0.25900767818E+03  0.44459558113E+03  0.52592237630E+03  0.79433901249E+02 0.  0.
         24    2    4    4    0    0  0.10305261446E+04 -0.25915400392E+03  0.44329857740E+03  0.11541860593E+04  0.80541283939E+02 0.  0.
         13    1    3    3    0    0 -0.45194358027E+03 -0.42748570732E+02  0.21872744011E+03  0.50390686947E+03  0.00000000000E+00 0. -1.
        -13    1    3    3    0    0 -0.65297606612E+03  0.42894896473E+02  0.27877141323E+03  0.71128841963E+03  0.00000000000E+00 0.  1.
          4    1    6    6  502    0  0.20605934734E+03 -0.24455799022E+02  0.10577106847E+03  0.23290783512E+03  0.00000000000E+00 0. -1.
          3    1    5    5  503    0 -0.64321453975E+00  0.25569544195E+02  0.98515502861E+02  0.10178172537E+03  0.00000000000E+00 0. -1.
         -4    1    5    5    0  503  0.75036716348E+02  0.23343813399E+03  0.34608007827E+03  0.42414065093E+03  0.00000000000E+00 0.  1.
         -3    1    6    6    0  502  0.82446679723E+03 -0.23469820490E+03  0.33752750893E+03  0.92127822421E+03  0.00000000000E+00 0.  1.
<mgrwt>
<rscale>  0 0.25423355E+04</rscale>
<asrwt>0</asrwt>
<pdfrwt beam="1">  1        2 0.32928436E+00 0.25423355E+04</pdfrwt>
<pdfrwt beam="2">  1       -2 0.11614698E+00 0.25423355E+04</pdfrwt>
<totfact> 0.28529335E+00</totfact>
</mgrwt>
</event>
<event>
12    1  0.1980523E-007  0.1718170E+04  0.7818608E-02  0.8751069E-01
         -2   -1    0    0    0  501 -0.00000000000E+00  0.00000000000E+00  0.14811063728E+04  0.14811063728E+04  0.00000000000E+00 0.  1.
          2   -1    0    0  501    0  0.00000000000E+00 -0.00000000000E+00 -0.49829438987E+03  0.49829438987E+03  0.00000000000E+00 0. -1.
         23    2    1    2    0    0 -0.27435763732E+03  0.23748753292E+02  0.99541503568E+03  0.10368276341E+04  0.91237783219E+02 0.  0.
        254    2    1    2    0    0  0.27435763732E+03 -0.23748753292E+02 -0.12603052747E+02  0.94257312860E+03  0.90135961158E+03 0.  0.
        -24    2    4    4    0    0  0.23772497816E+02 -0.17643559749E+03 -0.40433769134E+03  0.44772732950E+03  0.72637051387E+02 0.  0.
         24    2    4    4    0    0  0.25058513951E+03  0.15268684420E+03  0.39173463859E+03  0.49484579910E+03  0.72870798570E+02 0.  0.
         13    1    3    3    0    0 -0.16076016833E+03  0.35054700143E+01  0.41518304279E+03  0.44523373531E+03  0.00000000000E+00 0. -1.
        -13    1    3    3    0    0 -0.11359746899E+03  0.20243283278E+02  0.58023199289E+03  0.59159389877E+03  0.00000000000E+00 0.  1.
          2    1    6    6  502    0  0.11348504228E+03  0.62585883549E+02  0.11565821202E+03  0.17370281992E+03  0.00000000000E+00 0. -1.
          3    1    5    5  503    0 -0.23780595291E+02 -0.93692489623E+02 -0.21314951194E+03  0.23404382873E+03  0.00000000000E+00 0. -1.
         -4    1    5    5    0  503  0.47553093107E+02 -0.82743107864E+02 -0.19118817940E+03  0.21368350078E+03  0.00000000000E+00 0.  1.
         -1    1    6    6    0  502  0.13710009723E+03  0.90100960646E+02  0.27607642657E+03  0.32114297918E+03  0.00000000000E+00 0.  1.
<mgrwt>
<rscale>  0 0.17181700E+04</rscale>
<asrwt>0</asrwt>
<pdfrwt beam="1">  1        2 0.76660676E-01 0.17181700E+04</pdfrwt>
<pdfrwt beam="2">  1       -2 0.22786252E+00 0.17181700E+04</pdfrwt>
<totfact> 0.51772159E+00</totfact>
</mgrwt>
</event>
<event>
12    1  0.1980523E-007  0.1304974E+04  0.7818608E-02  0.9025630E-01
          2   -1    0    0  501    0  0.00000000000E+00  0.00000000000E+00  0.15897515011E+04  0.15897515011E+04  0.00000000000E+00 0. -1.
         -2   -1    0    0    0  501 -0.00000000000E+00 -0.00000000000E+00 -0.26780248681E+03  0.26780248681E+03  0.00000000000E+00 0.  1.
         23    2    1    2    0    0  0.61981859707E+02 -0.25085123364E+03  0.51840349717E+02  0.27912143539E+03  0.91941619959E+02 0.  0.
        254    2    1    2    0    0 -0.61981859707E+02  0.25085123364E+03  0.12701086646E+04  0.15784325526E+04  0.90083584004E+03 0.  0.
        -24    2    4    4    0    0 -0.16444862658E+03 -0.26430150263E+03  0.18436024753E+03  0.36964609816E+03  0.75834701385E+02 0.  0.
         24    2    4    4    0    0  0.10246676688E+03  0.51515273628E+03  0.10857484171E+04  0.12087864544E+04  0.80207774799E+02 0.  0.
         13    1    3    3    0    0  0.55867069294E+02 -0.67810349207E+02 -0.31019679580E+01  0.87914703527E+02  0.00000000000E+00 0.  1.
        -13    1    3    3    0    0  0.61147904133E+01 -0.18304088444E+03  0.54942317675E+02  0.19120673186E+03  0.00000000000E+00 0. -1.
          2    1    6    6  502    0  0.74430611729E+02  0.29854658360E+03  0.71661886553E+03  0.77987984779E+03  0.00000000000E+00 0. -1.
          3    1    5    5  503    0 -0.11449737436E+03 -0.12691406052E+03  0.72950007158E+02  0.18584544933E+03  0.00000000000E+00 0. -1.
         -4    1    5    5    0  503 -0.49951252224E+02 -0.13738744211E+03  0.11141024037E+03  0.18380064882E+03  0.00000000000E+00 0.  1.
         -1    1    6    6    0  502  0.28036155148E+02  0.21660615267E+03  0.36912955154E+03  0.42890660661E+03  0.00000000000E+00 0.  1.
<mgrwt>
<rscale>  0 0.13049742E+04</rscale>
<asrwt>0</asrwt>
<pdfrwt beam="1">  1        2 0.24457715E+00 0.13049742E+04</pdfrwt>
<pdfrwt beam="2">  1       -2 0.41200384E-01 0.13049742E+04</pdfrwt>
<totfact> 0.61768454E+01</totfact>
</mgrwt>
</event>
<event>
12    1  0.1980523E-007  0.2415128E+04  0.7818608E-02  0.8433861E-01
          2   -1    0    0  501    0  0.00000000000E+00  0.00000000000E+00  0.77720926954E+03  0.77720926954E+03  0.00000000000E+00 0. -1.
         -2   -1    0    0    0  501 -0.00000000000E+00 -0.00000000000E+00 -0.18762142991E+04  0.18762142991E+04  0.00000000000E+00 0.  1.
         23    2    1    2    0    0 -0.71603287144E+03 -0.53856495507E+03 -0.10575806067E+04  0.13892893962E+04  0.94302719070E+02 0.  0.
        254    2    1    2    0    0  0.71603287144E+03  0.53856495507E+03 -0.41424422904E+02  0.12641341725E+04  0.89082205826E+03 0.  0.
        -24    2    4    4    0    0  0.12426945609E+03  0.41658057904E+03  0.32878229918E+03  0.55104046972E+03  0.81027911625E+02 0.  0.
         24    2    4    4    0    0  0.59176341535E+03  0.12198437603E+03 -0.37020672208E+03  0.71309370279E+03  0.79909224379E+02 0.  0.
         11    1    3    3    0    0 -0.43396201500E+03 -0.26917821103E+03 -0.61431318721E+03  0.79884956765E+03  0.00000000000E+00 0. -1.
        -11    1    3    3    0    0 -0.28207085645E+03 -0.26938674405E+03 -0.44326741950E+03  0.59043982853E+03  0.00000000000E+00 0.  1.
          4    1    6    6  502    0  0.14647934144E+03  0.59571317166E+02 -0.73442850792E+02  0.17435249246E+03  0.00000000000E+00 0. -1.
          1    1    5    5  503    0  0.48305572846E+02  0.68438591630E+02  0.84694422190E+02  0.11912352556E+03  0.00000000000E+00 0. -1.
         -2    1    5    5    0  503  0.75963883246E+02  0.34814198741E+03  0.24408787699E+03  0.43191694416E+03  0.00000000000E+00 0.  1.
         -3    1    6    6    0  502  0.44528407391E+03  0.62413058866E+02 -0.29676387129E+03  0.53874121033E+03  0.00000000000E+00 0.  1.
<mgrwt>
<rscale>  0 0.24151283E+04</rscale>
<asrwt>0</asrwt>
<pdfrwt beam="1">  1        2 0.11957066E+00 0.24151283E+04</pdfrwt>
<pdfrwt beam="2">  1       -2 0.28864835E+00 0.24151283E+04</pdfrwt>
<totfact> 0.11989260E+00</totfact>
</mgrwt>
</event>
<event>
12    1  0.1980523E-007  0.3281806E+04  0.7818608E-02  0.8167540E-01
          2   -1    0    0  501    0  0.00000000000E+00  0.00000000000E+00  0.35546824789E+04  0.35546824789E+04  0.00000000000E+00 0. -1.
         -2   -1    0    0    0  501 -0.00000000000E+00 -0.00000000000E+00 -0.75746914441E+03  0.75746914441E+03  0.00000000000E+00 0.  1.
         23    2    1    2    0    0 -0.14815592213E+04  0.16274188923E+03  0.93342931905E+03  0.17610337132E+04  0.91906457144E+02 0.  0.
        254    2    1    2    0    0  0.14815592213E+04 -0.16274188923E+03  0.18637840155E+04  0.25511179101E+04  0.90167016488E+03 0.  0.
        -24    2    4    4    0    0  0.60647712801E+03 -0.28470941860E+03  0.13905590851E+04  0.15456130774E+04  0.79945330534E+02 0.  0.
         24    2    4    4    0    0  0.87508209326E+03  0.12196752937E+03  0.47322493031E+03  0.10055048327E+04  0.80332967963E+02 0.  0.
         11    1    3    3    0    0 -0.44718884210E+03  0.13709533864E+02  0.25279277628E+03  0.51387741686E+03  0.00000000000E+00 0. -1.
        -11    1    3    3    0    0 -0.10343703792E+04  0.14903235537E+03  0.68063654277E+03  0.12471562964E+04  0.00000000000E+00 0.  1.
          4    1    6    6  502    0  0.80225193763E+03  0.12976250470E+03  0.44834465551E+03  0.92814837670E+03  0.00000000000E+00 0. -1.
          1    1    5    5  503    0  0.51345164594E+03 -0.26114573705E+03  0.11392447627E+04  0.12766002969E+04  0.00000000000E+00 0. -1.
         -2    1    5    5    0  503  0.93025482065E+02 -0.23563681556E+02  0.25131432240E+03  0.26901278045E+03  0.00000000000E+00 0.  1.
         -3    1    6    6    0  502  0.72830155629E+02 -0.77949753233E+01  0.24880274804E+02  0.77356455992E+02  0.00000000000E+00 0.  1.
<mgrwt>
<rscale>  0 0.32818058E+04</rscale>
<asrwt>0</asrwt>
<pdfrwt beam="1">  1        2 0.54687422E+00 0.32818058E+04</pdfrwt>
<pdfrwt beam="2">  1       -2 0.11653372E+00 0.32818058E+04</pdfrwt>
<totfact> 0.35465635E-01</totfact>
</mgrwt>
</event>
<event>
12    1  0.1980523E-007  0.3438924E+04  0.7818608E-02  0.8128419E-01
          2   -1    0    0  501    0  0.00000000000E+00  0.00000000000E+00  0.14511004930E+04  0.14511004930E+04  0.00000000000E+00 0. -1.
         -2   -1    0    0    0  501 -0.00000000000E+00 -0.00000000000E+00 -0.20374531365E+04  0.20374531365E+04  0.00000000000E+00 0.  1.
         23    2    1    2    0    0  0.15721193898E+04 -0.20812294182E+03 -0.48784083438E+03  0.16617091451E+04  0.91728232163E+02 0.  0.
        254    2    1    2    0    0 -0.15721193898E+04  0.20812294182E+03 -0.98511809111E+02  0.18268444843E+04  0.90154404142E+03 0.  0.
        -24    2    4    4    0    0 -0.65305994983E+03  0.64942233762E+02 -0.48085136948E+03  0.81811563837E+03  0.85967240319E+02 0.  0.
         24    2    4    4    0    0 -0.91905943998E+03  0.14318070806E+03  0.38233956037E+03  0.10087288460E+04  0.78609006270E+02 0.  0.
         11    1    3    3    0    0  0.83820763523E+03 -0.15684107303E+03 -0.25680241972E+03  0.89058331711E+03  0.00000000000E+00 0. -1.
        -11    1    3    3    0    0  0.73391175458E+03 -0.51281868785E+02 -0.23103841466E+03  0.77112582801E+03  0.00000000000E+00 0.  1.
          4    1    6    6  502    0 -0.85777053433E+03  0.12709753881E+03  0.37567167037E+03  0.94501496171E+03  0.00000000000E+00 0. -1.
          3    1    5    5  503    0 -0.52849995889E+03  0.50103273513E+02 -0.42833983031E+03  0.68212722772E+03  0.00000000000E+00 0. -1.
         -2    1    5    5    0  503 -0.12455999094E+03  0.14838960248E+02 -0.52511539168E+02  0.13598841065E+03  0.00000000000E+00 0.  1.
         -3    1    6    6    0  502 -0.61288905646E+02  0.16083169245E+02  0.66678899957E+01  0.63713884242E+02  0.00000000000E+00 0.  1.
<mgrwt>
<rscale>  0 0.34389238E+04</rscale>
<asrwt>0</asrwt>
<pdfrwt beam="1">  1        2 0.22324623E+00 0.34389238E+04</pdfrwt>
<pdfrwt beam="2">  1       -2 0.31345433E+00 0.34389238E+04</pdfrwt>
<totfact> 0.29356078E-01</totfact>
</mgrwt>
</event>
<event>
12    1  0.1980523E-007  0.1648477E+04  0.7818608E-02  0.8791308E-01
         -2   -1    0    0    0  501 -0.00000000000E+00  0.00000000000E+00  0.33599875641E+03  0.33599875641E+03  0.00000000000E+00 0.  1.
          2   -1    0    0  501    0  0.00000000000E+00 -0.00000000000E+00 -0.20219381882E+04  0.20219381882E+04  0.00000000000E+00 0. -1.
         23    2    1    2    0    0  0.39887035726E+03  0.41235630073E+03 -0.56021200262E+03  0.80698702652E+03  0.90858639822E+02 0.  0.
        254    2    1    2    0    0 -0.39887035726E+03 -0.41235630073E+03 -0.11257274292E+04  0.15509499181E+04  0.89947102396E+03 0.  0.
        -24    2    4    4    0    0 -0.60053175672E+03 -0.50682286701E+03 -0.10242348831E+04  0.12933461028E+04  0.78608119790E+02 0.  0.
         24    2    4    4    0    0  0.20166139946E+03  0.94466566280E+02 -0.10149254606E+03  0.25760381528E+03  0.80422239225E+02 0.  0.
         13    1    3    3    0    0  0.25983739020E+03  0.23307209988E+03 -0.28727191352E+03  0.45206551006E+03  0.00000000000E+00 0.  1.
        -13    1    3    3    0    0  0.13903296706E+03  0.17928420085E+03 -0.27294008910E+03  0.35492151646E+03  0.00000000000E+00 0. -1.
          4    1    6    6  502    0  0.14881012937E+03  0.39584409343E+02 -0.95457493590E+02  0.18117260595E+03  0.00000000000E+00 0. -1.
          3    1    5    5  503    0 -0.21461828324E+03 -0.17732017145E+03 -0.30290274612E+03  0.41140433191E+03  0.00000000000E+00 0. -1.
         -4    1    5    5    0  503 -0.38591347348E+03 -0.32950269556E+03 -0.72133213697E+03  0.88194177088E+03  0.00000000000E+00 0.  1.
         -3    1    6    6    0  502  0.52851270095E+02  0.54882156937E+02 -0.60350524754E+01  0.76431209326E+02  0.00000000000E+00 0.  1.
<mgrwt>
<rscale>  0 0.16484765E+04</rscale>
<asrwt>0</asrwt>
<pdfrwt beam="1">  1        2 0.31106741E+00 0.16484765E+04</pdfrwt>
<pdfrwt beam="2">  1       -2 0.51692117E-01 0.16484765E+04</pdfrwt>
<totfact> 0.21940729E+01</totfact>
</mgrwt>
</event>
<event>
12    1  0.1980523E-007  0.1735626E+04  0.7818608E-02  0.8741302E-01
         -2   -1    0    0    0  501 -0.00000000000E+00  0.00000000000E+00  0.83916189668E+03  0.83916189668E+03  0.00000000000E+00 0.  1.
          2   -1    0    0  501    0  0.00000000000E+00 -0.00000000000E+00 -0.89744242081E+03  0.89744242081E+03  0.00000000000E+00 0. -1.
         23    2    1    2    0    0 -0.17658581547E+03 -0.60322440033E+03 -0.48869529342E+02  0.63710739040E+03  0.91953078390E+02 0.  0.
        254    2    1    2    0    0  0.17658581547E+03  0.60322440033E+03 -0.94109947874E+01  0.10994969271E+04  0.90207688056E+03 0.  0.
        -24    2    4    4    0    0  0.25062395952E+03  0.33158353662E+03  0.40927706015E+03  0.58868366225E+03  0.79251065546E+02 0.  0.
         24    2    4    4    0    0 -0.74038144044E+02  0.27164086372E+03 -0.41868805494E+03  0.51081326483E+03  0.79750226124E+02 0.  0.
         11    1    3    3    0    0 -0.14099588235E+03 -0.53234247310E+03 -0.15106782345E+02  0.55090522086E+03  0.00000000000E+00 0.  1.
        -11    1    3    3    0    0 -0.35589933128E+02 -0.70881927238E+02 -0.33762746997E+02  0.86202169543E+02  0.00000000000E+00 0. -1.
          4    1    6    6  502    0 -0.79648978435E+02  0.16070201996E+03 -0.28814326721E+03  0.33940483411E+03  0.00000000000E+00 0. -1.
          1    1    5    5  503    0  0.14391811849E+03  0.25088895172E+03  0.28613188942E+03  0.40685273634E+03  0.00000000000E+00 0. -1.
         -2    1    5    5    0  503  0.10670584103E+03  0.80694584897E+02  0.12314517073E+03  0.18183092590E+03  0.00000000000E+00 0.  1.
         -3    1    6    6    0  502  0.56108343901E+01  0.11093884376E+03 -0.13054478773E+03  0.17140843072E+03  0.00000000000E+00 0.  1.
<mgrwt>
<rscale>  0 0.17356261E+04</rscale>
<asrwt>0</asrwt>
<pdfrwt beam="1">  1        2 0.13806806E+00 0.17356261E+04</pdfrwt>
<pdfrwt beam="2">  1       -2 0.12910183E+00 0.17356261E+04</pdfrwt>
<totfact> 0.12345854E+01</totfact>
</mgrwt>
</event>
<event>
12    1  0.1980523E-007  0.2615730E+04  0.7818608E-02  0.8362878E-01
         -2   -1    0    0    0  501 -0.00000000000E+00  0.00000000000E+00  0.19620091252E+04  0.19620091252E+04  0.00000000000E+00 0.  1.
          2   -1    0    0  501    0  0.00000000000E+00 -0.00000000000E+00 -0.87181585599E+03  0.87181585599E+03  0.00000000000E+00 0. -1.
         23    2    1    2    0    0  0.10760623263E+04  0.40754970438E+03  0.46574316221E+03  0.12446854099E+04  0.91204083746E+02 0.  0.
        254    2    1    2    0    0 -0.10760623263E+04 -0.40754970438E+03  0.62445010700E+03  0.15891395713E+04  0.90078840436E+03 0.  0.
        -24    2    4    4    0    0 -0.11712964053E+04 -0.51558294518E+03  0.47769467067E+03  0.13682938637E+04  0.79213991384E+02 0.  0.
         24    2    4    4    0    0  0.95234079091E+02  0.10803324079E+03  0.14675543633E+03  0.22084570763E+03  0.80591299484E+02 0.  0.
         11    1    3    3    0    0  0.37368940660E+03  0.15864765383E+03  0.20834077045E+03  0.45630990270E+03  0.00000000000E+00 0. -1.
        -11    1    3    3    0    0  0.70237291966E+03  0.24890205056E+03  0.25740239175E+03  0.78837550718E+03  0.00000000000E+00 0.  1.
          2    1    6    6  502    0  0.10474172378E+03  0.89745247418E+02  0.14505341569E+03  0.20016376180E+03  0.00000000000E+00 0. -1.
          1    1    5    5  503    0 -0.36071976992E+03 -0.13620587095E+03  0.11217684572E+03  0.40156498404E+03  0.00000000000E+00 0. -1.
         -2    1    5    5    0  503 -0.81057663543E+03 -0.37937707423E+03  0.36551782495E+03  0.96672887963E+03  0.00000000000E+00 0.  1.
         -1    1    6    6    0  502 -0.95076446896E+01  0.18287993376E+02  0.17020206364E+01  0.20681945834E+02  0.00000000000E+00 0.  1.
<mgrwt>
<rscale>  0 0.26157299E+04</rscale>
<asrwt>0</asrwt>
<pdfrwt beam="1">  1        2 0.13412552E+00 0.26157299E+04</pdfrwt>
<pdfrwt beam="2">  1       -2 0.30184756E+00 0.26157299E+04</pdfrwt>
<totfact> 0.83857283E-01</totfact>
</mgrwt>
</event>
<event>
12    1  0.1980523E-007  0.1010421E+04  0.7818608E-02  0.9297189E-01
          1   -1    0    0  501    0  0.00000000000E+00  0.00000000000E+00  0.32777621015E+03  0.32777621015E+03  0.00000000000E+00 0. -1.
         -1   -1    0    0    0  501 -0.00000000000E+00 -0.00000000000E+00 -0.77869418682E+03  0.77869418682E+03  0.00000000000E+00 0.  1.
         23    2    1    2    0    0 -0.44066491512E+02  0.77092904578E+01 -0.10013341837E+03  0.14197860538E+03  0.90166147078E+02 0.  0.
        254    2    1    2    0    0  0.44066491512E+02 -0.77092904578E+01 -0.35078455830E+03  0.96449179159E+03  0.89732564929E+03 0.  0.
        -24    2    4    4    0    0 -0.22106344397E+02 -0.16698275842E+03 -0.61253863889E+03  0.64035793284E+03  0.80515625440E+02 0.  0.
         24    2    4    4    0    0  0.66172835909E+02  0.15927346796E+03  0.26175408059E+03  0.32413385876E+03  0.82466222634E+02 0.  0.
         13    1    3    3    0    0 -0.27125983823E+02  0.47335975021E+02 -0.38505378729E+02  0.66777074814E+02  0.00000000000E+00 0. -1.
        -13    1    3    3    0    0 -0.16940507689E+02 -0.39626684563E+02 -0.61628039640E+02  0.75201530571E+02  0.00000000000E+00 0.  1.
          4    1    6    6  502    0 -0.13790996143E+02  0.55231429293E+01  0.80708940840E+01  0.16906685475E+02  0.00000000000E+00 0. -1.
          1    1    5    5  503    0  0.22545973647E+02 -0.24904975702E+02 -0.68370679159E+02  0.76178267971E+02  0.00000000000E+00 0. -1.
         -2    1    5    5    0  503 -0.44652318044E+02 -0.14207778271E+03 -0.54416795973E+03  0.56417966486E+03  0.00000000000E+00 0.  1.
         -3    1    6    6    0  502  0.79963832053E+02  0.15375032503E+03  0.25368318651E+03  0.30722717328E+03  0.00000000000E+00 0.  1.
<mgrwt>
<rscale>  0 0.10104206E+04</rscale>
<asrwt>0</asrwt>
<pdfrwt beam="1">  1        1 0.50427109E-01 0.10104206E+04</pdfrwt>
<pdfrwt beam="2">  1       -1 0.11979911E+00 0.10104206E+04</pdfrwt>
<totfact> 0.48650322E+01</totfact>
</mgrwt>
</event>
<event>
12    1  0.1980523E-007  0.2912552E+04  0.7818608E-02  0.8269153E-01
         -2   -1    0    0    0  501 -0.00000000000E+00  0.00000000000E+00  0.10782500130E+04  0.10782500130E+04  0.00000000000E+00 0.  1.
          2   -1    0    0  501    0  0.00000000000E+00 -0.00000000000E+00 -0.19668348279E+04  0.19668348279E+04  0.00000000000E+00 0. -1.
         23    2    1    2    0    0 -0.11649784052E+04 -0.27885183643E+03  0.16490466283E+03  0.12124263298E+04  0.88606015375E+02 0.  0.
        254    2    1    2    0    0  0.11649784052E+04  0.27885183643E+03 -0.10534894777E+04  0.18326585112E+04  0.90214417235E+03 0.  0.
        -24    2    4    4    0    0  0.63111960783E+03  0.46736183579E+03 -0.97699135134E+03  0.12559658243E+04  0.78733768280E+02 0.  0.
         24    2    4    4    0    0  0.53385879740E+03 -0.18850999937E+03 -0.76498126387E+02  0.57669268691E+03  0.78620966509E+02 0.  0.
         13    1    3    3    0    0 -0.10418284654E+04 -0.27535765348E+03  0.15691884655E+03  0.10889682792E+04  0.00000000000E+00 0.  1.
        -13    1    3    3    0    0 -0.12314993979E+03 -0.34941829436E+01  0.79858162736E+01  0.12345805055E+03  0.00000000000E+00 0. -1.
          4    1    6    6  502    0  0.16749152990E+03 -0.46903707084E+02  0.11003386461E+02  0.17428265789E+03  0.00000000000E+00 0. -1.
          3    1    5    5  503    0  0.20014935968E+03  0.14917542589E+03 -0.37069010885E+03  0.44690516966E+03  0.00000000000E+00 0. -1.
         -4    1    5    5    0  503  0.43097024815E+03  0.31818640991E+03 -0.60630124249E+03  0.80906065464E+03  0.00000000000E+00 0.  1.
         -3    1    6    6    0  502  0.36636726750E+03 -0.14160629228E+03 -0.87501512848E+02  0.40241002902E+03  0.00000000000E+00 0.  1.
<mgrwt>
<rscale>  0 0.29125519E+04</rscale>
<asrwt>0</asrwt>
<pdfrwt beam="1">  1        2 0.30258997E+00 0.29125519E+04</pdfrwt>
<pdfrwt beam="2">  1       -2 0.16588462E+00 0.29125519E+04</pdfrwt>
<totfact> 0.13712617E+00</totfact>
</mgrwt>
</event>
<event>
12    1  0.1980523E-007  0.4719035E+04  0.7818608E-02  0.7873374E-01
          1   -1    0    0  501    0  0.00000000000E+00  0.00000000000E+00  0.21896178479E+04  0.21896178479E+04  0.00000000000E+00 0. -1.
         -1   -1    0    0    0  501 -0.00000000000E+00 -0.00000000000E+00 -0.25425998149E+04  0.25425998149E+04  0.00000000000E+00 0.  1.
         23    2    1    2    0    0 -0.79455632393E+03 -0.32274745043E+03 -0.22788163163E+04  0.24365471705E+04  0.90954064589E+02 0.  0.
        254    2    1    2    0    0  0.79455632393E+03  0.32274745043E+03  0.19258343494E+04  0.22956704924E+04  0.90872405035E+03 0.  0.
        -24    2    4    4    0    0  0.17171745890E+02  0.32517806794E+03  0.17500305761E+03  0.37828227817E+03  0.80223232809E+02 0.  0.
         24    2    4    4    0    0  0.77738457804E+03 -0.24306175150E+01  0.17508312918E+04  0.19173882142E+04  0.81453432354E+02 0.  0.
         13    1    3    3    0    0 -0.45951240333E+03 -0.14886914111E+03 -0.13590337800E+04  0.14423198277E+04  0.00000000000E+00 0.  1.
        -13    1    3    3    0    0 -0.33504392060E+03 -0.17387830932E+03 -0.91978253629E+03  0.99422734284E+03  0.00000000000E+00 0. -1.
          2    1    6    6  502    0  0.87777974008E+02  0.25701301548E+02  0.20561193649E+03  0.22503732590E+03  0.00000000000E+00 0. -1.
          1    1    5    5  503    0 -0.20424189657E+02  0.23428867770E+02  0.12486286291E+02  0.33495771576E+02  0.00000000000E+00 0. -1.
         -2    1    5    5    0  503  0.37595935547E+02  0.30174920017E+03  0.16251677131E+03  0.34478650660E+03  0.00000000000E+00 0.  1.
         -1    1    6    6    0  502  0.68960660403E+03 -0.28131919063E+02  0.15452193553E+04  0.16923508883E+04  0.00000000000E+00 0.  1.
<mgrwt>
<rscale>  0 0.47190346E+04</rscale>
<asrwt>0</asrwt>
<pdfrwt beam="1">  1        1 0.33686429E+00 0.47190346E+04</pdfrwt>
<pdfrwt beam="2">  1       -1 0.39116920E+00 0.47190346E+04</pdfrwt>
<totfact> 0.13434714E-02</totfact>
</mgrwt>
</event>
<event>
12    1  0.4081215E-007  0.2407622E+04  0.7818608E-02  0.8436656E-01
         -1   -1    0    0    0  501 -0.00000000000E+00  0.00000000000E+00  0.86265430394E+03  0.86265430394E+03  0.00000000000E+00 0.  1.
          1   -1    0    0  501    0  0.00000000000E+00 -0.00000000000E+00 -0.16798858018E+04  0.16798858018E+04  0.00000000000E+00 0. -1.
         23    2    1    2    0    0 -0.82758830702E+03  0.42076040364E+03  0.12664022454E+03  0.94142350361E+03  0.91097439494E+02 0.  0.
        254    2    1    2    0    0  0.82758830702E+03 -0.42076040364E+03 -0.94387172241E+03  0.16011166021E+04  0.90041036315E+03 0.  0.
        -24    2    4    4    0    0  0.84320766958E+03 -0.57441392940E+03 -0.52968602467E+03  0.11523979331E+04  0.80642265847E+02 0.  0.
         24    2    4    4    0    0 -0.15619362560E+02  0.15365352576E+03 -0.41418569774E+03  0.44871866908E+03  0.77105650256E+02 0.  0.
         13    1    3    3    0    0 -0.27427113768E+03  0.13267851562E+03 -0.10022017244E+01  0.30467892918E+03  0.00000000000E+00 0. -1.
        -13    1    3    3    0    0 -0.55331716934E+03  0.28808188801E+03  0.12764242627E+03  0.63674457443E+03  0.00000000000E+00 0.  1.
          4    1    6    6  502    0  0.59157996579E+01  0.61669951358E+01 -0.16392566729E-01  0.85456879953E+01  0.00000000000E+00 0. -1.
          1    1    5    5  503    0  0.80998193936E+01 -0.16326818077E+02 -0.37399700986E+01  0.18605360493E+02  0.00000000000E+00 0. -1.
         -2    1    5    5    0  503  0.83510785019E+03 -0.55808711133E+03 -0.52594605457E+03  0.11337925726E+04  0.00000000000E+00 0.  1.
         -3    1    6    6    0  502 -0.21535162218E+02  0.14748653063E+03 -0.41416930518E+03  0.44017298109E+03  0.00000000000E+00 0.  1.
<mgrwt>
<rscale>  0 0.24076218E+04</rscale>
<asrwt>0</asrwt>
<pdfrwt beam="1">  1        1 0.25844397E+00 0.24076218E+04</pdfrwt>
<pdfrwt beam="2">  1       -1 0.13271605E+00 0.24076218E+04</pdfrwt>
<totfact> 0.21197455E+00</totfact>
</mgrwt>
</event>
<event>
12    1  0.1980523E-007  0.3763226E+04  0.7818608E-02  0.8054093E-01
         -2   -1    0    0    0  501 -0.00000000000E+00  0.00000000000E+00  0.28902021925E+04  0.28902021925E+04  0.00000000000E+00 0. -1.
          2   -1    0    0  501    0  0.00000000000E+00 -0.00000000000E+00 -0.12249895201E+04  0.12249895201E+04  0.00000000000E+00 0.  1.
         23    2    1    2    0    0  0.16158885635E+04  0.20839396402E+03  0.15524928512E+04  0.22523508867E+04  0.91250040619E+02 0.  0.
        254    2    1    2    0    0 -0.16158885635E+04 -0.20839396402E+03  0.11271982126E+03  0.18628408259E+04  0.89607270384E+03 0.  0.
        -24    2    4    4    0    0 -0.45466700084E+03 -0.14883256918E+03 -0.36132947628E+03  0.60467658679E+03  0.78750040498E+02 0.  0.
         24    2    4    4    0    0 -0.11612215627E+04 -0.59561394841E+02  0.47404929754E+03  0.12581642391E+04  0.79192415564E+02 0.  0.
         11    1    3    3    0    0  0.10567051213E+04  0.99887054027E+02  0.97656708438E+03  0.14423198006E+04  0.00000000000E+00 0. -1.
        -11    1    3    3    0    0  0.55918344223E+03  0.10850691000E+03  0.57592576680E+03  0.81003108609E+03  0.00000000000E+00 0.  1.
          4    1    6    6  502    0 -0.39592484243E+03 -0.31136848596E+02  0.12336967350E+03  0.41586784023E+03  0.00000000000E+00 0. -1.
          1    1    5    5  503    0 -0.30841612412E+03 -0.10540403511E+03 -0.28997429562E+03  0.43625177176E+03  0.00000000000E+00 0. -1.
         -2    1    5    5    0  503 -0.14625087672E+03 -0.43428534074E+02 -0.71355180652E+02  0.16842481503E+03  0.00000000000E+00 0.  1.
         -3    1    6    6    0  502 -0.76529672027E+03 -0.28424546246E+02  0.35067962404E+03  0.84229639890E+03  0.00000000000E+00 0.  1.
<mgrwt>
<rscale>  0 0.37632260E+04</rscale>
<asrwt>0</asrwt>
<pdfrwt beam="1">  1        2 0.18845993E+00 0.37632260E+04</pdfrwt>
<pdfrwt beam="2">  1       -2 0.44464649E+00 0.37632260E+04</pdfrwt>
<totfact> 0.55393381E-02</totfact>
</mgrwt>
</event>
<event>
12    1  0.1980523E-007  0.1574113E+04  0.7818608E-02  0.8836611E-01
          2   -1    0    0  501    0  0.00000000000E+00  0.00000000000E+00  0.13902336751E+04  0.13902336751E+04  0.00000000000E+00 0.  1.
         -2   -1    0    0    0  501 -0.00000000000E+00 -0.00000000000E+00 -0.44557815189E+03  0.44557815189E+03  0.00000000000E+00 0. -1.
         23    2    1    2    0    0 -0.40702750310E+03 -0.29751332888E+03  0.47293256781E+03  0.69748297548E+03  0.92907040902E+02 0.  0.
        254    2    1    2    0    0  0.40702750310E+03  0.29751332888E+03  0.47172295538E+03  0.11383288515E+04  0.90503284932E+03 0.  0.
        -24    2    4    4    0    0  0.68689003650E+03  0.26304056693E+03  0.37341545603E+03  0.82942152974E+03  0.86560436118E+02 0.  0.
         24    2    4    4    0    0 -0.27986253340E+03  0.34472761948E+02  0.98307499346E+02  0.30890732174E+03  0.79044038865E+02 0.  0.
         13    1    3    3    0    0 -0.63512234086E+02 -0.14890721112E+02  0.85776567771E+02  0.10776435882E+03  0.00000000000E+00 0.  1.
        -13    1    3    3    0    0 -0.34351526901E+03 -0.28262260777E+03  0.38715600004E+03  0.58971861666E+03  0.00000000000E+00 0. -1.
          2    1    6    6  502    0 -0.18149451604E+02  0.79810172126E+01  0.31973669213E+02  0.37621998249E+02  0.00000000000E+00 0. -1.
          3    1    5    5  503    0  0.46070397203E+03  0.19908005985E+03  0.21514551483E+03  0.54604817794E+03  0.00000000000E+00 0. -1.
         -4    1    5    5    0  503  0.22618606447E+03  0.63960507086E+02  0.15826994120E+03  0.28337335181E+03  0.00000000000E+00 0.  1.
         -1    1    6    6    0  502 -0.26171308179E+03  0.26491744735E+02  0.66333830133E+02  0.27128532349E+03  0.00000000000E+00 0.  1.
<mgrwt>
<rscale>  0 0.15741128E+04</rscale>
<asrwt>0</asrwt>
<pdfrwt beam="1">  1        2 0.21388210E+00 0.15741128E+04</pdfrwt>
<pdfrwt beam="2">  1       -2 0.68550486E-01 0.15741128E+04</pdfrwt>
<totfact> 0.27403384E+01</totfact>
</mgrwt>
</event>
<event>
12    1  0.2180335E-007  0.3064903E+04  0.7818608E-02  0.8225436E-01
         -1   -1    0    0    0  501 -0.00000000000E+00  0.00000000000E+00  0.14197628374E+04  0.14197628374E+04  0.00000000000E+00 0.  1.
          1   -1    0    0  501    0  0.00000000000E+00 -0.00000000000E+00 -0.16540848714E+04  0.16540848714E+04  0.00000000000E+00 0. -1.
         23    2    1    2    0    0 -0.12388346829E+04  0.59563064219E+03  0.14922819270E+03  0.13858367496E+04  0.93740117549E+02 0.  0.
        254    2    1    2    0    0  0.12388346829E+04 -0.59563064219E+03 -0.38355022675E+03  0.16880109592E+04  0.90154477906E+03 0.  0.
        -24    2    4    4    0    0  0.73358345541E+03 -0.63775391752E+03  0.10264909692E+03  0.98100211757E+03  0.83388081916E+02 0.  0.
         24    2    4    4    0    0  0.50525122747E+03  0.42123275327E+02 -0.48619932367E+03  0.70700884167E+03  0.80115832934E+02 0.  0.
         13    1    3    3    0    0 -0.88555187183E+03  0.37970988001E+03  0.11549920255E+03  0.97042350367E+03  0.00000000000E+00 0.  1.
        -13    1    3    3    0    0 -0.35328281104E+03  0.21592076219E+03  0.33728990147E+02  0.41541324594E+03  0.00000000000E+00 0. -1.
          4    1    6    6  502    0  0.62707930537E+02  0.25514764365E+02 -0.91269177139E+02  0.11363692379E+03  0.00000000000E+00 0. -1.
          1    1    5    5  503    0  0.46149401233E+03 -0.35995610699E+03  0.35068454480E+02  0.58632322048E+03  0.00000000000E+00 0. -1.
         -2    1    5    5    0  503  0.27208944308E+03 -0.27779781053E+03  0.67580642436E+02  0.39467889709E+03  0.00000000000E+00 0.  1.
         -3    1    6    6    0  502  0.44254329693E+03  0.16608510962E+02 -0.39493014653E+03  0.59337191788E+03  0.00000000000E+00 0.  1.
<mgrwt>
<rscale>  0 0.30649034E+04</rscale>
<asrwt>0</asrwt>
<pdfrwt beam="1">  1        1 0.25447460E+00 0.30649034E+04</pdfrwt>
<pdfrwt beam="2">  1       -1 0.21842505E+00 0.30649034E+04</pdfrwt>
<totfact> 0.48897259E-01</totfact>
</mgrwt>
</event>
<event>
12    1  0.1980523E-007  0.2314812E+04  0.7818608E-02  0.8472104E-01
         -1   -1    0    0    0  501 -0.00000000000E+00  0.00000000000E+00  0.11974799837E+04  0.11974799837E+04  0.00000000000E+00 0.  1.
          1   -1    0    0  501    0  0.00000000000E+00 -0.00000000000E+00 -0.11186727629E+04  0.11186727629E+04  0.00000000000E+00 0. -1.
         23    2    1    2    0    0  0.31076252095E+03  0.92634986703E+03 -0.24288066155E+02  0.98097300926E+03  0.83789701972E+02 0.  0.
        254    2    1    2    0    0 -0.31076252095E+03 -0.92634986703E+03  0.10309528691E+03  0.13351797374E+04  0.90409007979E+03 0.  0.
        -24    2    4    4    0    0 -0.33396706914E+03 -0.70340680705E+03  0.45935570910E+03  0.90701022033E+03  0.73107679711E+02 0.  0.
         24    2    4    4    0    0  0.23204548185E+02 -0.22294305998E+03 -0.35626042219E+03  0.42816951706E+03  0.78521257411E+02 0.  0.
         11    1    3    3    0    0  0.27633366320E+02  0.17345499253E+03  0.94324294971E+01  0.17589544649E+03  0.00000000000E+00 0. -1.
        -11    1    3    3    0    0  0.28312915463E+03  0.75289487450E+03 -0.33720495652E+02  0.80507756277E+03  0.00000000000E+00 0.  1.
          2    1    6    6  502    0  0.86208281263E+01 -0.20875764960E+03 -0.34862326911E+03  0.40643850545E+03  0.00000000000E+00 0. -1.
          3    1    5    5  503    0 -0.32146859851E+03 -0.69488468989E+03  0.44230984386E+03  0.88421987652E+03  0.00000000000E+00 0. -1.
         -4    1    5    5    0  503 -0.12498470629E+02 -0.85221171615E+01  0.17045865246E+02  0.22790343810E+02  0.00000000000E+00 0.  1.
         -1    1    6    6    0  502  0.14583720058E+02 -0.14185410379E+02 -0.76371530819E+01  0.21731011609E+02  0.00000000000E+00 0.  1.
<mgrwt>
<rscale>  0 0.23148116E+04</rscale>
<asrwt>0</asrwt>
<pdfrwt beam="1">  1        1 0.17210350E+00 0.23148116E+04</pdfrwt>
<pdfrwt beam="2">  1       -1 0.18422769E+00 0.23148116E+04</pdfrwt>
<totfact> 0.21511006E+00</totfact>
</mgrwt>
</event>
<event>
12    1  0.1980523E-007  0.2036924E+04  0.7818608E-02  0.8589549E-01
         -2   -1    0    0    0  501 -0.00000000000E+00  0.00000000000E+00  0.55489461684E+03  0.55489461684E+03  0.00000000000E+00 0.  1.
          2   -1    0    0  501    0  0.00000000000E+00 -0.00000000000E+00 -0.18693013707E+04  0.18693013707E+04  0.00000000000E+00 0. -1.
         23    2    1    2    0    0 -0.67533420665E+03  0.44980093448E+03 -0.41588350236E+03  0.91609138841E+03  0.88697085941E+02 0.  0.
        254    2    1    2    0    0  0.67533420665E+03 -0.44980093448E+03 -0.89852325152E+03  0.15081045991E+04  0.89924316907E+03 0.  0.
        -24    2    4    4    0    0 -0.18955345445E+03 -0.20847879865E+03 -0.33666570388E+03  0.44583914724E+03  0.77684151921E+02 0.  0.
         24    2    4    4    0    0  0.86488766111E+03 -0.24132213582E+03 -0.56185754764E+03  0.10622654519E+04  0.80355129900E+02 0.  0.
         13    1    3    3    0    0 -0.29860341171E+03  0.14763081637E+03 -0.17983129405E+03  0.37854742074E+03  0.00000000000E+00 0. -1.
        -13    1    3    3    0    0 -0.37673079494E+03  0.30217011811E+03 -0.23605220831E+03  0.53754396767E+03  0.00000000000E+00 0.  1.
          2    1    6    6  502    0  0.64286872289E+03 -0.20337681355E+03 -0.45122311460E+03  0.81132276087E+03  0.00000000000E+00 0. -1.
          1    1    5    5  503    0 -0.13456524521E+03 -0.93218542623E+02 -0.17187323853E+03  0.23735608699E+03  0.00000000000E+00 0. -1.
         -2    1    5    5    0  503 -0.54988209242E+02 -0.11526025603E+03 -0.16479246535E+03  0.20848306026E+03  0.00000000000E+00 0.  1.
         -1    1    6    6    0  502  0.22201893822E+03 -0.37945322274E+02 -0.11063443304E+03  0.25094269103E+03  0.00000000000E+00 0.  1.
<mgrwt>
<rscale>  0 0.20369244E+04</rscale>
<asrwt>0</asrwt>
<pdfrwt beam="1">  1        2 0.28758483E+00 0.20369244E+04</pdfrwt>
<pdfrwt beam="2">  1       -2 0.85368401E-01 0.20369244E+04</pdfrwt>
<totfact> 0.87270642E+00</totfact>
</mgrwt>
</event>
<event>
12    1  0.1980523E-007  0.1144085E+04  0.7818608E-02  0.9163258E-01
          2   -1    0    0  501    0  0.00000000000E+00  0.00000000000E+00  0.39160419757E+04  0.39160419757E+04  0.00000000000E+00 0. -1.
         -2   -1    0    0    0  501 -0.00000000000E+00 -0.00000000000E+00 -0.83562113434E+02  0.83562113434E+02  0.00000000000E+00 0.  1.
         23    2    1    2    0    0 -0.14882276078E+03  0.13660286914E+03  0.81442414730E+03  0.84397672365E+03  0.90561914558E+02 0.  0.
        254    2    1    2    0    0  0.14882276078E+03 -0.13660286914E+03  0.30180557150E+04  0.31556273655E+04  0.89917474008E+03 0.  0.
        -24    2    4    4    0    0 -0.47969009236E+02 -0.13193192770E+03  0.35017843058E+02  0.16481084505E+03  0.78925952133E+02 0.  0.
         24    2    4    4    0    0  0.19679177001E+03 -0.46709414446E+01  0.29830378719E+04  0.29908165204E+04  0.87861796275E+02 0.  0.
         13    1    3    3    0    0 -0.62820909483E+02  0.78926310163E+02  0.24071456815E+03  0.26099680539E+03  0.00000000000E+00 0.  1.
        -13    1    3    3    0    0 -0.86001851293E+02  0.57676558980E+02  0.57370957915E+03  0.58297991826E+03  0.00000000000E+00 0. -1.
          4    1    6    6  502    0  0.14078507754E+01  0.83449617359E+01  0.49923938869E+03  0.49931111308E+03  0.00000000000E+00 0. -1.
          3    1    5    5  503    0  0.50729551402E-01  0.77483403429E+01  0.13475155596E+02  0.15544104024E+02  0.00000000000E+00 0. -1.
         -4    1    5    5    0  503 -0.48019738788E+02 -0.13968026804E+03  0.21542687462E+02  0.14926674103E+03  0.00000000000E+00 0.  1.
         -3    1    6    6    0  502  0.19538391924E+03 -0.13015903180E+02  0.24837984832E+04  0.24915054074E+04  0.00000000000E+00 0.  1.
<mgrwt>
<rscale>  0 0.11440852E+04</rscale>
<asrwt>0</asrwt>
<pdfrwt beam="1">  1        2 0.60246785E+00 0.11440852E+04</pdfrwt>
<pdfrwt beam="2">  1       -2 0.12855713E-01 0.11440852E+04</pdfrwt>
<totfact> 0.18757679E+01</totfact>
</mgrwt>
</event>
<event>
12    1  0.1980523E-007  0.3617676E+04  0.7818608E-02  0.8086455E-01
         -2   -1    0    0    0  501 -0.00000000000E+00  0.00000000000E+00  0.13604999968E+04  0.13604999968E+04  0.00000000000E+00 0.  1.
          2   -1    0    0  501    0  0.00000000000E+00 -0.00000000000E+00 -0.24049208512E+04  0.24049208512E+04  0.00000000000E+00 0. -1.
         23    2    1    2    0    0  0.34685148300E+03  0.11037030416E+04  0.80007502828E+03  0.14095285704E+04  0.90467588618E+02 0.  0.
        254    2    1    2    0    0 -0.34685148300E+03 -0.11037030416E+04 -0.18444958826E+04  0.23558922776E+04  0.89977608723E+03 0.  0.
        -24    2    4    4    0    0 -0.61403780885E+03 -0.53853432324E+03 -0.87566621910E+03  0.11999954900E+04  0.78333905241E+02 0.  0.
         24    2    4    4    0    0  0.26718632585E+03 -0.56516871834E+03 -0.96882966354E+03  0.11558967876E+04  0.81622629574E+02 0.  0.
         13    1    3    3    0    0  0.25712137827E+03  0.83667831184E+03  0.55732933879E+03  0.10376695006E+04  0.00000000000E+00 0.  1.
        -13    1    3    3    0    0  0.89730104729E+02  0.26702472974E+03  0.24274568950E+03  0.37185906975E+03  0.00000000000E+00 0. -1.
          4    1    6    6  502    0  0.25252026553E+03 -0.50557864024E+03 -0.83024240649E+03  0.10043299754E+04  0.00000000000E+00 0. -1.
          1    1    5    5  503    0 -0.44415525185E+03 -0.35061328612E+03 -0.57319993638E+03  0.80545746704E+03  0.00000000000E+00 0. -1.
         -2    1    5    5    0  503 -0.16988255700E+03 -0.18792103712E+03 -0.30246628272E+03  0.39453802295E+03  0.00000000000E+00 0.  1.
         -3    1    6    6    0  502  0.14666060321E+02 -0.59590078096E+02 -0.13858725705E+03  0.15156681217E+03  0.00000000000E+00 0.  1.
<mgrwt>
<rscale>  0 0.36176759E+04</rscale>
<asrwt>0</asrwt>
<pdfrwt beam="1">  1        2 0.36998782E+00 0.36176759E+04</pdfrwt>
<pdfrwt beam="2">  1       -2 0.20930769E+00 0.36176759E+04</pdfrwt>
<totfact> 0.37188153E-01</totfact>
</mgrwt>
</event>
<event>
12    1  0.1980523E-007  0.2232263E+04  0.7818608E-02  0.8505118E-01
          1   -1    0    0  501    0  0.00000000000E+00  0.00000000000E+00  0.23815763672E+04  0.23815763672E+04  0.00000000000E+00 0. -1.
         -1   -1    0    0    0  501 -0.00000000000E+00 -0.00000000000E+00 -0.52307758431E+03  0.52307758431E+03  0.00000000000E+00 0.  1.
         23    2    1    2    0    0  0.35959670689E+03  0.85908816696E+03  0.84609444529E+03  0.12616116202E+04  0.91901032476E+02 0.  0.
        254    2    1    2    0    0 -0.35959670689E+03 -0.85908816696E+03  0.10124043376E+04  0.16430423313E+04  0.89848944866E+03 0.  0.
        -24    2    4    4    0    0  0.12562426000E+03  0.53557015314E+02 -0.42008323260E+02  0.16431547484E+03  0.81148428570E+02 0.  0.
         24    2    4    4    0    0 -0.48522096689E+03 -0.91264518227E+03  0.10544126609E+04  0.14787268564E+04  0.80538444988E+02 0.  0.
         13    1    3    3    0    0  0.28535359381E+03  0.63237727365E+03  0.67568182403E+03  0.96843875235E+03  0.00000000000E+00 0.  1.
        -13    1    3    3    0    0  0.74243113078E+02  0.22671089330E+03  0.17041262126E+03  0.29317286789E+03  0.00000000000E+00 0. -1.
          4    1    6    6  502    0 -0.59629851237E+01 -0.55184247624E+00  0.97540798535E+01  0.11445688948E+02  0.00000000000E+00 0. -1.
          3    1    5    5  503    0  0.63853739502E+02 -0.13359583558E+01  0.12823111505E+02  0.65142282903E+02  0.00000000000E+00 0. -1.
         -4    1    5    5    0  503  0.61770520500E+02  0.54892973670E+02 -0.54831434765E+02  0.99173191940E+02  0.00000000000E+00 0.  1.
         -3    1    6    6    0  502 -0.47925798177E+03 -0.91209333979E+03  0.10446585810E+04  0.14672811675E+04  0.00000000000E+00 0.  1.
<mgrwt>
<rscale>  0 0.22322627E+04</rscale>
<asrwt>0</asrwt>
<pdfrwt beam="1">  1        1 0.36639636E+00 0.22322627E+04</pdfrwt>
<pdfrwt beam="2">  1       -1 0.80473476E-01 0.22322627E+04</pdfrwt>
<totfact> 0.22906537E+00</totfact>
</mgrwt>
</event>
<event>
12    1  0.1980523E-007  0.3492143E+04  0.7818608E-02  0.8115654E-01
          1   -1    0    0  501    0  0.00000000000E+00  0.00000000000E+00  0.19161002677E+04  0.19161002677E+04  0.00000000000E+00 0. -1.
         -1   -1    0    0    0  501 -0.00000000000E+00 -0.00000000000E+00 -0.15911308458E+04  0.15911308458E+04  0.00000000000E+00 0.  1.
         23    2    1    2    0    0 -0.10716267168E+04  0.11850746483E+04 -0.16232945584E+03  0.16085342925E+04  0.90807354089E+02 0.  0.
        254    2    1    2    0    0  0.10716267168E+04 -0.11850746483E+04  0.48729887776E+03  0.18986968210E+04  0.90266476583E+03 0.  0.
        -24    2    4    4    0    0  0.10218838878E+04 -0.49504106079E+03  0.31603203106E+03  0.11815418233E+04  0.82779849163E+02 0.  0.
         24    2    4    4    0    0  0.49742828959E+02 -0.69003358755E+03  0.17126684670E+03  0.71715499771E+03  0.79738679312E+02 0.  0.
         11    1    3    3    0    0 -0.41219876535E+03  0.43565495520E+03 -0.18931326128E+02  0.60005121219E+03  0.00000000000E+00 0.  1.
        -11    1    3    3    0    0 -0.65942795143E+03  0.74941969314E+03 -0.14339812972E+03  0.10084830803E+04  0.00000000000E+00 0. -1.
          4    1    6    6  502    0  0.64886469097E+02 -0.37016371579E+03  0.80838533832E+02  0.38440382271E+03  0.00000000000E+00 0. -1.
          3    1    5    5  503    0  0.44516073051E+03 -0.17148867688E+03  0.12269945244E+03  0.49257648941E+03  0.00000000000E+00 0. -1.
         -4    1    5    5    0  503  0.57672315730E+03 -0.32355238391E+03  0.19333257861E+03  0.68896533386E+03  0.00000000000E+00 0.  1.
         -3    1    6    6    0  502 -0.15143640138E+02 -0.31986987176E+03  0.90428312869E+02  0.33275117500E+03  0.00000000000E+00 0.  1.
<mgrwt>
<rscale>  0 0.34921433E+04</rscale>
<asrwt>0</asrwt>
<pdfrwt beam="1">  1        1 0.29478466E+00 0.34921433E+04</pdfrwt>
<pdfrwt beam="2">  1       -1 0.24478936E+00 0.34921433E+04</pdfrwt>
<totfact> 0.20918672E-01</totfact>
</mgrwt>
</event>
<event>
12    1  0.1980523E-007  0.1999853E+04  0.7818608E-02  0.8606689E-01
          1   -1    0    0  501    0  0.00000000000E+00  0.00000000000E+00  0.11215623390E+04  0.11215623390E+04  0.00000000000E+00 0.  1.
         -1   -1    0    0    0  501 -0.00000000000E+00 -0.00000000000E+00 -0.89148247878E+03  0.89148247878E+03  0.00000000000E+00 0. -1.
         23    2    1    2    0    0 -0.76203121190E+03  0.12869002866E+02  0.30784329934E+03  0.82798352202E+03  0.99659603907E+02 0.  0.
        254    2    1    2    0    0  0.76203121190E+03 -0.12869002866E+02 -0.77763439084E+02  0.11850612958E+04  0.90413823235E+03 0.  0.
        -24    2    4    4    0    0  0.35764301348E+03 -0.22704753671E+03 -0.42457213449E+03  0.60523054543E+03  0.81138195241E+02 0.  0.
         24    2    4    4    0    0  0.40438819842E+03  0.21417853384E+03  0.34680869541E+03  0.57983075037E+03  0.80778514957E+02 0.  0.
         13    1    3    3    0    0 -0.60683342028E+03 -0.12388462471E+02  0.27944975021E+03  0.66820089559E+03  0.00000000000E+00 0.  1.
        -13    1    3    3    0    0 -0.15519779161E+03  0.25257465338E+02  0.28393549128E+02  0.15978262643E+03  0.00000000000E+00 0. -1.
          2    1    6    6  502    0  0.37091739858E+03  0.17576997695E+03  0.28484053037E+03  0.49960877605E+03  0.00000000000E+00 0. -1.
          3    1    5    5  503    0  0.30281063721E+03 -0.19327645583E+03 -0.31327708417E+03  0.47664725096E+03  0.00000000000E+00 0. -1.
         -4    1    5    5    0  503  0.54832376268E+02 -0.33771080878E+02 -0.11129505033E+03  0.12858329447E+03  0.00000000000E+00 0.  1.
         -1    1    6    6    0  502  0.33470799837E+02  0.38408556894E+02  0.61968165036E+02  0.80221974311E+02  0.00000000000E+00 0.  1.
<mgrwt>
<rscale>  0 0.19998532E+04</rscale>
<asrwt>0</asrwt>
<pdfrwt beam="1">  1        1 0.17254805E+00 0.19998532E+04</pdfrwt>
<pdfrwt beam="2">  1       -1 0.13715115E+00 0.19998532E+04</pdfrwt>
<totfact> 0.50114972E+00</totfact>
</mgrwt>
</event>
<event>
12    1  0.1980523E-007  0.1742426E+04  0.7818608E-02  0.8737530E-01
         -2   -1    0    0    0  501 -0.00000000000E+00  0.00000000000E+00  0.29004435230E+03  0.29004435230E+03  0.00000000000E+00 0.  1.
          2   -1    0    0  501    0  0.00000000000E+00 -0.00000000000E+00 -0.26168834857E+04  0.26168834857E+04  0.00000000000E+00 0. -1.
         23    2    1    2    0    0  0.51464038243E+03  0.33192248500E+03 -0.57843432842E+03  0.84708884578E+03  0.89140232648E+02 0.  0.
        254    2    1    2    0    0 -0.51464038243E+03 -0.33192248500E+03 -0.17484048050E+04  0.20598389922E+04  0.90054986121E+03 0.  0.
        -24    2    4    4    0    0 -0.63632382872E+03 -0.41811517888E+03 -0.84553452880E+03  0.11407641928E+04  0.81767880922E+02 0.  0.
         24    2    4    4    0    0  0.12168344630E+03  0.86192693877E+02 -0.90287027619E+03  0.91907479944E+03  0.85368083913E+02 0.  0.
         11    1    3    3    0    0  0.19529228633E+03  0.17776147505E+03 -0.23746437226E+03  0.35514440331E+03  0.00000000000E+00 0.  1.
        -11    1    3    3    0    0  0.31934809610E+03  0.15416100995E+03 -0.34096995615E+03  0.49194444246E+03  0.00000000000E+00 0. -1.
          4    1    6    6  502    0  0.94831601285E+02  0.21001696159E+02 -0.42002361436E+03  0.43110780608E+03  0.00000000000E+00 0. -1.
          1    1    5    5  503    0 -0.38583206941E+03 -0.23005634429E+03 -0.54984500886E+03  0.71001538089E+03  0.00000000000E+00 0. -1.
         -2    1    5    5    0  503 -0.25049175932E+03 -0.18805883459E+03 -0.29568951994E+03  0.43074881190E+03  0.00000000000E+00 0.  1.
         -3    1    6    6    0  502  0.26851845014E+02  0.65190997718E+02 -0.48284666184E+03  0.48796699336E+03  0.00000000000E+00 0.  1.
<mgrwt>
<rscale>  0 0.17424262E+04</rscale>
<asrwt>0</asrwt>
<pdfrwt beam="1">  1        2 0.40259747E+00 0.17424262E+04</pdfrwt>
<pdfrwt beam="2">  1       -2 0.44622207E-01 0.17424262E+04</pdfrwt>
<totfact> 0.13462224E+01</totfact>
</mgrwt>
</event>
<event>
12    1  0.1980523E-007  0.3107974E+04  0.7818608E-02  0.8213553E-01
         -1   -1    0    0    0  501 -0.00000000000E+00  0.00000000000E+00  0.14062085965E+04  0.14062085965E+04  0.00000000000E+00 0.  1.
          1   -1    0    0  501    0  0.00000000000E+00 -0.00000000000E+00 -0.17172959038E+04  0.17172959038E+04  0.00000000000E+00 0. -1.
         23    2    1    2    0    0 -0.12755705976E+04 -0.22797494591E+03  0.44624757469E+03  0.13734288916E+04  0.90094932692E+02 0.  0.
        254    2    1    2    0    0  0.12755705976E+04  0.22797494591E+03 -0.75733488194E+03  0.17500756087E+04  0.90008643319E+03 0.  0.
        -24    2    4    4    0    0  0.87944433799E+03 -0.27204038679E+03 -0.34405957485E+03  0.98589770558E+03  0.78670065169E+02 0.  0.
         24    2    4    4    0    0  0.39612625965E+03  0.50001533270E+03 -0.41327530709E+03  0.76417790311E+03  0.78993934168E+02 0.  0.
         13    1    3    3    0    0 -0.74434335374E+03 -0.12511541528E+03  0.30599997877E+03  0.81445496033E+03  0.00000000000E+00 0.  1.
        -13    1    3    3    0    0 -0.53122724389E+03 -0.10285953063E+03  0.14024759592E+03  0.55897393129E+03  0.00000000000E+00 0. -1.
          2    1    6    6  502    0  0.23804873190E+03  0.31820722940E+03 -0.30021134539E+03  0.49804607367E+03  0.00000000000E+00 0. -1.
          1    1    5    5  503    0  0.79380694793E+03 -0.22430553520E+03 -0.32124940633E+03  0.88523647958E+03  0.00000000000E+00 0. -1.
         -2    1    5    5    0  503  0.85637390053E+02 -0.47734851593E+02 -0.22810168520E+02  0.10066122600E+03  0.00000000000E+00 0.  1.
         -1    1    6    6    0  502  0.15807752775E+03  0.18180810330E+03 -0.11306396171E+03  0.26613182944E+03  0.00000000000E+00 0.  1.
<mgrwt>
<rscale>  0 0.31079744E+04</rscale>
<asrwt>0</asrwt>
<pdfrwt beam="1">  1        1 0.26419937E+00 0.31079744E+04</pdfrwt>
<pdfrwt beam="2">  1       -1 0.21633978E+00 0.31079744E+04</pdfrwt>
<totfact> 0.45553839E-01</totfact>
</mgrwt>
</event>
<event>
12    1  0.1980523E-007  0.1205237E+04  0.7818608E-02  0.9108285E-01
          1   -1    0    0  501    0  0.00000000000E+00  0.00000000000E+00  0.10277256481E+04  0.10277256481E+04  0.00000000000E+00 0. -1.
         -1   -1    0    0    0  501 -0.00000000000E+00 -0.00000000000E+00 -0.35335215945E+03  0.35335215945E+03  0.00000000000E+00 0.  1.
         23    2    1    2    0    0  0.18203260073E+03  0.78647298444E+02 -0.28232666166E+02  0.22052968772E+03  0.92276727535E+02 0.  0.
        254    2    1    2    0    0 -0.18203260073E+03 -0.78647298444E+02  0.70260615487E+03  0.11605481199E+04  0.90216144032E+03 0.  0.
        -24    2    4    4    0    0 -0.35321966831E+03  0.15878338595E+03  0.25777828555E+00  0.39551813504E+03  0.80363119405E+02 0.  0.
         24    2    4    4    0    0  0.17118706758E+03 -0.23743068440E+03  0.70234837658E+03  0.76502998483E+03  0.79368089359E+02 0.  0.
         11    1    3    3    0    0  0.15506739914E+03  0.30482230851E+02  0.10614168428E+01  0.15803857529E+03  0.00000000000E+00 0. -1.
        -11    1    3    3    0    0  0.26965201589E+02  0.48165067593E+02 -0.29294083009E+02  0.62491112426E+02  0.00000000000E+00 0.  1.
          4    1    6    6  502    0  0.14509148867E+03 -0.21465797081E+03  0.66694038824E+03  0.71549917260E+03  0.00000000000E+00 0. -1.
          3    1    5    5  503    0 -0.33246857032E+03  0.12788372085E+03 -0.11746586032E+02  0.35640928522E+03  0.00000000000E+00 0. -1.
         -4    1    5    5    0  503 -0.20751097988E+02  0.30899665106E+02  0.12004364318E+02  0.39108849818E+02  0.00000000000E+00 0.  1.
         -3    1    6    6    0  502  0.26095578908E+02 -0.22772713586E+02  0.35407988337E+02  0.49530812235E+02  0.00000000000E+00 0.  1.
<mgrwt>
<rscale>  0 0.12052370E+04</rscale>
<asrwt>0</asrwt>
<pdfrwt beam="1">  1        1 0.15811164E+00 0.12052370E+04</pdfrwt>
<pdfrwt beam="2">  1       -1 0.54361871E-01 0.12052370E+04</pdfrwt>
<totfact> 0.48673424E+01</totfact>
</mgrwt>
</event>
<event>
12    1  0.1980523E-007  0.1560791E+04  0.7818608E-02  0.8845004E-01
          2   -1    0    0  501    0  0.00000000000E+00  0.00000000000E+00  0.26182683097E+04  0.26182683097E+04  0.00000000000E+00 0. -1.
         -2   -1    0    0    0  501 -0.00000000000E+00 -0.00000000000E+00 -0.23260305375E+03  0.23260305375E+03  0.00000000000E+00 0.  1.
         23    2    1    2    0    0 -0.29567124050E+03  0.41228616856E+03  0.63923673957E+03  0.82112630805E+03  0.90683169981E+02 0.  0.
        254    2    1    2    0    0  0.29567124050E+03 -0.41228616856E+03  0.17464285164E+04  0.20297450554E+04  0.90136067131E+03 0.  0.
        -24    2    4    4    0    0  0.25786206041E+03 -0.57436765979E+02  0.16189784810E+04  0.16423501003E+04  0.80191681259E+02 0.  0.
         24    2    4    4    0    0  0.37809180092E+02 -0.35484940258E+03  0.12745003534E+03  0.38739495505E+03  0.80521469681E+02 0.  0.
         13    1    3    3    0    0 -0.27594859857E+03  0.35228754986E+03  0.59276524002E+03  0.74271446507E+03  0.00000000000E+00 0. -1.
        -13    1    3    3    0    0 -0.19722641928E+02  0.59998618698E+02  0.46471499546E+02  0.78411842986E+02  0.00000000000E+00 0.  1.
          4    1    6    6  502    0  0.46196513245E+02 -0.35424929057E+03  0.12267245052E+03  0.37772371890E+03  0.00000000000E+00 0. -1.
          1    1    5    5  503    0  0.22568930898E+03 -0.22832150922E+02  0.12574517185E+04  0.12777487217E+04  0.00000000000E+00 0. -1.
         -2    1    5    5    0  503  0.32172751434E+02 -0.34604615057E+02  0.36152676247E+03  0.36460137863E+03  0.00000000000E+00 0.  1.
         -3    1    6    6    0  502 -0.83873331527E+01 -0.60011200624E+00  0.47775848203E+01  0.96712361438E+01  0.00000000000E+00 0.  1.
<mgrwt>
<rscale>  0 0.15607911E+04</rscale>
<asrwt>0</asrwt>
<pdfrwt beam="1">  1        2 0.40281049E+00 0.15607911E+04</pdfrwt>
<pdfrwt beam="2">  1       -2 0.35785087E-01 0.15607911E+04</pdfrwt>
<totfact> 0.21029271E+01</totfact>
</mgrwt>
</event>
<event>
12    1  0.1980523E-007  0.2622580E+04  0.7818608E-02  0.8360571E-01
         -1   -1    0    0    0  501 -0.00000000000E+00  0.00000000000E+00  0.13785659837E+04  0.13785659837E+04  0.00000000000E+00 0. -1.
          1   -1    0    0  501    0  0.00000000000E+00 -0.00000000000E+00 -0.12472972710E+04  0.12472972710E+04  0.00000000000E+00 0.  1.
         23    2    1    2    0    0  0.11053544476E+04  0.67011026482E+02 -0.26861516676E+03  0.11433128305E+04  0.93333745321E+02 0.  0.
        254    2    1    2    0    0 -0.11053544476E+04 -0.67011026482E+02  0.39988387938E+03  0.14825504242E+04  0.90097153718E+03 0.  0.
        -24    2    4    4    0    0 -0.21265402213E+03  0.32825563905E+03 -0.51911685968E+02  0.40380694247E+03  0.85975147254E+02 0.  0.
         24    2    4    4    0    0 -0.89270042548E+03 -0.39526666554E+03  0.45179556535E+03  0.10787434817E+04  0.80115416703E+02 0.  0.
         11    1    3    3    0    0  0.60420408887E+03  0.75739172156E+01 -0.10895162497E+03  0.61399544120E+03  0.00000000000E+00 0. -1.
        -11    1    3    3    0    0  0.50115035873E+03  0.59437109266E+02 -0.15966354179E+03  0.52931738928E+03  0.00000000000E+00 0.  1.
          2    1    6    6  502    0 -0.24479546238E+03 -0.14542879997E+03  0.11688568835E+03  0.30779314223E+03  0.00000000000E+00 0. -1.
          3    1    5    5  503    0 -0.12162680560E+03  0.11032183467E+03 -0.24975869228E+02  0.16609569859E+03  0.00000000000E+00 0. -1.
         -4    1    5    5    0  503 -0.91027216526E+02  0.21793380439E+03 -0.26935816740E+02  0.23771124388E+03  0.00000000000E+00 0.  1.
         -1    1    6    6    0  502 -0.64790496310E+03 -0.24983786556E+03  0.33490987700E+03  0.77095033951E+03  0.00000000000E+00 0.  1.
<mgrwt>
<rscale>  0 0.26225801E+04</rscale>
<asrwt>0</asrwt>
<pdfrwt beam="1">  1        1 0.19189189E+00 0.26225801E+04</pdfrwt>
<pdfrwt beam="2">  1       -1 0.21208708E+00 0.26225801E+04</pdfrwt>
<totfact> 0.10797225E+00</totfact>
</mgrwt>
</event>
<event>
12    1  0.1980523E-007  0.1283448E+04  0.7818608E-02  0.9042795E-01
          2   -1    0    0  501    0  0.00000000000E+00  0.00000000000E+00  0.47720057468E+03  0.47720057468E+03  0.00000000000E+00 0.  1.
         -2   -1    0    0    0  501 -0.00000000000E+00 -0.00000000000E+00 -0.86296968198E+03  0.86296968198E+03  0.00000000000E+00 0. -1.
         23    2    1    2    0    0  0.70615062147E+02  0.10152151450E+03 -0.39043577515E+03  0.42152647138E+03  0.99756536905E+02 0.  0.
        254    2    1    2    0    0 -0.70615062147E+02 -0.10152151450E+03  0.46666678384E+01  0.91864378527E+03  0.91027002671E+03 0.  0.
        -24    2    4    4    0    0 -0.32499154515E+00 -0.38354956196E+03 -0.29752847851E+03  0.49186301787E+03  0.79345199704E+02 0.  0.
         24    2    4    4    0    0 -0.70290070602E+02  0.28202804747E+03  0.30219514635E+03  0.42678076741E+03  0.79620370323E+02 0.  0.
         11    1    3    3    0    0  0.59673301430E+02  0.45412208111E+02 -0.32969507924E+03  0.33811538980E+03  0.00000000000E+00 0. -1.
        -11    1    3    3    0    0  0.10941760717E+02  0.56109306387E+02 -0.60740695910E+02  0.83411081581E+02  0.00000000000E+00 0.  1.
          2    1    6    6  502    0 -0.26072471897E+02  0.22420424151E+03  0.25229597076E+03  0.33852706327E+03  0.00000000000E+00 0. -1.
          1    1    5    5  503    0 -0.35478598718E+02 -0.17059496375E+03 -0.15503688002E+03  0.23323337409E+03  0.00000000000E+00 0. -1.
         -2    1    5    5    0  503  0.35153607173E+02 -0.21295459821E+03 -0.14249159849E+03  0.25862964377E+03  0.00000000000E+00 0.  1.
         -1    1    6    6    0  502 -0.44217598705E+02  0.57823805951E+02  0.49899175590E+02  0.88253704140E+02  0.00000000000E+00 0.  1.
<mgrwt>
<rscale>  0 0.12834479E+04</rscale>
<asrwt>0</asrwt>
<pdfrwt beam="1">  1        2 0.73415474E-01 0.12834479E+04</pdfrwt>
<pdfrwt beam="2">  1       -2 0.13276456E+00 0.12834479E+04</pdfrwt>
<totfact> 0.26245408E+01</totfact>
</mgrwt>
</event>
<event>
12    1  0.1980523E-007  0.3423932E+04  0.7818608E-02  0.8132058E-01
         -2   -1    0    0    0  501 -0.00000000000E+00  0.00000000000E+00  0.14670962015E+04  0.14670962015E+04  0.00000000000E+00 0.  1.
          2   -1    0    0  501    0  0.00000000000E+00 -0.00000000000E+00 -0.19977063468E+04  0.19977063468E+04  0.00000000000E+00 0. -1.
         23    2    1    2    0    0  0.11587237557E+04 -0.57929600224E+03  0.69031165682E+03  0.14706170635E+04  0.89217506611E+02 0.  0.
        254    2    1    2    0    0 -0.11587237557E+04  0.57929600224E+03 -0.12209218022E+04  0.19941854849E+04  0.89883318846E+03 0.  0.
        -24    2    4    4    0    0 -0.95604052853E+03  0.81312624201E+03 -0.96702900273E+03  0.15863868657E+04  0.79312153964E+02 0.  0.
         24    2    4    4    0    0 -0.20268322721E+03 -0.23383023977E+03 -0.25389279943E+03  0.40779861920E+03  0.77981334890E+02 0.  0.
         11    1    3    3    0    0  0.45376636753E+03 -0.17858185162E+03  0.25783051916E+03  0.55160853024E+03  0.00000000000E+00 0.  1.
        -11    1    3    3    0    0  0.70495738822E+03 -0.40071415062E+03  0.43248113766E+03  0.91900853323E+03  0.00000000000E+00 0. -1.
          4    1    6    6  502    0 -0.17422695631E+03 -0.17086620124E+03 -0.16232537760E+03  0.29308670943E+03  0.00000000000E+00 0. -1.
          1    1    5    5  503    0 -0.83950966544E+03  0.68839053368E+03 -0.81111482711E+03  0.13551993462E+04  0.00000000000E+00 0. -1.
         -2    1    5    5    0  503 -0.11653086309E+03  0.12473570833E+03 -0.15591417562E+03  0.23118751944E+03  0.00000000000E+00 0.  1.
         -3    1    6    6    0  502 -0.28456270902E+02 -0.62964038530E+02 -0.91567421826E+02  0.11471190976E+03  0.00000000000E+00 0.  1.
<mgrwt>
<rscale>  0 0.34239319E+04</rscale>
<asrwt>0</asrwt>
<pdfrwt beam="1">  1        2 0.30733944E+00 0.34239319E+04</pdfrwt>
<pdfrwt beam="2">  1       -2 0.22570711E+00 0.34239319E+04</pdfrwt>
<totfact> 0.50403593E-01</totfact>
</mgrwt>
</event>
<event>
12    1  0.1980523E-007  0.1570920E+04  0.7818608E-02  0.8838615E-01
          1   -1    0    0  501    0  0.00000000000E+00  0.00000000000E+00  0.79989495562E+03  0.79989495562E+03  0.00000000000E+00 0. -1.
         -1   -1    0    0    0  501 -0.00000000000E+00 -0.00000000000E+00 -0.77128515672E+03  0.77128515672E+03  0.00000000000E+00 0.  1.
         23    2    1    2    0    0  0.97043798001E+02 -0.51431347678E+03  0.18261618590E+02  0.53164112023E+03  0.91503786176E+02 0.  0.
        254    2    1    2    0    0 -0.97043798001E+02  0.51431347678E+03  0.10348180311E+02  0.10395389921E+04  0.89810822296E+03 0.  0.
        -24    2    4    4    0    0 -0.18519924360E+03  0.74684732282E+03  0.44966766094E+02  0.77513843392E+03  0.82084701693E+02 0.  0.
         24    2    4    4    0    0  0.88155445603E+02 -0.23253384605E+03 -0.34618585783E+02  0.26440055819E+03  0.82860343591E+02 0.  0.
         11    1    3    3    0    0 -0.63123438339E+01 -0.16807658351E+03 -0.14532312690E+02  0.16882171578E+03  0.00000000000E+00 0. -1.
        -11    1    3    3    0    0  0.10335614183E+03 -0.34623689327E+03  0.32793931280E+02  0.36281940445E+03  0.00000000000E+00 0.  1.
          2    1    6    6  502    0  0.39887945366E+02 -0.18927950802E+03 -0.45410548884E+02  0.19869549137E+03  0.00000000000E+00 0. -1.
          1    1    5    5  503    0 -0.14313668937E+03  0.48339984957E+03  0.61273787629E+02  0.50785628229E+03  0.00000000000E+00 0. -1.
         -2    1    5    5    0  503 -0.42062554239E+02  0.26344747325E+03 -0.16307021535E+02  0.26728215163E+03  0.00000000000E+00 0.  1.
         -1    1    6    6    0  502  0.48267500237E+02 -0.43254338029E+02  0.10791963102E+02  0.65705066814E+02  0.00000000000E+00 0.  1.
<mgrwt>
<rscale>  0 0.15709196E+04</rscale>
<asrwt>0</asrwt>
<pdfrwt beam="1">  1        1 0.12306076E+00 0.15709196E+04</pdfrwt>
<pdfrwt beam="2">  1       -1 0.11865925E+00 0.15709196E+04</pdfrwt>
<totfact> 0.13538814E+01</totfact>
</mgrwt>
</event>
<event>
12    1  0.1993835E-007  0.2718206E+04  0.7818608E-02  0.8329122E-01
         -2   -1    0    0    0  501 -0.00000000000E+00  0.00000000000E+00  0.14614654639E+04  0.14614654639E+04  0.00000000000E+00 0. -1.
          2   -1    0    0  501    0  0.00000000000E+00 -0.00000000000E+00 -0.12639104033E+04  0.12639104033E+04  0.00000000000E+00 0.  1.
         23    2    1    2    0    0  0.24998477535E+03 -0.11758570796E+04  0.22354094511E+03  0.12262410467E+04  0.92543453446E+02 0.  0.
        254    2    1    2    0    0 -0.24998477535E+03  0.11758570796E+04 -0.25985884588E+02  0.14991348205E+04  0.89531987818E+03 0.  0.
        -24    2    4    4    0    0  0.30544900202E+03  0.56695793691E+03  0.11413528705E+03  0.65932451728E+03  0.83316026522E+02 0.  0.
         24    2    4    4    0    0 -0.55543377737E+03  0.60889914273E+03 -0.14012117163E+03  0.83981030325E+03  0.79890898358E+02 0.  0.
         11    1    3    3    0    0  0.22233671538E+03 -0.85170329551E+03  0.17079544629E+03  0.89666225696E+03  0.00000000000E+00 0.  1.
        -11    1    3    3    0    0  0.27648059976E+02 -0.32415378414E+03  0.52745498818E+02  0.32957878972E+03  0.00000000000E+00 0. -1.
          2    1    6    6  502    0 -0.42447659811E+03  0.41366465675E+03 -0.10953660295E+03  0.60274131929E+03  0.00000000000E+00 0. -1.
          1    1    5    5  503    0  0.25277362733E+03  0.52094973491E+03  0.10891884714E+03  0.58919135112E+03  0.00000000000E+00 0. -1.
         -2    1    5    5    0  503  0.52675374684E+02  0.46008202004E+02  0.52164399040E+01  0.70133166155E+02  0.00000000000E+00 0.  1.
         -1    1    6    6    0  502 -0.13095717926E+03  0.19523448598E+03 -0.30584568681E+02  0.23706898396E+03  0.00000000000E+00 0.  1.
<mgrwt>
<rscale>  0 0.27182063E+04</rscale>
<asrwt>0</asrwt>
<pdfrwt beam="1">  1        2 0.19444775E+00 0.27182063E+04</pdfrwt>
<pdfrwt beam="2">  1       -2 0.22484084E+00 0.27182063E+04</pdfrwt>
<totfact> 0.14005775E+00</totfact>
</mgrwt>
</event>
<event>
12    1  0.1980523E-007  0.1343330E+04  0.7818608E-02  0.8995892E-01
          1   -1    0    0  501    0  0.00000000000E+00  0.00000000000E+00  0.17478602535E+04  0.17478602535E+04  0.00000000000E+00 0. -1.
         -1   -1    0    0    0  501 -0.00000000000E+00 -0.00000000000E+00 -0.25810653346E+03  0.25810653346E+03  0.00000000000E+00 0.  1.
         23    2    1    2    0    0  0.26264050498E+03  0.99141506158E+02  0.72879450655E+02  0.30398101563E+03  0.91016319608E+02 0.  0.
        254    2    1    2    0    0 -0.26264050498E+03 -0.99141506158E+02  0.14168742694E+04  0.17019857713E+04  0.90022985813E+03 0.  0.
        -24    2    4    4    0    0  0.16118989645E+03 -0.31858435126E+03  0.99496887553E+03  0.10598522869E+04  0.76456754413E+02 0.  0.
         24    2    4    4    0    0 -0.42383040143E+03  0.21944284510E+03  0.42190539388E+03  0.64213348440E+03  0.80894245550E+02 0.  0.
         13    1    3    3    0    0  0.22552654499E+03  0.67723840615E+02  0.26810447847E+02  0.23699692234E+03  0.00000000000E+00 0.  1.
        -13    1    3    3    0    0  0.37113959988E+02  0.31417665543E+02  0.46069002809E+02  0.66984093290E+02  0.00000000000E+00 0. -1.
          4    1    6    6  502    0 -0.17770933683E+03  0.11969030699E+03  0.14656506160E+03  0.25959140060E+03  0.00000000000E+00 0. -1.
          1    1    5    5  503    0  0.57474551950E+02 -0.74696061603E+02  0.35213105882E+03  0.36452586785E+03  0.00000000000E+00 0. -1.
         -2    1    5    5    0  503  0.10371534450E+03 -0.24388828965E+03  0.64283781671E+03  0.69532641910E+03  0.00000000000E+00 0.  1.
         -3    1    6    6    0  502 -0.24612106460E+03  0.99752538107E+02  0.27534033227E+03  0.38254208380E+03  0.00000000000E+00 0.  1.
<mgrwt>
<rscale>  0 0.13433304E+04</rscale>
<asrwt>0</asrwt>
<pdfrwt beam="1">  1        1 0.26890157E+00 0.13433304E+04</pdfrwt>
<pdfrwt beam="2">  1       -1 0.39708699E-01 0.13433304E+04</pdfrwt>
<totfact> 0.26733771E+01</totfact>
</mgrwt>
</event>
<event>
12    1  0.1980523E-007  0.2482943E+04  0.7818608E-02  0.8409087E-01
          2   -1    0    0  501    0  0.00000000000E+00  0.00000000000E+00  0.17112680368E+04  0.17112680368E+04  0.00000000000E+00 0. -1.
         -2   -1    0    0    0  501 -0.00000000000E+00 -0.00000000000E+00 -0.90064882236E+03  0.90064882236E+03  0.00000000000E+00 0.  1.
         23    2    1    2    0    0 -0.74234786297E+03 -0.72914609740E+03  0.55769810394E+02  0.10458921116E+04  0.89697582590E+02 0.  0.
        254    2    1    2    0    0  0.74234786297E+03  0.72914609740E+03  0.75484940408E+03  0.15660247476E+04  0.89437212964E+03 0.  0.
        -24    2    4    4    0    0  0.51465662572E+03  0.63378357799E+03  0.93944151509E+03  0.12472513457E+04  0.80823839330E+02 0.  0.
         24    2    4    4    0    0  0.22769123725E+03  0.95362519418E+02 -0.18459211100E+03  0.31877340190E+03  0.81270687719E+02 0.  0.
         11    1    3    3    0    0 -0.11928438786E+03 -0.12796268085E+03  0.42284700852E+02  0.17997557835E+03  0.00000000000E+00 0.  1.
        -11    1    3    3    0    0 -0.62306347511E+03 -0.60118341655E+03  0.13485109543E+02  0.86591653323E+03  0.00000000000E+00 0. -1.
          2    1    6    6  502    0  0.37908101027E+02  0.27547499986E+02 -0.77463353158E+02  0.90534302678E+02  0.00000000000E+00 0. -1.
          1    1    5    5  503    0  0.24619674695E+03  0.33380133334E+03  0.53065192978E+03  0.67351884823E+03  0.00000000000E+00 0. -1.
         -2    1    5    5    0  503  0.26845987877E+03  0.29998224465E+03  0.40878958530E+03  0.57373249748E+03  0.00000000000E+00 0.  1.
         -1    1    6    6    0  502  0.18978313622E+03  0.67815019432E+02 -0.10712875785E+03  0.22823909922E+03  0.00000000000E+00 0.  1.
<mgrwt>
<rscale>  0 0.24829430E+04</rscale>
<asrwt>0</asrwt>
<pdfrwt beam="1">  1        2 0.26327200E+00 0.24829430E+04</pdfrwt>
<pdfrwt beam="2">  1       -2 0.13856136E+00 0.24829430E+04</pdfrwt>
<totfact> 0.31855093E+00</totfact>
</mgrwt>
</event>
<event>
12    1  0.1980523E-007  0.1523604E+04  0.7818608E-02  0.8868907E-01
         -2   -1    0    0    0  501 -0.00000000000E+00  0.00000000000E+00  0.39004410358E+03  0.39004410358E+03  0.00000000000E+00 0.  1.
          2   -1    0    0  501    0  0.00000000000E+00 -0.00000000000E+00 -0.14878883844E+04  0.14878883844E+04  0.00000000000E+00 0. -1.
         23    2    1    2    0    0 -0.37624579658E+03  0.27851493175E+03 -0.17953757329E+03  0.50925839719E+03  0.89324734694E+02 0.  0.
        254    2    1    2    0    0  0.37624579658E+03 -0.27851493175E+03 -0.91830670757E+03  0.13686740908E+04  0.90047214900E+03 0.  0.
        -24    2    4    4    0    0 -0.14537458894E+03  0.22594495326E+03 -0.19831057961E+03  0.34334351669E+03  0.79829765459E+02 0.  0.
         24    2    4    4    0    0  0.52162038552E+03 -0.50445988501E+03 -0.71999612796E+03  0.10253305742E+04  0.79628888232E+02 0.  0.
         13    1    3    3    0    0 -0.31739943404E+03  0.23483493972E+03 -0.11403779721E+03  0.41096772238E+03  0.00000000000E+00 0.  1.
        -13    1    3    3    0    0 -0.58846362541E+02  0.43679992033E+02 -0.65499776081E+02  0.98290674812E+02  0.00000000000E+00 0. -1.
          4    1    6    6  502    0  0.85097862292E+02 -0.47046856041E+02 -0.10907356155E+03  0.14612355956E+03  0.00000000000E+00 0. -1.
          1    1    5    5  503    0  0.96643158564E+01  0.22133061166E+02 -0.15271116004E+02  0.28574085839E+02  0.00000000000E+00 0. -1.
         -2    1    5    5    0  503 -0.15503890480E+03  0.20381189209E+03 -0.18303946361E+03  0.31476943085E+03  0.00000000000E+00 0.  1.
         -1    1    6    6    0  502  0.43652252323E+03 -0.45741302897E+03 -0.61092256641E+03  0.87920701459E+03  0.00000000000E+00 0.  1.
<mgrwt>
<rscale>  0 0.15236037E+04</rscale>
<asrwt>0</asrwt>
<pdfrwt beam="1">  1        2 0.22890591E+00 0.15236037E+04</pdfrwt>
<pdfrwt beam="2">  1       -2 0.60006785E-01 0.15236037E+04</pdfrwt>
<totfact> 0.32200834E+01</totfact>
</mgrwt>
</event>
<event>
12    1  0.1980523E-007  0.1535613E+04  0.7818608E-02  0.8861110E-01
          2   -1    0    0  501    0  0.00000000000E+00  0.00000000000E+00  0.25155821707E+04  0.25155821707E+04  0.00000000000E+00 0. -1.
         -2   -1    0    0    0  501 -0.00000000000E+00 -0.00000000000E+00 -0.23434998572E+03  0.23434998572E+03  0.00000000000E+00 0.  1.
         23    2    1    2    0    0 -0.16201011980E+03 -0.45809403082E+03  0.58032866041E+03  0.76237549682E+03  0.91310591196E+02 0.  0.
        254    2    1    2    0    0  0.16201011980E+03  0.45809403082E+03  0.17009035246E+04  0.19875566596E+04  0.90620707083E+03 0.  0.
        -24    2    4    4    0    0  0.10320140680E+03  0.10531121927E+03  0.15996450416E+04  0.16085799860E+04  0.83212553259E+02 0.  0.
         24    2    4    4    0    0  0.58808712999E+02  0.35278281155E+03  0.10125848301E+03  0.37897667362E+03  0.73863806535E+02 0.  0.
         13    1    3    3    0    0 -0.71058278692E+02 -0.11046459685E+03  0.19882488435E+03  0.23829192342E+03  0.00000000000E+00 0. -1.
        -13    1    3    3    0    0 -0.90951841105E+02 -0.34762943397E+03  0.38150377606E+03  0.52408357340E+03  0.00000000000E+00 0.  1.
          4    1    6    6  502    0  0.49823760766E+02  0.34948718410E+03  0.10558711319E+03  0.36847298064E+03  0.00000000000E+00 0. -1.
          1    1    5    5  503    0  0.87095335913E+02  0.57649921399E+02  0.72448977654E+03  0.73197988175E+03  0.00000000000E+00 0. -1.
         -2    1    5    5    0  503  0.16106070884E+02  0.47661297867E+02  0.87515526504E+03  0.87660010424E+03  0.00000000000E+00 0.  1.
         -3    1    6    6    0  502  0.89849522335E+01  0.32956274474E+01 -0.43286301853E+01  0.10503692979E+02  0.00000000000E+00 0.  1.
<mgrwt>
<rscale>  0 0.15356128E+04</rscale>
<asrwt>0</asrwt>
<pdfrwt beam="1">  1        2 0.38701262E+00 0.15356128E+04</pdfrwt>
<pdfrwt beam="2">  1       -2 0.36053846E-01 0.15356128E+04</pdfrwt>
<totfact> 0.23836907E+01</totfact>
</mgrwt>
</event>
<event>
12    1  0.1980523E-007  0.1736998E+04  0.7818608E-02  0.8740540E-01
          2   -1    0    0  501    0  0.00000000000E+00  0.00000000000E+00  0.19064826010E+04  0.19064826010E+04  0.00000000000E+00 0.  1.
         -2   -1    0    0    0  501 -0.00000000000E+00 -0.00000000000E+00 -0.39564518004E+03  0.39564518004E+03  0.00000000000E+00 0. -1.
         23    2    1    2    0    0 -0.62976780847E+03 -0.28819489823E+02  0.65365895398E+03  0.91013131252E+03  0.60257135086E+02 0.  0.
        254    2    1    2    0    0  0.62976780847E+03  0.28819489823E+02  0.85717846697E+03  0.13919964685E+04  0.89747489577E+03 0.  0.
        -24    2    4    4    0    0  0.29386938283E+03 -0.10704531380E+03 -0.12183940038E+03  0.34515669149E+03  0.80438727154E+02 0.  0.
         24    2    4    4    0    0  0.33589842564E+03  0.13586480363E+03  0.97901786735E+03  0.10468397770E+04  0.78169923584E+02 0.  0.
         11    1    3    3    0    0 -0.22910219609E+03 -0.39500289472E+02  0.23753804749E+03  0.33237390560E+03  0.00000000000E+00 0.  1.
        -11    1    3    3    0    0 -0.40066561238E+03  0.10680799649E+02  0.41612090650E+03  0.57775740691E+03  0.00000000000E+00 0. -1.
          2    1    6    6  502    0  0.82522271400E+02  0.41846693953E+02  0.35405096178E+03  0.36594146337E+03  0.00000000000E+00 0. -1.
          3    1    5    5  503    0 -0.17349448760E+01  0.56300831710E+01 -0.55953950127E+01  0.81250424973E+01  0.00000000000E+00 0. -1.
         -4    1    5    5    0  503  0.29560432770E+03 -0.11267539698E+03 -0.11624400537E+03  0.33703164899E+03  0.00000000000E+00 0.  1.
         -1    1    6    6    0  502  0.25337615424E+03  0.94018109675E+02  0.62496690556E+03  0.68089831365E+03  0.00000000000E+00 0.  1.
<mgrwt>
<rscale>  0 0.17369982E+04</rscale>
<asrwt>0</asrwt>
<pdfrwt beam="1">  1        2 0.29330501E+00 0.17369982E+04</pdfrwt>
<pdfrwt beam="2">  1       -2 0.60868491E-01 0.17369982E+04</pdfrwt>
<totfact> 0.17949484E+01</totfact>
</mgrwt>
</event>
<event>
12    1  0.1980523E-007  0.3238094E+04  0.7818608E-02  0.8178829E-01
          2   -1    0    0  501    0  0.00000000000E+00  0.00000000000E+00  0.37784104779E+04  0.37784104779E+04  0.00000000000E+00 0.  1.
         -2   -1    0    0    0  501 -0.00000000000E+00 -0.00000000000E+00 -0.69376065787E+03  0.69376065787E+03  0.00000000000E+00 0. -1.
         23    2    1    2    0    0  0.46823270503E+03  0.13966112003E+04  0.10914931496E+04  0.18355883724E+04  0.90899208440E+02 0.  0.
        254    2    1    2    0    0 -0.46823270503E+03 -0.13966112003E+04  0.19931566703E+04  0.26365827634E+04  0.89951678392E+03 0.  0.
        -24    2    4    4    0    0  0.12335664307E+03 -0.34526986701E+03  0.96351158877E+02  0.38736355741E+03  0.79616815635E+02 0.  0.
         24    2    4    4    0    0 -0.59158934810E+03 -0.10513413333E+04  0.18968055115E+04  0.22492192060E+04  0.76284547415E+02 0.  0.
         13    1    3    3    0    0  0.23257539449E+03  0.83433644067E+03  0.64331544989E+03  0.10789176884E+04  0.00000000000E+00 0. -1.
        -13    1    3    3    0    0  0.23565731054E+03  0.56227475967E+03  0.44817769975E+03  0.75667068393E+03  0.00000000000E+00 0.  1.
          4    1    6    6  502    0 -0.59264504915E+03 -0.10403887389E+04  0.18732263855E+04  0.22231990405E+04  0.00000000000E+00 0. -1.
          3    1    5    5  503    0  0.10688862126E+03 -0.30732625340E+03  0.11051955708E+03  0.34364105674E+03  0.00000000000E+00 0. -1.
         -4    1    5    5    0  503  0.16468021815E+02 -0.37943613612E+02 -0.14168398202E+02  0.43722500661E+02  0.00000000000E+00 0.  1.
         -3    1    6    6    0  502  0.10557010563E+01 -0.10952594403E+02  0.23579125962E+02  0.26020165449E+02  0.00000000000E+00 0.  1.
<mgrwt>
<rscale>  0 0.32380936E+04</rscale>
<asrwt>0</asrwt>
<pdfrwt beam="1">  1        2 0.58129391E+00 0.32380936E+04</pdfrwt>
<pdfrwt beam="2">  1       -2 0.10673241E+00 0.32380936E+04</pdfrwt>
<totfact> 0.30204065E-01</totfact>
</mgrwt>
</event>
<event>
12    1  0.1980523E-007  0.1665456E+04  0.7818608E-02  0.8781315E-01
         -2   -1    0    0    0  501 -0.00000000000E+00  0.00000000000E+00  0.48883954580E+03  0.48883954580E+03  0.00000000000E+00 0. -1.
          2   -1    0    0  501    0  0.00000000000E+00 -0.00000000000E+00 -0.14185341253E+04  0.14185341253E+04  0.00000000000E+00 0.  1.
         23    2    1    2    0    0 -0.14437580552E+03 -0.47790547246E+03 -0.67840287098E+03  0.84711404591E+03  0.90187236306E+02 0.  0.
        254    2    1    2    0    0  0.14437580552E+03  0.47790547246E+03 -0.25129170856E+03  0.10602596252E+04  0.90097998661E+03 0.  0.
        -24    2    4    4    0    0  0.18078048281E+03  0.43778994270E+03 -0.55949434295E+03  0.73747234323E+03  0.80560041891E+02 0.  0.
         24    2    4    4    0    0 -0.36404677292E+02  0.40115529764E+02  0.30820263439E+03  0.32278728200E+03  0.79172023602E+02 0.  0.
         11    1    3    3    0    0 -0.90465620497E+02 -0.38739148230E+03 -0.57733258097E+03  0.70111988853E+03  0.00000000000E+00 0.  1.
        -11    1    3    3    0    0 -0.53910185025E+02 -0.90513990161E+02 -0.10107029001E+03  0.14599415737E+03  0.00000000000E+00 0. -1.
          4    1    6    6  502    0  0.17939999110E+02  0.12636292273E+02  0.17444102937E+03  0.17581579047E+03  0.00000000000E+00 0. -1.
          3    1    5    5  503    0  0.92867267589E+02  0.31914302317E+03 -0.40111539304E+03  0.52093200820E+03  0.00000000000E+00 0. -1.
         -4    1    5    5    0  503  0.87913215225E+02  0.11864691952E+03 -0.15837894990E+03  0.21654033503E+03  0.00000000000E+00 0.  1.
         -3    1    6    6    0  502 -0.54344676402E+02  0.27479237491E+02  0.13376160502E+03  0.14697149153E+03  0.00000000000E+00 0.  1.
<mgrwt>
<rscale>  0 0.16654556E+04</rscale>
<asrwt>0</asrwt>
<pdfrwt beam="1">  1        2 0.21823602E+00 0.16654556E+04</pdfrwt>
<pdfrwt beam="2">  1       -2 0.75206085E-01 0.16654556E+04</pdfrwt>
<totfact> 0.21383878E+01</totfact>
</mgrwt>
</event>
<event>
12    1  0.1980523E-007  0.1855572E+04  0.7818608E-02  0.8677292E-01
         -1   -1    0    0    0  501 -0.00000000000E+00  0.00000000000E+00  0.11260084364E+04  0.11260084364E+04  0.00000000000E+00 0.  1.
          1   -1    0    0  501    0  0.00000000000E+00 -0.00000000000E+00 -0.76445901428E+03  0.76445901428E+03  0.00000000000E+00 0. -1.
         23    2    1    2    0    0 -0.59320945594E+03  0.33720044574E+03  0.32458226146E+03  0.76122848681E+03  0.92268984240E+02 0.  0.
        254    2    1    2    0    0  0.59320945594E+03 -0.33720044574E+03  0.36967160643E+02  0.11292389639E+04  0.89900637779E+03 0.  0.
        -24    2    4    4    0    0  0.60051491521E+03  0.26762753605E+02  0.29650351078E+03  0.67471353653E+03  0.77392610116E+02 0.  0.
         24    2    4    4    0    0 -0.73054592697E+01 -0.36396319935E+03 -0.25953635014E+03  0.45452542733E+03  0.81924763239E+02 0.  0.
         13    1    3    3    0    0 -0.26235787029E+03  0.10315932651E+03  0.10952153571E+03  0.30243753989E+03  0.00000000000E+00 0. -1.
        -13    1    3    3    0    0 -0.33085158565E+03  0.23404111924E+03  0.21506072574E+03  0.45879094692E+03  0.00000000000E+00 0.  1.
          4    1    6    6  502    0  0.14802558127E+02 -0.33753457364E+03 -0.22625342384E+03  0.40661937476E+03  0.00000000000E+00 0. -1.
          1    1    5    5  503    0  0.59932335501E+03  0.32501108137E+02  0.29396952495E+03  0.66832842786E+03  0.00000000000E+00 0. -1.
         -2    1    5    5    0  503  0.11915601952E+01 -0.57383545322E+01  0.25339858324E+01  0.63851086627E+01  0.00000000000E+00 0.  1.
         -3    1    6    6    0  502 -0.22108017397E+02 -0.26428625704E+02 -0.33282926293E+02  0.47906052566E+02  0.00000000000E+00 0.  1.
<mgrwt>
<rscale>  0 0.18555725E+04</rscale>
<asrwt>0</asrwt>
<pdfrwt beam="1">  1        1 0.11760908E+00 0.18555725E+04</pdfrwt>
<pdfrwt beam="2">  1       -1 0.17323207E+00 0.18555725E+04</pdfrwt>
<totfact> 0.52011254E+00</totfact>
</mgrwt>
</event>
<event>
12    1  0.1980523E-007  0.2184043E+04  0.7818608E-02  0.8525099E-01
         -3   -1    0    0    0  501 -0.00000000000E+00  0.00000000000E+00  0.11763662103E+04  0.11763662103E+04  0.00000000000E+00 0.  1.
          3   -1    0    0  501    0  0.00000000000E+00 -0.00000000000E+00 -0.10137242406E+04  0.10137242406E+04  0.00000000000E+00 0. -1.
         23    2    1    2    0    0 -0.53092149415E+03 -0.17142385170E+03  0.78406353278E+03  0.96658683917E+03  0.90943522764E+02 0.  0.
        254    2    1    2    0    0  0.53092149415E+03  0.17142385170E+03 -0.62142156309E+03  0.12235036117E+04  0.89416584534E+03 0.  0.
        -24    2    4    4    0    0  0.67207850919E+03 -0.39072172520E+01 -0.69834892503E+03  0.97261963668E+03  0.81196968672E+02 0.  0.
         24    2    4    4    0    0 -0.14115701503E+03  0.17533106895E+03  0.76927361936E+02  0.25088397505E+03  0.79741227044E+02 0.  0.
         13    1    3    3    0    0 -0.34869319557E+03 -0.10853919135E+03  0.58382005893E+03  0.68863165909E+03  0.00000000000E+00 0.  1.
        -13    1    3    3    0    0 -0.18222829858E+03 -0.62884660345E+02  0.20024347385E+03  0.27795518008E+03  0.00000000000E+00 0. -1.
          2    1    6    6  502    0 -0.13132749265E+03  0.10599929998E+03  0.53591943712E+02  0.17707303113E+03  0.00000000000E+00 0. -1.
          1    1    5    5  503    0  0.37236132122E+03  0.27844524258E+02 -0.42498351327E+03  0.56572012305E+03  0.00000000000E+00 0. -1.
         -2    1    5    5    0  503  0.29971718797E+03 -0.31751741510E+02 -0.27336541176E+03  0.40689951364E+03  0.00000000000E+00 0.  1.
         -1    1    6    6    0  502 -0.98295223816E+01  0.69331768974E+02  0.23335418224E+02  0.73810943925E+02  0.00000000000E+00 0.  1.
<mgrwt>
<rscale>  0 0.21840430E+04</rscale>
<asrwt>0</asrwt>
<pdfrwt beam="1">  1        3 0.15595758E+00 0.21840430E+04</pdfrwt>
<pdfrwt beam="2">  1       -3 0.18097942E+00 0.21840430E+04</pdfrwt>
<totfact> 0.13594829E-01</totfact>
</mgrwt>
</event>
<event>
12    1  0.1980523E-007  0.1629577E+04  0.7818608E-02  0.8802581E-01
         -1   -1    0    0    0  501 -0.00000000000E+00  0.00000000000E+00  0.34873636941E+03  0.34873636941E+03  0.00000000000E+00 0.  1.
          1   -1    0    0  501    0  0.00000000000E+00 -0.00000000000E+00 -0.19036745542E+04  0.19036745542E+04  0.00000000000E+00 0. -1.
         23    2    1    2    0    0 -0.27503291174E+03 -0.48698598060E+02 -0.12188757212E+04  0.12517139336E+04  0.55813007563E+02 0.  0.
        254    2    1    2    0    0  0.27503291174E+03  0.48698598060E+02 -0.33606246358E+03  0.10006969900E+04  0.90024542788E+03 0.  0.
        -24    2    4    4    0    0  0.14286332812E+03 -0.32218838762E+03  0.13130919172E+03  0.38456459430E+03  0.80203090487E+02 0.  0.
         24    2    4    4    0    0  0.13216958362E+03  0.37088698568E+03 -0.46737165530E+03  0.61613239572E+03  0.78465979224E+02 0.  0.
         11    1    3    3    0    0 -0.20213987522E+03 -0.51358278857E+02 -0.81232618023E+03  0.83867277591E+03  0.00000000000E+00 0.  1.
        -11    1    3    3    0    0 -0.72893036517E+02  0.26596807973E+01 -0.40654954094E+03  0.41304115765E+03  0.00000000000E+00 0. -1.
          2    1    6    6  502    0  0.11787554833E+03  0.21728720241E+03 -0.28552896237E+03  0.37767070521E+03  0.00000000000E+00 0. -1.
          3    1    5    5  503    0  0.48500172821E+02 -0.19760685528E+03  0.92630192584E+02  0.22356450657E+03  0.00000000000E+00 0. -1.
         -4    1    5    5    0  503  0.94363155297E+02 -0.12458153234E+03  0.38678999139E+02  0.16100008774E+03  0.00000000000E+00 0.  1.
         -1    1    6    6    0  502  0.14294035284E+02  0.15359978327E+03 -0.18184269293E+03  0.23846169050E+03  0.00000000000E+00 0.  1.
<mgrwt>
<rscale>  0 0.16295773E+04</rscale>
<asrwt>0</asrwt>
<pdfrwt beam="1">  1        1 0.29287301E+00 0.16295773E+04</pdfrwt>
<pdfrwt beam="2">  1       -1 0.53651748E-01 0.16295773E+04</pdfrwt>
<totfact> 0.11627270E+01</totfact>
</mgrwt>
</event>
<event>
12    1  0.1980523E-007  0.3254980E+04  0.7818608E-02  0.8174446E-01
         -2   -1    0    0    0  501 -0.00000000000E+00  0.00000000000E+00  0.12846489637E+04  0.12846489637E+04  0.00000000000E+00 0.  1.
          2   -1    0    0  501    0  0.00000000000E+00 -0.00000000000E+00 -0.20618273429E+04  0.20618273429E+04  0.00000000000E+00 0. -1.
         23    2    1    2    0    0 -0.34835157215E+03 -0.14553792003E+04 -0.22324590978E+03  0.15157642083E+04  0.90691589661E+02 0.  0.
        254    2    1    2    0    0  0.34835157215E+03  0.14553792003E+04 -0.55393246939E+03  0.18307120983E+04  0.89732277998E+03 0.  0.
        -24    2    4    4    0    0  0.49779254240E+03  0.33715971268E+03 -0.27418801336E+03  0.66565090108E+03  0.80236951081E+02 0.  0.
         24    2    4    4    0    0 -0.14944097025E+03  0.11182194877E+04 -0.27974445603E+03  0.11650611972E+04  0.79769707932E+02 0.  0.
         13    1    3    3    0    0 -0.23122310281E+03 -0.11282397834E+04 -0.16537461122E+03  0.11635024255E+04  0.00000000000E+00 0.  1.
        -13    1    3    3    0    0 -0.11712846934E+03 -0.32713941695E+03 -0.57871298559E+02  0.35226178284E+03  0.00000000000E+00 0. -1.
          2    1    6    6  502    0 -0.14074012253E+03  0.91919224004E+03 -0.25555332860E+03  0.96438045397E+03  0.00000000000E+00 0. -1.
          1    1    5    5  503    0  0.47691188413E+03  0.31754157136E+03 -0.24038500936E+03  0.62133931752E+03  0.00000000000E+00 0. -1.
         -2    1    5    5    0  503  0.20880658270E+02  0.19618141321E+02 -0.33803004005E+02  0.44311583569E+02  0.00000000000E+00 0.  1.
         -1    1    6    6    0  502 -0.87008477226E+01  0.19902724762E+03 -0.24191127435E+02  0.20068074321E+03  0.00000000000E+00 0.  1.
<mgrwt>
<rscale>  0 0.32549804E+04</rscale>
<asrwt>0</asrwt>
<pdfrwt beam="1">  1        2 0.31720420E+00 0.32549804E+04</pdfrwt>
<pdfrwt beam="2">  1       -2 0.19763830E+00 0.32549804E+04</pdfrwt>
<totfact> 0.71322126E-01</totfact>
</mgrwt>
</event>
<event>
12    1  0.1980523E-007  0.1676757E+04  0.7818608E-02  0.8774733E-01
         -1   -1    0    0    0  501 -0.00000000000E+00  0.00000000000E+00  0.29280286635E+03  0.29280286635E+03  0.00000000000E+00 0.  1.
          1   -1    0    0  501    0  0.00000000000E+00 -0.00000000000E+00 -0.24005180585E+04  0.24005180585E+04  0.00000000000E+00 0. -1.
         23    2    1    2    0    0 -0.34873244724E+02 -0.58551325525E+03 -0.60394927592E+03  0.84548542189E+03  0.77775031186E+02 0.  0.
        254    2    1    2    0    0  0.34873244724E+02  0.58551325525E+03 -0.15037659163E+04  0.18478355030E+04  0.89952331817E+03 0.  0.
        -24    2    4    4    0    0 -0.16866232712E+02  0.81332420158E+03 -0.12541939867E+04  0.14967217811E+04  0.73435734338E+02 0.  0.
         24    2    4    4    0    0  0.51739477436E+02 -0.22781094632E+03 -0.24957192958E+03  0.35111372190E+03  0.80124259013E+02 0.  0.
         11    1    3    3    0    0 -0.35449473881E+02 -0.29084104352E+03 -0.25193773124E+03  0.38641661224E+03  0.00000000000E+00 0.  1.
        -11    1    3    3    0    0  0.57622915688E+00 -0.29467221173E+03 -0.35201154467E+03  0.45906880965E+03  0.00000000000E+00 0. -1.
          2    1    6    6  502    0 -0.17193539464E+02 -0.30766637909E+02 -0.57496698655E+02  0.67439411058E+02  0.00000000000E+00 0. -1.
          3    1    5    5  503    0  0.18862676640E+02  0.67694659175E+02 -0.10340591233E+03  0.12502459820E+03  0.00000000000E+00 0. -1.
         -4    1    5    5    0  503 -0.35728909353E+02  0.74562954240E+03 -0.11507880744E+04  0.13716971829E+04  0.00000000000E+00 0.  1.
         -1    1    6    6    0  502  0.68933016900E+02 -0.19704430842E+03 -0.19207523092E+03  0.28367431084E+03  0.00000000000E+00 0.  1.
<mgrwt>
<rscale>  0 0.16767571E+04</rscale>
<asrwt>0</asrwt>
<pdfrwt beam="1">  1        1 0.36931045E+00 0.16767571E+04</pdfrwt>
<pdfrwt beam="2">  1       -1 0.45046598E-01 0.16767571E+04</pdfrwt>
<totfact> 0.74075232E+00</totfact>
</mgrwt>
</event>
<event>
12    1  0.1980523E-007  0.1366184E+04  0.7818608E-02  0.8978666E-01
          2   -1    0    0  501    0  0.00000000000E+00  0.00000000000E+00  0.22307003742E+04  0.22307003742E+04  0.00000000000E+00 0. -1.
         -2   -1    0    0    0  501 -0.00000000000E+00 -0.00000000000E+00 -0.20917868261E+03  0.20917868261E+03  0.00000000000E+00 0.  1.
         23    2    1    2    0    0  0.24421658613E+03 -0.28899231894E+03  0.58876232584E+03  0.70572324131E+03  0.90807024196E+02 0.  0.
        254    2    1    2    0    0 -0.24421658613E+03  0.28899231894E+03  0.14327593657E+04  0.17341558155E+04  0.90074341017E+03 0.  0.
        -24    2    4    4    0    0  0.27351208022E+03 -0.89759370451E+02  0.26596110507E+03  0.40029346182E+03  0.81449024265E+02 0.  0.
         24    2    4    4    0    0 -0.51772866635E+03  0.37875168939E+03  0.11667982607E+04  0.13338623537E+04  0.79213529673E+02 0.  0.
         13    1    3    3    0    0  0.19488096909E+03 -0.25092521844E+03  0.54026670269E+03  0.62676165119E+03  0.00000000000E+00 0. -1.
        -13    1    3    3    0    0  0.49335617043E+02 -0.38067100496E+02  0.48495623146E+02  0.78961590115E+02  0.00000000000E+00 0.  1.
          4    1    6    6  502    0 -0.20773892664E+03  0.19363435582E+03  0.55604993760E+03  0.62437269199E+03  0.00000000000E+00 0. -1.
          3    1    5    5  503    0  0.59380525628E+01 -0.24464568107E+01 -0.60865629396E+01  0.88482691857E+01  0.00000000000E+00 0. -1.
         -4    1    5    5    0  503  0.26757402766E+03 -0.87312913640E+02  0.27204766801E+03  0.39144519263E+03  0.00000000000E+00 0.  1.
         -3    1    6    6    0  502 -0.30998973971E+03  0.18511733357E+03  0.61074832306E+03  0.70948966168E+03  0.00000000000E+00 0.  1.
<mgrwt>
<rscale>  0 0.13661844E+04</rscale>
<asrwt>0</asrwt>
<pdfrwt beam="1">  1        2 0.34318466E+00 0.13661844E+04</pdfrwt>
<pdfrwt beam="2">  1       -2 0.32181337E-01 0.13661844E+04</pdfrwt>
<totfact> 0.43595455E+01</totfact>
</mgrwt>
</event>
<event>
12    1  0.1980523E-007  0.1287653E+04  0.7818608E-02  0.9039414E-01
         -1   -1    0    0    0  501 -0.00000000000E+00  0.00000000000E+00  0.77238915492E+03  0.77238915492E+03  0.00000000000E+00 0. -1.
          1   -1    0    0  501    0  0.00000000000E+00 -0.00000000000E+00 -0.53666289101E+03  0.53666289101E+03  0.00000000000E+00 0.  1.
         23    2    1    2    0    0  0.65193001338E+02 -0.30465964447E+03 -0.14281787280E+02  0.32480808515E+03  0.90712162046E+02 0.  0.
        254    2    1    2    0    0 -0.65193001338E+02  0.30465964447E+03  0.25000805120E+03  0.98424396078E+03  0.89953572596E+03 0.  0.
        -24    2    4    4    0    0  0.29963552459E+03  0.40399712924E+03 -0.23735771970E+02  0.51000100707E+03  0.80885797959E+02 0.  0.
         24    2    4    4    0    0 -0.36482852593E+03 -0.99337484778E+02  0.27374382317E+03  0.47424295371E+03  0.83683386685E+02 0.  0.
         11    1    3    3    0    0  0.25975004102E+02 -0.18374498529E+03  0.34318333878E+02  0.18871849008E+03  0.00000000000E+00 0. -1.
        -11    1    3    3    0    0  0.39217997236E+02 -0.12091465917E+03 -0.48600121158E+02  0.13608959507E+03  0.00000000000E+00 0.  1.
          2    1    6    6  502    0 -0.11663977310E+02 -0.93366766092E+01 -0.46274611148E+01  0.15640821371E+02  0.00000000000E+00 0. -1.
          3    1    5    5  503    0  0.15629837584E+03  0.21926414429E+03  0.27383742814E+02  0.27065811761E+03  0.00000000000E+00 0. -1.
         -4    1    5    5    0  503  0.14333714875E+03  0.18473298496E+03 -0.51119514783E+02  0.23934288946E+03  0.00000000000E+00 0.  1.
         -1    1    6    6    0  502 -0.35316454862E+03 -0.90000808169E+02  0.27837128428E+03  0.45860213234E+03  0.00000000000E+00 0.  1.
<mgrwt>
<rscale>  0 0.12876531E+04</rscale>
<asrwt>0</asrwt>
<pdfrwt beam="1">  1        1 0.82563521E-01 0.12876531E+04</pdfrwt>
<pdfrwt beam="2">  1       -1 0.11882910E+00 0.12876531E+04</pdfrwt>
<totfact> 0.25053253E+01</totfact>
</mgrwt>
</event>
<event>
12    1  0.1980523E-007  0.1727529E+04  0.7818608E-02  0.8745818E-01
          2   -1    0    0  501    0  0.00000000000E+00  0.00000000000E+00  0.37495982812E+04  0.37495982812E+04  0.00000000000E+00 0. -1.
         -2   -1    0    0    0  501 -0.00000000000E+00 -0.00000000000E+00 -0.19897833749E+03  0.19897833749E+03  0.00000000000E+00 0.  1.
         23    2    1    2    0    0 -0.53876429344E+03  0.29120279277E+03  0.15101972738E+04  0.16321908777E+04  0.91023210818E+02 0.  0.
        254    2    1    2    0    0  0.53876429344E+03 -0.29120279277E+03  0.20404226699E+04  0.23163857410E+04  0.90953405597E+03 0.  0.
        -24    2    4    4    0    0 -0.23940683713E+03 -0.31272564163E+02  0.67669131096E+03  0.72292505435E+03  0.80099294305E+02 0.  0.
         24    2    4    4    0    0  0.77817113058E+03 -0.25993022861E+03  0.13637313590E+04  0.15934606867E+04  0.78991824925E+02 0.  0.
         11    1    3    3    0    0 -0.25100722591E+03  0.16667854305E+03  0.83628466410E+03  0.88890854624E+03  0.00000000000E+00 0. -1.
        -11    1    3    3    0    0 -0.28775706753E+03  0.12452424973E+03  0.67391260973E+03  0.74328233145E+03  0.00000000000E+00 0.  1.
          4    1    6    6  502    0  0.71651875589E+03 -0.22324379418E+03  0.12734576084E+04  0.14781512777E+04  0.00000000000E+00 0. -1.
          3    1    5    5  503    0 -0.24522141141E+03 -0.27654340036E+02  0.66577368875E+03  0.71003725801E+03  0.00000000000E+00 0. -1.
         -4    1    5    5    0  503  0.58145742722E+01 -0.36182241272E+01  0.10917622208E+02  0.12887796339E+02  0.00000000000E+00 0.  1.
         -3    1    6    6    0  502  0.61652374684E+02 -0.36686434434E+02  0.90273750535E+02  0.11530940903E+03  0.00000000000E+00 0.  1.
<mgrwt>
<rscale>  0 0.17275287E+04</rscale>
<asrwt>0</asrwt>
<pdfrwt beam="1">  1        2 0.57686122E+00 0.17275287E+04</pdfrwt>
<pdfrwt beam="2">  1       -2 0.30612055E-01 0.17275287E+04</pdfrwt>
<totfact> 0.50906671E+00</totfact>
</mgrwt>
</event>
<event>
12    1  0.1980523E-007  0.2253938E+04  0.7818608E-02  0.8496308E-01
         -2   -1    0    0    0  501 -0.00000000000E+00  0.00000000000E+00  0.81833372837E+03  0.81833372837E+03  0.00000000000E+00 0.  1.
          2   -1    0    0  501    0  0.00000000000E+00 -0.00000000000E+00 -0.15520058422E+04  0.15520058422E+04  0.00000000000E+00 0. -1.
         23    2    1    2    0    0 -0.19085001454E+03 -0.83653268313E+03 -0.72397468754E+03  0.11265616774E+04  0.93761435521E+02 0.  0.
        254    2    1    2    0    0  0.19085001454E+03  0.83653268313E+03 -0.96974263328E+01  0.12437778932E+04  0.90037700412E+03 0.  0.
        -24    2    4    4    0    0  0.53273658324E+03  0.34564570802E+03 -0.92106307096E+01  0.64015167488E+03  0.80187957520E+02 0.  0.
         24    2    4    4    0    0 -0.34188656870E+03  0.49088697512E+03 -0.48679562316E+00  0.60362621833E+03  0.80671719231E+02 0.  0.
         13    1    3    3    0    0 -0.55986376883E+02 -0.35277247582E+03 -0.35306800247E+03  0.50223491362E+03  0.00000000000E+00 0. -1.
        -13    1    3    3    0    0 -0.13486363766E+03 -0.48376020731E+03 -0.37090668507E+03  0.62432676378E+03  0.00000000000E+00 0.  1.
          2    1    6    6  502    0 -0.10629768842E+03  0.21993946450E+03 -0.95290887851E+01  0.24446547843E+03  0.00000000000E+00 0. -1.
          1    1    5    5  503    0  0.69625580358E+02  0.19184584216E+02  0.11661920138E+02  0.73155793298E+02  0.00000000000E+00 0. -1.
         -2    1    5    5    0  503  0.46311100289E+03  0.32646112380E+03 -0.20872550847E+02  0.56699588158E+03  0.00000000000E+00 0.  1.
         -1    1    6    6    0  502 -0.23558888028E+03  0.27094751061E+03  0.90422931619E+01  0.35916073990E+03  0.00000000000E+00 0.  1.
<mgrwt>
<rscale>  0 0.22539376E+04</rscale>
<asrwt>0</asrwt>
<pdfrwt beam="1">  1        2 0.23877013E+00 0.22539376E+04</pdfrwt>
<pdfrwt beam="2">  1       -2 0.12589750E+00 0.22539376E+04</pdfrwt>
<totfact> 0.50858183E+00</totfact>
</mgrwt>
</event>
<event>
12    1  0.1980523E-007  0.2199906E+04  0.7818608E-02  0.8518467E-01
          2   -1    0    0  501    0  0.00000000000E+00  0.00000000000E+00  0.12204301897E+04  0.12204301897E+04  0.00000000000E+00 0.  1.
         -2   -1    0    0    0  501 -0.00000000000E+00 -0.00000000000E+00 -0.99136881705E+03  0.99136881705E+03  0.00000000000E+00 0. -1.
         23    2    1    2    0    0  0.19969152943E+03 -0.74536642569E+03 -0.38547511943E+03  0.86760111400E+03  0.93235239290E+02 0.  0.
        254    2    1    2    0    0 -0.19969152943E+03  0.74536642569E+03  0.61453649205E+03  0.13441978927E+04  0.91310736459E+03 0.  0.
        -24    2    4    4    0    0 -0.45990472496E+03  0.61524861682E+03  0.14472019268E+03  0.78584494713E+03  0.81025491176E+02 0.  0.
         24    2    4    4    0    0  0.26021319553E+03  0.13011780887E+03  0.46981629937E+03  0.55835294560E+03  0.79931879713E+02 0.  0.
         11    1    3    3    0    0  0.20472480270E+03 -0.68834931335E+03 -0.37208648437E+03  0.80881726853E+03  0.00000000000E+00 0. -1.
        -11    1    3    3    0    0 -0.50332732610E+01 -0.57017112336E+02 -0.13388635058E+02  0.58783845464E+02  0.00000000000E+00 0.  1.
          2    1    6    6  502    0  0.51782140135E+02  0.11675793855E+02  0.14674542403E+03  0.15605106111E+03  0.00000000000E+00 0. -1.
          1    1    5    5  503    0 -0.15800450004E+03  0.23090874141E+03  0.15031190345E+02  0.28019672656E+03  0.00000000000E+00 0. -1.
         -2    1    5    5    0  503 -0.30190022492E+03  0.38433987541E+03  0.12968900234E+03  0.50564822057E+03  0.00000000000E+00 0.  1.
         -1    1    6    6    0  502  0.20843105539E+03  0.11844201501E+03  0.32307087534E+03  0.40230188449E+03  0.00000000000E+00 0.  1.
<mgrwt>
<rscale>  0 0.21999058E+04</rscale>
<asrwt>0</asrwt>
<pdfrwt beam="1">  1        2 0.18775849E+00 0.21999058E+04</pdfrwt>
<pdfrwt beam="2">  1       -2 0.15251828E+00 0.21999058E+04</pdfrwt>
<totfact> 0.48254983E+00</totfact>
</mgrwt>
</event>
<event>
12    1  0.2408127E-007  0.1497289E+04  0.7818608E-02  0.8886258E-01
         -2   -1    0    0    0  501 -0.00000000000E+00  0.00000000000E+00  0.31661640631E+03  0.31661640631E+03  0.00000000000E+00 0.  1.
          2   -1    0    0  501    0  0.00000000000E+00 -0.00000000000E+00 -0.17701812153E+04  0.17701812153E+04  0.00000000000E+00 0. -1.
         23    2    1    2    0    0 -0.46073635008E+03 -0.11581832013E+03 -0.53874601050E+03  0.72401375404E+03  0.90866851212E+02 0.  0.
        254    2    1    2    0    0  0.46073635008E+03  0.11581832013E+03 -0.91481879846E+03  0.13627838675E+04  0.89140034106E+03 0.  0.
        -24    2    4    4    0    0  0.38002634917E+03  0.42146399250E+03 -0.25435192454E+03  0.62613523751E+03  0.72790872332E+02 0.  0.
         24    2    4    4    0    0  0.80710000917E+02 -0.30564567237E+03 -0.66046687392E+03  0.73664863003E+03  0.80630833385E+02 0.  0.
         11    1    3    3    0    0 -0.25168769480E+03 -0.99945619308E+02 -0.26179820685E+03  0.37666181601E+03  0.00000000000E+00 0.  1.
        -11    1    3    3    0    0 -0.20904865528E+03 -0.15872700822E+02 -0.27694780365E+03  0.34735193803E+03  0.00000000000E+00 0. -1.
          4    1    6    6  502    0  0.96719090270E+01 -0.14448475187E+03 -0.23315962657E+03  0.27446821457E+03  0.00000000000E+00 0. -1.
          1    1    5    5  503    0  0.22744184616E+03  0.25872477368E+03 -0.19257618784E+03  0.39465667361E+03  0.00000000000E+00 0. -1.
         -2    1    5    5    0  503  0.15258450301E+03  0.16273921882E+03 -0.61775736705E+02  0.23147856390E+03  0.00000000000E+00 0.  1.
         -3    1    6    6    0  502  0.71038091890E+02 -0.16116092050E+03 -0.42730724735E+03  0.46218041546E+03  0.00000000000E+00 0.  1.
<mgrwt>
<rscale>  0 0.14972888E+04</rscale>
<asrwt>0</asrwt>
<pdfrwt beam="1">  1        2 0.27233557E+00 0.14972888E+04</pdfrwt>
<pdfrwt beam="2">  1       -2 0.48710217E-01 0.14972888E+04</pdfrwt>
<totfact> 0.34573793E+01</totfact>
</mgrwt>
</event>
<event>
12    1  0.1980523E-007  0.1264567E+04  0.7818608E-02  0.9058145E-01
         -2   -1    0    0    0  501 -0.00000000000E+00  0.00000000000E+00  0.26189240703E+03  0.26189240703E+03  0.00000000000E+00 0.  1.
          2   -1    0    0  501    0  0.00000000000E+00 -0.00000000000E+00 -0.15265144523E+04  0.15265144523E+04  0.00000000000E+00 0. -1.
         23    2    1    2    0    0 -0.24739860311E+03 -0.16366924796E+03 -0.33248970223E+03  0.45454245130E+03  0.89809500623E+02 0.  0.
        254    2    1    2    0    0  0.24739860311E+03  0.16366924796E+03 -0.93213234300E+03  0.13338644080E+04  0.90682405267E+03 0.  0.
        -24    2    4    4    0    0  0.22376244952E+02  0.43558769305E+03 -0.14328583514E+03  0.46601044732E+03  0.79984822230E+02 0.  0.
         24    2    4    4    0    0  0.22502235816E+03 -0.27191844509E+03 -0.78884650787E+03  0.86785396068E+03  0.79479441625E+02 0.  0.
         13    1    3    3    0    0 -0.18036121499E+03 -0.13132501255E+03 -0.18696877985E+03  0.29109062409E+03  0.00000000000E+00 0.  1.
        -13    1    3    3    0    0 -0.67037388113E+02 -0.32344235410E+02 -0.14552092238E+03  0.16345182721E+03  0.00000000000E+00 0. -1.
          2    1    6    6  502    0  0.22477393245E+03 -0.26542965035E+03 -0.72973555008E+03  0.80838740283E+03  0.00000000000E+00 0. -1.
          1    1    5    5  503    0  0.26814949747E+02  0.32903239259E+03 -0.72445488074E+02  0.33797885384E+03  0.00000000000E+00 0. -1.
         -2    1    5    5    0  503 -0.44387047957E+01  0.10655530046E+03 -0.70840347063E+02  0.12803159348E+03  0.00000000000E+00 0.  1.
         -1    1    6    6    0  502  0.24842570732E+00 -0.64887947355E+01 -0.59110957785E+02  0.59466557852E+02  0.00000000000E+00 0.  1.
<mgrwt>
<rscale>  0 0.12645672E+04</rscale>
<asrwt>0</asrwt>
<pdfrwt beam="1">  1        2 0.23484838E+00 0.12645672E+04</pdfrwt>
<pdfrwt beam="2">  1       -2 0.40291140E-01 0.12645672E+04</pdfrwt>
<totfact> 0.70227904E+01</totfact>
</mgrwt>
</event>
<event>
12    1  0.1980523E-007  0.1893203E+04  0.7818608E-02  0.8658247E-01
          2   -1    0    0  501    0  0.00000000000E+00  0.00000000000E+00  0.13068715525E+04  0.13068715525E+04  0.00000000000E+00 0. -1.
         -2   -1    0    0    0  501 -0.00000000000E+00 -0.00000000000E+00 -0.68564831646E+03  0.68564831646E+03  0.00000000000E+00 0.  1.
         23    2    1    2    0    0  0.51876356001E+03 -0.49355041671E+03  0.38543291589E+03  0.81839974484E+03  0.92260309296E+02 0.  0.
        254    2    1    2    0    0 -0.51876356001E+03  0.49355041671E+03  0.23579032017E+03  0.11741201241E+04  0.90014073667E+03 0.  0.
        -24    2    4    4    0    0  0.92223361548E+02  0.51420869810E+03  0.53241962634E+02  0.53115771014E+03  0.79862837664E+02 0.  0.
         24    2    4    4    0    0 -0.61098692155E+03 -0.20658281393E+02  0.18254835754E+03  0.64296241401E+03  0.79655383268E+02 0.  0.
         13    1    3    3    0    0  0.31788851995E+03 -0.26823740295E+03  0.17967011917E+03  0.45308472406E+03  0.00000000000E+00 0. -1.
        -13    1    3    3    0    0  0.20087504006E+03 -0.22531301376E+03  0.20576279673E+03  0.36531502078E+03  0.00000000000E+00 0.  1.
          4    1    6    6  502    0 -0.42791883693E+02  0.54117796147E+01 -0.64047389331E+01  0.43605657309E+02  0.00000000000E+00 0. -1.
          3    1    5    5  503    0  0.67714973175E+02  0.18335914081E+03  0.37502655554E+02  0.19902849365E+03  0.00000000000E+00 0. -1.
         -4    1    5    5    0  503  0.24508388372E+02  0.33084955729E+03  0.15739307080E+02  0.33212921649E+03  0.00000000000E+00 0.  1.
         -3    1    6    6    0  502 -0.56819503786E+03 -0.26070061008E+02  0.18895309647E+03  0.59935675670E+03  0.00000000000E+00 0.  1.
<mgrwt>
<rscale>  0 0.18932029E+04</rscale>
<asrwt>0</asrwt>
<pdfrwt beam="1">  1        2 0.20105716E+00 0.18932029E+04</pdfrwt>
<pdfrwt beam="2">  1       -2 0.10548436E+00 0.18932029E+04</pdfrwt>
<totfact> 0.11160406E+01</totfact>
</mgrwt>
</event>
<event>
12    1  0.1980523E-007  0.2287359E+04  0.7818608E-02  0.8482922E-01
         -1   -1    0    0    0  501 -0.00000000000E+00  0.00000000000E+00  0.22573139419E+04  0.22573139419E+04  0.00000000000E+00 0.  1.
          1   -1    0    0  501    0  0.00000000000E+00 -0.00000000000E+00 -0.57945112925E+03  0.57945112925E+03  0.00000000000E+00 0. -1.
         23    2    1    2    0    0 -0.59056326048E+03  0.12591775557E+03  0.16497466353E+04  0.17592306915E+04  0.92781569596E+02 0.  0.
        254    2    1    2    0    0  0.59056326048E+03 -0.12591775557E+03  0.28116177344E+02  0.10775343796E+04  0.89200312441E+03 0.  0.
        -24    2    4    4    0    0  0.77854822046E+03 -0.52149796804E+02 -0.14772316777E+03  0.79814262252E+03  0.79703065871E+02 0.  0.
         24    2    4    4    0    0 -0.18798495998E+03 -0.73767958762E+02  0.17583934511E+03  0.27939175706E+03  0.79750998137E+02 0.  0.
         13    1    3    3    0    0 -0.57309814437E+03  0.11437738884E+03  0.15328269139E+04  0.16404517726E+04  0.00000000000E+00 0. -1.
        -13    1    3    3    0    0 -0.17465116107E+02  0.11540366724E+02  0.11691972134E+03  0.11877891893E+03  0.00000000000E+00 0.  1.
          2    1    6    6  502    0 -0.14828531088E+03 -0.52837488775E+02  0.86998120728E+02  0.17985829604E+03  0.00000000000E+00 0. -1.
          1    1    5    5  503    0  0.57808598271E+03 -0.12352007623E+02 -0.85495308036E+02  0.58450442530E+03  0.00000000000E+00 0. -1.
         -2    1    5    5    0  503  0.20046223774E+03 -0.39797789181E+02 -0.62227859732E+02  0.21363819722E+03  0.00000000000E+00 0.  1.
         -1    1    6    6    0  502 -0.39699649095E+02 -0.20930469987E+02  0.88841224384E+02  0.99533461018E+02  0.00000000000E+00 0.  1.
<mgrwt>
<rscale>  0 0.22873593E+04</rscale>
<asrwt>0</asrwt>
<pdfrwt beam="1">  1        1 0.89146329E-01 0.22873593E+04</pdfrwt>
<pdfrwt beam="2">  1       -1 0.34727906E+00 0.22873593E+04</pdfrwt>
<totfact> 0.52814861E-01</totfact>
</mgrwt>
</event>
<event>
12    1  0.1980523E-007  0.1577856E+04  0.7818608E-02  0.8834269E-01
         -2   -1    0    0    0  501 -0.00000000000E+00  0.00000000000E+00  0.17951856171E+03  0.17951856171E+03  0.00000000000E+00 0.  1.
          2   -1    0    0  501    0  0.00000000000E+00 -0.00000000000E+00 -0.34670910396E+04  0.34670910396E+04  0.00000000000E+00 0. -1.
         23    2    1    2    0    0  0.34859888543E+03  0.31140262628E+03 -0.16512643621E+04  0.17185516710E+04  0.90846429609E+02 0.  0.
        254    2    1    2    0    0 -0.34859888543E+03 -0.31140262628E+03 -0.16363081158E+04  0.19280579304E+04  0.90631691715E+03 0.  0.
        -24    2    4    4    0    0 -0.41730778951E+03  0.56973587906E+02 -0.14308252858E+04  0.14935915383E+04  0.78504165785E+02 0.  0.
         24    2    4    4    0    0  0.68708904077E+02 -0.36837621419E+03 -0.20548283007E+03  0.43446639204E+03  0.78204243378E+02 0.  0.
         13    1    3    3    0    0  0.14330871477E+03  0.89771912638E+02 -0.71638894222E+03  0.73607710232E+03  0.00000000000E+00 0. -1.
        -13    1    3    3    0    0  0.20529017066E+03  0.22163071365E+03 -0.93487541985E+03  0.98247456865E+03  0.00000000000E+00 0.  1.
          2    1    6    6  502    0  0.39073498183E+02 -0.16844598505E+03 -0.51646580752E+02  0.18046649951E+03  0.00000000000E+00 0. -1.
          3    1    5    5  503    0 -0.30807760930E+03  0.13453670002E+02 -0.11040114263E+04  0.11462696209E+04  0.00000000000E+00 0. -1.
         -4    1    5    5    0  503 -0.10923018022E+03  0.43519917903E+02 -0.32681385952E+03  0.34732191738E+03  0.00000000000E+00 0.  1.
         -1    1    6    6    0  502  0.29635405894E+02 -0.19993022913E+03 -0.15383624931E+03  0.25399989253E+03  0.00000000000E+00 0.  1.
<mgrwt>
<rscale>  0 0.15778558E+04</rscale>
<asrwt>0</asrwt>
<pdfrwt beam="1">  1        2 0.53339865E+00 0.15778558E+04</pdfrwt>
<pdfrwt beam="2">  1       -2 0.27618239E-01 0.15778558E+04</pdfrwt>
<totfact> 0.99612840E+00</totfact>
</mgrwt>
</event>
<event>
12    1  0.1980523E-007  0.2373635E+04  0.7818608E-02  0.8449440E-01
         -2   -1    0    0    0  501 -0.00000000000E+00  0.00000000000E+00  0.10875392000E+04  0.10875392000E+04  0.00000000000E+00 0.  1.
          2   -1    0    0  501    0  0.00000000000E+00 -0.00000000000E+00 -0.12951591399E+04  0.12951591399E+04  0.00000000000E+00 0. -1.
         23    2    1    2    0    0  0.39148957997E+02  0.88695580416E+03  0.40214098597E+03  0.97876046359E+03  0.89618262903E+02 0.  0.
        254    2    1    2    0    0 -0.39148957997E+02 -0.88695580416E+03 -0.60976092590E+03  0.14039378763E+04  0.90056089977E+03 0.  0.
        -24    2    4    4    0    0 -0.10527688324E+03 -0.75310216785E+03  0.68504068808E+01  0.76478902596E+03  0.81297163487E+02 0.  0.
         24    2    4    4    0    0  0.66127925243E+02 -0.13385363631E+03 -0.61661133278E+03  0.63914885030E+03  0.77537208290E+02 0.  0.
         13    1    3    3    0    0  0.28316336396E+02  0.57759037651E+03  0.30808412287E+03  0.65523147415E+03  0.00000000000E+00 0.  1.
        -13    1    3    3    0    0  0.10832621601E+02  0.30936542765E+03  0.94056863095E+02  0.32352898944E+03  0.00000000000E+00 0. -1.
          2    1    6    6  502    0  0.34355420516E+01 -0.87284797453E+02 -0.26719135916E+03  0.28110791740E+03  0.00000000000E+00 0. -1.
          3    1    5    5  503    0 -0.90223108448E+02 -0.56995900430E+03  0.38431491248E+02  0.57833420735E+03  0.00000000000E+00 0. -1.
         -4    1    5    5    0  503 -0.15053774792E+02 -0.18314316355E+03 -0.31581084367E+02  0.18645481861E+03  0.00000000000E+00 0.  1.
         -1    1    6    6    0  502  0.62692383192E+02 -0.46568838857E+02 -0.34941997362E+03  0.35804093289E+03  0.00000000000E+00 0.  1.
<mgrwt>
<rscale>  0 0.23736355E+04</rscale>
<asrwt>0</asrwt>
<pdfrwt beam="1">  1        2 0.19925525E+00 0.23736355E+04</pdfrwt>
<pdfrwt beam="2">  1       -2 0.16731372E+00 0.23736355E+04</pdfrwt>
<totfact> 0.33408702E+00</totfact>
</mgrwt>
</event>
<event>
12    1  0.1980523E-007  0.1621313E+04  0.7818608E-02  0.8807561E-01
         -2   -1    0    0    0  501 -0.00000000000E+00  0.00000000000E+00  0.22305930808E+03  0.22305930808E+03  0.00000000000E+00 0. -1.
          2   -1    0    0  501    0  0.00000000000E+00 -0.00000000000E+00 -0.29461389983E+04  0.29461389983E+04  0.00000000000E+00 0.  1.
         23    2    1    2    0    0 -0.48369727790E+03 -0.15618799832E+03 -0.14111771667E+04  0.15028586064E+04  0.93836279417E+02 0.  0.
        254    2    1    2    0    0  0.48369727790E+03  0.15618799832E+03 -0.13119025235E+04  0.16663397000E+04  0.89288410067E+03 0.  0.
        -24    2    4    4    0    0  0.45264073959E+03  0.40665348576E+03 -0.12531005898E+04  0.13958751761E+04  0.89194856630E+02 0.  0.
         24    2    4    4    0    0  0.31056538319E+02 -0.25046548744E+03 -0.58801933729E+02  0.27046452396E+03  0.77433341277E+02 0.  0.
         11    1    3    3    0    0 -0.20110554095E+03 -0.59121472222E+02 -0.71924412852E+03  0.74916680618E+03  0.00000000000E+00 0.  1.
        -11    1    3    3    0    0 -0.28259173695E+03 -0.97066526100E+02 -0.69193303823E+03  0.75369180019E+03  0.00000000000E+00 0. -1.
          4    1    6    6  502    0  0.51010914254E+02 -0.13220550452E+03 -0.13831265712E+02  0.14237876495E+03  0.00000000000E+00 0. -1.
          3    1    5    5  503    0  0.20293924981E+03  0.18457192283E+03 -0.66688945479E+03  0.72110517868E+03  0.00000000000E+00 0. -1.
         -4    1    5    5    0  503  0.24970148978E+03  0.22208156293E+03 -0.58621113499E+03  0.67476999739E+03  0.00000000000E+00 0.  1.
         -3    1    6    6    0  502 -0.19954375935E+02 -0.11825998292E+03 -0.44970668017E+02  0.12808575901E+03  0.00000000000E+00 0.  1.
<mgrwt>
<rscale>  0 0.16213127E+04</rscale>
<asrwt>0</asrwt>
<pdfrwt beam="1">  1        2 0.45325214E+00 0.16213127E+04</pdfrwt>
<pdfrwt beam="2">  1       -2 0.34316818E-01 0.16213127E+04</pdfrwt>
<totfact> 0.14403055E+01</totfact>
</mgrwt>
</event>
<event>
12    1  0.1980523E-007  0.2665839E+04  0.7818608E-02  0.8346175E-01
          2   -1    0    0  501    0  0.00000000000E+00  0.00000000000E+00  0.14242129209E+04  0.14242129209E+04  0.00000000000E+00 0. -1.
         -2   -1    0    0    0  501 -0.00000000000E+00 -0.00000000000E+00 -0.12474777299E+04  0.12474777299E+04  0.00000000000E+00 0.  1.
         23    2    1    2    0    0  0.11289326790E+04 -0.39116226876E+02  0.41740003893E+03  0.12081306050E+04  0.96631740648E+02 0.  0.
        254    2    1    2    0    0 -0.11289326790E+04  0.39116226876E+02 -0.24066484793E+03  0.14635600458E+04  0.89892678540E+03 0.  0.
        -24    2    4    4    0    0 -0.79245544068E+03 -0.39138564695E+03 -0.20628795723E+03  0.91048755936E+03  0.72557041976E+02 0.  0.
         24    2    4    4    0    0 -0.33647723836E+03  0.43050187382E+03 -0.34376890699E+02  0.55307248640E+03  0.78476807429E+02 0.  0.
         13    1    3    3    0    0  0.64227767481E+03 -0.49693290119E+02  0.19582745004E+03  0.67330411022E+03  0.00000000000E+00 0.  1.
        -13    1    3    3    0    0  0.48665500423E+03  0.10577063243E+02  0.22157258889E+03  0.53482649481E+03  0.00000000000E+00 0. -1.
          4    1    6    6  502    0 -0.16527915640E+03  0.18863739230E+03  0.20777580505E+02  0.25166043227E+03  0.00000000000E+00 0. -1.
          1    1    5    5  503    0 -0.11902999193E+02 -0.13742153387E+02 -0.12284046438E+02  0.21941421248E+02  0.00000000000E+00 0. -1.
         -2    1    5    5    0  503 -0.78055244149E+03 -0.37764349356E+03 -0.19400391080E+03  0.88854613811E+03  0.00000000000E+00 0.  1.
         -1    1    6    6    0  502 -0.17119808195E+03  0.24186448152E+03 -0.55154471205E+02  0.30141205414E+03  0.00000000000E+00 0.  1.
<mgrwt>
<rscale>  0 0.26658386E+04</rscale>
<asrwt>0</asrwt>
<pdfrwt beam="1">  1        2 0.21910968E+00 0.26658386E+04</pdfrwt>
<pdfrwt beam="2">  1       -2 0.19191965E+00 0.26658386E+04</pdfrwt>
<totfact> 0.18557588E+00</totfact>
</mgrwt>
</event>
<event>
12    1  0.1980523E-007  0.1057860E+04  0.7818608E-02  0.9247266E-01
          2   -1    0    0  501    0  0.00000000000E+00  0.00000000000E+00  0.83877220333E+03  0.83877220333E+03  0.00000000000E+00 0.  1.
         -2   -1    0    0    0  501 -0.00000000000E+00 -0.00000000000E+00 -0.33354353834E+03  0.33354353834E+03  0.00000000000E+00 0. -1.
         23    2    1    2    0    0 -0.48200169145E+01 -0.11710964758E+03  0.65624803251E+02  0.16620197287E+03  0.97870214388E+02 0.  0.
        254    2    1    2    0    0  0.48200169145E+01  0.11710964758E+03  0.43960386174E+03  0.10061137688E+04  0.89737141608E+03 0.  0.
        -24    2    4    4    0    0 -0.95645302024E+02  0.44417516862E+03  0.46356949376E+03  0.65388316195E+03  0.78910770620E+02 0.  0.
         24    2    4    4    0    0  0.10046531894E+03 -0.32706552103E+03 -0.23965632017E+02  0.35223060685E+03  0.80168033078E+02 0.  0.
         11    1    3    3    0    0 -0.16232678483E+02 -0.13213303968E+03  0.51963255172E+02  0.14290843192E+03  0.00000000000E+00 0.  1.
        -11    1    3    3    0    0  0.11412661568E+02  0.15023392096E+02  0.13661548079E+02  0.23293540952E+02  0.00000000000E+00 0. -1.
          2    1    6    6  502    0  0.48725433014E+02 -0.85189863522E+02 -0.36141679623E+02  0.10458346750E+03  0.00000000000E+00 0. -1.
          3    1    5    5  503    0 -0.85628548272E+01  0.13056761612E+02  0.10838817001E+01  0.15651718951E+02  0.00000000000E+00 0. -1.
         -4    1    5    5    0  503 -0.87082447197E+02  0.43111840700E+03  0.46248561206E+03  0.63823144299E+03  0.00000000000E+00 0.  1.
         -1    1    6    6    0  502  0.51739885925E+02 -0.24187565751E+03  0.12176047606E+02  0.24764713935E+03  0.00000000000E+00 0.  1.
<mgrwt>
<rscale>  0 0.10578602E+04</rscale>
<asrwt>0</asrwt>
<pdfrwt beam="1">  1        2 0.12904188E+00 0.10578602E+04</pdfrwt>
<pdfrwt beam="2">  1       -2 0.51314391E-01 0.10578602E+04</pdfrwt>
<totfact> 0.11542801E+02</totfact>
</mgrwt>
</event>
<event>
12    1  0.1980523E-007  0.2320647E+04  0.7818608E-02  0.8469824E-01
         -2   -1    0    0    0  501 -0.00000000000E+00  0.00000000000E+00  0.53842363769E+03  0.53842363769E+03  0.00000000000E+00 0.  1.
          2   -1    0    0  501    0  0.00000000000E+00 -0.00000000000E+00 -0.25005419611E+04  0.25005419611E+04  0.00000000000E+00 0. -1.
         23    2    1    2    0    0 -0.65568562413E+03 -0.93697211795E+02  0.11701370602E+03  0.67881927364E+03  0.91654752669E+02 0.  0.
        254    2    1    2    0    0  0.65568562413E+03  0.93697211795E+02 -0.20791320294E+04  0.23601463251E+04  0.89933190488E+03 0.  0.
        -24    2    4    4    0    0  0.81212075030E+03 -0.56311168807E+02 -0.18994265058E+04  0.20681071493E+04  0.80839775179E+02 0.  0.
         24    2    4    4    0    0 -0.15643512617E+03  0.15000838060E+03 -0.17970552361E+03  0.29203917584E+03  0.77577974038E+02 0.  0.
         13    1    3    3    0    0 -0.23494396448E+03 -0.77729007637E+02  0.36491216374E+02  0.25014410636E+03  0.00000000000E+00 0.  1.
        -13    1    3    3    0    0 -0.42074165964E+03 -0.15968204158E+02  0.80522489650E+02  0.42867516728E+03  0.00000000000E+00 0. -1.
          4    1    6    6  502    0  0.48170131307E+01  0.21943701543E+02 -0.29869653468E+02  0.37375471250E+02  0.00000000000E+00 0. -1.
          1    1    5    5  503    0  0.12579322643E+03 -0.33516202300E+02 -0.26376129123E+03  0.29413821647E+03  0.00000000000E+00 0. -1.
         -2    1    5    5    0  503  0.68632752386E+03 -0.22794966508E+02 -0.16356652146E+04  0.17739689328E+04  0.00000000000E+00 0.  1.
         -3    1    6    6    0  502 -0.16125213930E+03  0.12806467906E+03 -0.14983587014E+03  0.25466370459E+03  0.00000000000E+00 0.  1.
<mgrwt>
<rscale>  0 0.23206472E+04</rscale>
<asrwt>0</asrwt>
<pdfrwt beam="1">  1        2 0.38469876E+00 0.23206472E+04</pdfrwt>
<pdfrwt beam="2">  1       -2 0.82834407E-01 0.23206472E+04</pdfrwt>
<totfact> 0.40226044E+00</totfact>
</mgrwt>
</event>
<event>
12    1  0.1980523E-007  0.1580897E+04  0.7818608E-02  0.8832370E-01
          1   -1    0    0  501    0  0.00000000000E+00  0.00000000000E+00  0.17106977887E+04  0.17106977887E+04  0.00000000000E+00 0. -1.
         -1   -1    0    0    0  501 -0.00000000000E+00 -0.00000000000E+00 -0.36523621048E+03  0.36523621048E+03  0.00000000000E+00 0.  1.
         23    2    1    2    0    0 -0.35916775197E+03 -0.38724047053E+03  0.48079353236E+03  0.71990264501E+03  0.90226057542E+02 0.  0.
        254    2    1    2    0    0  0.35916775197E+03  0.38724047053E+03  0.86466804589E+03  0.13560313542E+04  0.90122890984E+03 0.  0.
        -24    2    4    4    0    0  0.46629575410E+02 -0.16521332572E+03 -0.88000984733E+02  0.20856035420E+03  0.79268453562E+02 0.  0.
         24    2    4    4    0    0  0.31253817656E+03  0.55245379625E+03  0.95266903062E+03  0.11474710000E+04  0.78905672472E+02 0.  0.
         13    1    3    3    0    0 -0.59845777455E+02 -0.28393664629E+02  0.39230421022E+02  0.76985344084E+02  0.00000000000E+00 0.  1.
        -13    1    3    3    0    0 -0.29932197451E+03 -0.35884680590E+03  0.44156311134E+03  0.64291730093E+03  0.00000000000E+00 0. -1.
          2    1    6    6  502    0  0.17905698101E+03  0.38084461378E+03  0.59190669481E+03  0.72626273321E+03  0.00000000000E+00 0. -1.
          1    1    5    5  503    0  0.35044607441E+01 -0.13678281309E+03 -0.71194370135E+02  0.15424155581E+03  0.00000000000E+00 0. -1.
         -4    1    5    5    0  503  0.43125114666E+02 -0.28430512638E+02 -0.16806614598E+02  0.54318798385E+02  0.00000000000E+00 0.  1.
         -1    1    6    6    0  502  0.13348119555E+03  0.17160918247E+03  0.36076233581E+03  0.42120826680E+03  0.00000000000E+00 0.  1.
<mgrwt>
<rscale>  0 0.15808969E+04</rscale>
<asrwt>0</asrwt>
<pdfrwt beam="1">  1        1 0.26318427E+00 0.15808969E+04</pdfrwt>
<pdfrwt beam="2">  1       -1 0.56190187E-01 0.15808969E+04</pdfrwt>
<totfact> 0.14433751E+01</totfact>
</mgrwt>
</event>
<event>
12    1  0.1980523E-007  0.1983713E+04  0.7818608E-02  0.8614274E-01
         -2   -1    0    0    0  501 -0.00000000000E+00  0.00000000000E+00  0.10809807802E+04  0.10809807802E+04  0.00000000000E+00 0.  1.
          2   -1    0    0  501    0  0.00000000000E+00 -0.00000000000E+00 -0.91007999822E+03  0.91007999822E+03  0.00000000000E+00 0. -1.
         23    2    1    2    0    0  0.17881619104E+03  0.31428346587E+03  0.76912267411E+03  0.85460826069E+03  0.89756695116E+02 0.  0.
        254    2    1    2    0    0 -0.17881619104E+03 -0.31428346587E+03 -0.59822189209E+03  0.11364525178E+04  0.89604997957E+03 0.  0.
        -24    2    4    4    0    0  0.21932081793E+03 -0.25219710689E+03 -0.63703168380E+03  0.72377118123E+03  0.79563526230E+02 0.  0.
         24    2    4    4    0    0 -0.39813700898E+03 -0.62086358972E+02  0.38809791715E+02  0.41268133655E+03  0.80199075509E+02 0.  0.
         13    1    3    3    0    0  0.98125835304E+00  0.75788666432E+01 -0.70480157610E-01  0.76424508506E+01  0.00000000000E+00 0. -1.
        -13    1    3    3    0    0  0.17783493269E+03  0.30670459922E+03  0.76919315427E+03  0.84696580984E+03  0.00000000000E+00 0.  1.
          2    1    6    6  502    0 -0.25910050330E+03 -0.70439869211E+02  0.49324836338E+02  0.27299777557E+03  0.00000000000E+00 0. -1.
          1    1    5    5  503    0  0.10146622685E+03 -0.82274325032E+02 -0.31557589926E+03  0.34154444505E+03  0.00000000000E+00 0. -1.
         -2    1    5    5    0  503  0.11785459109E+03 -0.16992278186E+03 -0.32145578454E+03  0.38222673618E+03  0.00000000000E+00 0.  1.
         -1    1    6    6    0  502 -0.13903650568E+03  0.83535102388E+01 -0.10515044623E+02  0.13968356098E+03  0.00000000000E+00 0.  1.
<mgrwt>
<rscale>  0 0.19837127E+04</rscale>
<asrwt>0</asrwt>
<pdfrwt beam="1">  1        2 0.14001231E+00 0.19837127E+04</pdfrwt>
<pdfrwt beam="2">  1       -2 0.16630474E+00 0.19837127E+04</pdfrwt>
<totfact> 0.60813927E+00</totfact>
</mgrwt>
</event>
<event>
12    1  0.1980523E-007  0.1610081E+04  0.7818608E-02  0.8814379E-01
         -1   -1    0    0    0  501 -0.00000000000E+00  0.00000000000E+00  0.78428632595E+03  0.78428632595E+03  0.00000000000E+00 0.  1.
          1   -1    0    0  501    0  0.00000000000E+00 -0.00000000000E+00 -0.82634408608E+03  0.82634408608E+03  0.00000000000E+00 0. -1.
         23    2    1    2    0    0  0.34203384500E+02 -0.54408072555E+03  0.49877082028E+02  0.55449208091E+03  0.88204518341E+02 0.  0.
        254    2    1    2    0    0 -0.34203384500E+02  0.54408072555E+03 -0.91934842156E+02  0.10561383311E+04  0.89987913179E+03 0.  0.
        -24    2    4    4    0    0  0.80789705645E+02  0.74270983174E+03  0.84211352042E+02  0.75596499458E+03  0.79035754678E+02 0.  0.
         24    2    4    4    0    0 -0.11499309014E+03 -0.19862910619E+03 -0.17614619420E+03  0.30017333654E+03  0.79997610186E+02 0.  0.
         11    1    3    3    0    0  0.17295004413E+02 -0.13424811548E+03 -0.24682102549E+02  0.13758953403E+03  0.00000000000E+00 0. -1.
        -11    1    3    3    0    0  0.16908380087E+02 -0.40983261007E+03  0.74559184577E+02  0.41690254688E+03  0.00000000000E+00 0.  1.
          4    1    6    6  502    0 -0.11650270444E+03 -0.13508794722E+03 -0.11685546258E+03  0.21325297832E+03  0.00000000000E+00 0. -1.
          1    1    5    5  503    0  0.62195945759E+02  0.57965060493E+03  0.32451448072E+02  0.58388034386E+03  0.00000000000E+00 0. -1.
         -2    1    5    5    0  503  0.18593759887E+02  0.16305922681E+03  0.51759903970E+02  0.17208465072E+03  0.00000000000E+00 0.  1.
         -3    1    6    6    0  502  0.15096142989E+01 -0.63541158970E+02 -0.59290731616E+02  0.86920358226E+02  0.00000000000E+00 0.  1.
<mgrwt>
<rscale>  0 0.16100812E+04</rscale>
<asrwt>0</asrwt>
<pdfrwt beam="1">  1        1 0.12712986E+00 0.16100812E+04</pdfrwt>
<pdfrwt beam="2">  1       -1 0.12065944E+00 0.16100812E+04</pdfrwt>
<totfact> 0.12288161E+01</totfact>
</mgrwt>
</event>
<event>
12    1  0.1980523E-007  0.1885807E+04  0.7818608E-02  0.8661953E-01
         -2   -1    0    0    0  501 -0.00000000000E+00  0.00000000000E+00  0.91012180400E+03  0.91012180400E+03  0.00000000000E+00 0.  1.
          2   -1    0    0  501    0  0.00000000000E+00 -0.00000000000E+00 -0.97686629652E+03  0.97686629652E+03  0.00000000000E+00 0. -1.
         23    2    1    2    0    0 -0.67609494701E+03 -0.15414111030E+03 -0.23872491691E+03  0.73979413632E+03  0.97169536946E+02 0.  0.
        254    2    1    2    0    0  0.67609494701E+03  0.15414111030E+03  0.17198042439E+03  0.11471939642E+04  0.89755939406E+03 0.  0.
        -24    2    4    4    0    0 -0.18768020029E+03  0.16872108573E+03  0.92180814557E+01  0.26444282576E+03  0.78449810200E+02 0.  0.
         24    2    4    4    0    0  0.86377514730E+03 -0.14579975425E+02  0.16276234293E+03  0.88275113845E+03  0.80236596212E+02 0.  0.
         13    1    3    3    0    0 -0.47128060003E+03 -0.10701032839E+03 -0.11820441177E+03  0.49752276059E+03  0.00000000000E+00 0.  1.
        -13    1    3    3    0    0 -0.20481434698E+03 -0.47130781915E+02 -0.12052050515E+03  0.24227137573E+03  0.00000000000E+00 0. -1.
          4    1    6    6  502    0  0.66945704825E+03 -0.44536701327E+02  0.13041901293E+03  0.68349497156E+03  0.00000000000E+00 0. -1.
          3    1    5    5  503    0 -0.12602854048E+03  0.14730779994E+03  0.29511270528E+02  0.19609613975E+03  0.00000000000E+00 0. -1.
         -4    1    5    5    0  503 -0.61651659805E+02  0.21413285792E+02 -0.20293189073E+02  0.68346686005E+02  0.00000000000E+00 0.  1.
         -3    1    6    6    0  502  0.19431809905E+03  0.29956725902E+02  0.32343330004E+02  0.19925616688E+03  0.00000000000E+00 0.  1.
<mgrwt>
<rscale>  0 0.18858073E+04</rscale>
<asrwt>0</asrwt>
<pdfrwt beam="1">  1        2 0.15028712E+00 0.18858073E+04</pdfrwt>
<pdfrwt beam="2">  1       -2 0.14001874E+00 0.18858073E+04</pdfrwt>
<totfact> 0.87761666E+00</totfact>
</mgrwt>
</event>
<event>
12    1  0.1980523E-007  0.1246616E+04  0.7818608E-02  0.9073004E-01
          2   -1    0    0  501    0  0.00000000000E+00  0.00000000000E+00  0.13198150240E+04  0.13198150240E+04  0.00000000000E+00 0. -1.
         -2   -1    0    0    0  501 -0.00000000000E+00 -0.00000000000E+00 -0.29436940302E+03  0.29436940302E+03  0.00000000000E+00 0.  1.
         23    2    1    2    0    0 -0.23425205511E+03 -0.16637167140E+03  0.24084016201E+03  0.38616600408E+03  0.92556148915E+02 0.  0.
        254    2    1    2    0    0  0.23425205511E+03  0.16637167140E+03  0.78460545898E+03  0.12280184230E+04  0.89992775405E+03 0.  0.
        -24    2    4    4    0    0  0.51179984847E+03  0.19502453500E+03  0.75728273151E+03  0.93825938804E+03  0.82945100260E+02 0.  0.
         24    2    4    4    0    0 -0.27754779337E+03 -0.28652863603E+02  0.27322727476E+02  0.28975903493E+03  0.73212039251E+02 0.  0.
         11    1    3    3    0    0 -0.20036004233E+03 -0.17237913915E+03  0.22915805611E+03  0.34981727924E+03  0.00000000000E+00 0. -1.
        -11    1    3    3    0    0 -0.33892012777E+02  0.60074677541E+01  0.11682105906E+02  0.36348724837E+02  0.00000000000E+00 0.  1.
          4    1    6    6  502    0 -0.18157558589E+03  0.12775590860E+02  0.12689134828E+01  0.18202889676E+03  0.00000000000E+00 0. -1.
          3    1    5    5  503    0  0.38528361545E+03  0.16663090375E+03  0.62620787383E+03  0.75388700988E+03  0.00000000000E+00 0. -1.
         -4    1    5    5    0  503  0.12651623302E+03  0.28393631256E+02  0.13107485768E+03  0.18437237816E+03  0.00000000000E+00 0.  1.
         -3    1    6    6    0  502 -0.95972207477E+02 -0.41428454463E+02  0.26053813993E+02  0.10773013817E+03  0.00000000000E+00 0.  1.
<mgrwt>
<rscale>  0 0.12466165E+04</rscale>
<asrwt>0</asrwt>
<pdfrwt beam="1">  1        2 0.20304846E+00 0.12466165E+04</pdfrwt>
<pdfrwt beam="2">  1       -2 0.45287601E-01 0.12466165E+04</pdfrwt>
<totfact> 0.73188961E+01</totfact>
</mgrwt>
</event>
<event>
12    1  0.1980523E-007  0.1721753E+04  0.7818608E-02  0.8749054E-01
         -2   -1    0    0    0  501 -0.00000000000E+00  0.00000000000E+00  0.43874899795E+03  0.43874899795E+03  0.00000000000E+00 0. -1.
          2   -1    0    0  501    0  0.00000000000E+00 -0.00000000000E+00 -0.16891400102E+04  0.16891400102E+04  0.00000000000E+00 0.  1.
         23    2    1    2    0    0  0.29748158502E+03  0.53363116279E+03 -0.63247296890E+03  0.88404225222E+03  0.90835763861E+02 0.  0.
        254    2    1    2    0    0 -0.29748158502E+03 -0.53363116279E+03 -0.61791804337E+03  0.12438467560E+04  0.88998569238E+03 0.  0.
        -24    2    4    4    0    0  0.12531736294E+03 -0.16644458485E+03  0.16558872788E+03  0.27754997033E+03  0.78778918181E+02 0.  0.
         24    2    4    4    0    0 -0.42279894796E+03 -0.36718657794E+03 -0.78350677125E+03  0.96629678563E+03  0.79130802434E+02 0.  0.
         13    1    3    3    0    0  0.25106157566E+03  0.49674478959E+03 -0.55017771316E+03  0.78261281411E+03  0.00000000000E+00 0.  1.
        -13    1    3    3    0    0  0.46420009366E+02  0.36886373195E+02 -0.82295255745E+02  0.10142943811E+03  0.00000000000E+00 0. -1.
          2    1    6    6  502    0 -0.14991568709E+02 -0.35665987861E+02 -0.38607198539E+02  0.54656432389E+02  0.00000000000E+00 0. -1.
          3    1    5    5  503    0  0.17716293010E+01  0.82109216269E+01  0.32998814316E+01  0.90248059152E+01  0.00000000000E+00 0. -1.
         -4    1    5    5    0  503  0.12354573364E+03 -0.17465550647E+03  0.16228884645E+03  0.26852516441E+03  0.00000000000E+00 0.  1.
         -1    1    6    6    0  502 -0.40780737925E+03 -0.33152059008E+03 -0.74489957271E+03  0.91164035324E+03  0.00000000000E+00 0.  1.
<mgrwt>
<rscale>  0 0.17217532E+04</rscale>
<asrwt>0</asrwt>
<pdfrwt beam="1">  1        2 0.25986769E+00 0.17217532E+04</pdfrwt>
<pdfrwt beam="2">  1       -2 0.67499847E-01 0.17217532E+04</pdfrwt>
<totfact> 0.19005936E+01</totfact>
</mgrwt>
</event>
<event>
12    1  0.1980523E-007  0.4815871E+04  0.7818608E-02  0.7857556E-01
          1   -1    0    0  501    0  0.00000000000E+00  0.00000000000E+00  0.38744314904E+04  0.38744314904E+04  0.00000000000E+00 0. -1.
         -1   -1    0    0    0  501 -0.00000000000E+00 -0.00000000000E+00 -0.14965174567E+04  0.14965174567E+04  0.00000000000E+00 0.  1.
         23    2    1    2    0    0 -0.83747353519E+03 -0.15481461546E+04 -0.54251361907E+03  0.18440946643E+04  0.90805648563E+02 0.  0.
        254    2    1    2    0    0  0.83747353519E+03  0.15481461546E+04  0.29204276528E+04  0.35268542828E+04  0.90093563515E+03 0.  0.
        -24    2    4    4    0    0  0.42109707068E+03  0.12216958654E+04  0.13619603477E+04  0.18791669159E+04  0.80428719699E+02 0.  0.
         24    2    4    4    0    0  0.41637646452E+03  0.32645028923E+03  0.15584673052E+04  0.16476873669E+04  0.78193133703E+02 0.  0.
         13    1    3    3    0    0 -0.59472339515E+03 -0.11818945426E+04 -0.40611160295E+03  0.13840149062E+04  0.00000000000E+00 0.  1.
        -13    1    3    3    0    0 -0.24275014004E+03 -0.36625161196E+03 -0.13640201613E+03  0.46007975804E+03  0.00000000000E+00 0. -1.
          4    1    6    6  502    0  0.38433066045E+03  0.27291361051E+03  0.13402955560E+04  0.14207688316E+04  0.00000000000E+00 0. -1.
          3    1    5    5  503    0  0.41585127827E+03  0.11688119079E+04  0.12903074891E+04  0.17899572560E+04  0.00000000000E+00 0. -1.
         -4    1    5    5    0  503  0.52457924125E+01  0.52883957445E+02  0.71652858541E+02  0.89209659960E+02  0.00000000000E+00 0.  1.
         -3    1    6    6    0  502  0.32045804062E+02  0.53536678719E+02  0.21817174914E+03  0.22691853527E+03  0.00000000000E+00 0.  1.
<mgrwt>
<rscale>  0 0.48158714E+04</rscale>
<asrwt>0</asrwt>
<pdfrwt beam="1">  1        1 0.59606638E+00 0.48158714E+04</pdfrwt>
<pdfrwt beam="2">  1       -1 0.23023346E+00 0.48158714E+04</pdfrwt>
<totfact> 0.84710040E-03</totfact>
</mgrwt>
</event>
<event>
12    1  0.1980523E-007  0.2149164E+04  0.7818608E-02  0.8539890E-01
         -2   -1    0    0    0  501 -0.00000000000E+00  0.00000000000E+00  0.88831319185E+03  0.88831319185E+03  0.00000000000E+00 0.  1.
          2   -1    0    0  501    0  0.00000000000E+00 -0.00000000000E+00 -0.12999092661E+04  0.12999092661E+04  0.00000000000E+00 0. -1.
         23    2    1    2    0    0  0.49369021946E+03 -0.39943590451E+03 -0.80112689378E+03  0.10252473798E+04  0.77774129059E+02 0.  0.
        254    2    1    2    0    0 -0.49369021946E+03  0.39943590451E+03  0.38953081950E+03  0.11629750782E+04  0.89302726644E+03 0.  0.
        -24    2    4    4    0    0 -0.65009841495E+03  0.34503486779E+03  0.54729182138E+03  0.92156013295E+03  0.89820553218E+02 0.  0.
         24    2    4    4    0    0  0.15640819549E+03  0.54401036715E+02 -0.15776100187E+03  0.24141494527E+03  0.77263482152E+02 0.  0.
         13    1    3    3    0    0  0.19761741746E+03 -0.18321405650E+03 -0.28579043801E+03  0.39280556086E+03  0.00000000000E+00 0.  1.
        -13    1    3    3    0    0  0.29607280200E+03 -0.21622184800E+03 -0.51533645578E+03  0.63244181890E+03  0.00000000000E+00 0. -1.
          2    1    6    6  502    0  0.15989090539E+01  0.63362355336E+01 -0.41308114406E+02  0.41821820940E+02  0.00000000000E+00 0. -1.
          3    1    5    5  503    0 -0.55832992833E+02  0.58471826707E+02  0.46448169973E+02  0.93240067037E+02  0.00000000000E+00 0. -1.
         -4    1    5    5    0  503 -0.59426542212E+03  0.28656304109E+03  0.50084365140E+03  0.82832006591E+03  0.00000000000E+00 0.  1.
         -1    1    6    6    0  502  0.15480928644E+03  0.48064801181E+02 -0.11645288747E+03  0.19959312433E+03  0.00000000000E+00 0.  1.
<mgrwt>
<rscale>  0 0.21491641E+04</rscale>
<asrwt>0</asrwt>
<pdfrwt beam="1">  1        2 0.19998604E+00 0.21491641E+04</pdfrwt>
<pdfrwt beam="2">  1       -2 0.13666357E+00 0.21491641E+04</pdfrwt>
<totfact> 0.58028778E+00</totfact>
</mgrwt>
</event>
<event>
12    1  0.1980523E-007  0.2540304E+04  0.7818608E-02  0.8388766E-01
          1   -1    0    0  501    0  0.00000000000E+00  0.00000000000E+00  0.20141324378E+04  0.20141324378E+04  0.00000000000E+00 0. -1.
         -1   -1    0    0    0  501 -0.00000000000E+00 -0.00000000000E+00 -0.80098317751E+03  0.80098317751E+03  0.00000000000E+00 0.  1.
         23    2    1    2    0    0  0.10425055189E+04 -0.32558872083E+03  0.31872411899E+03  0.11412085871E+04  0.89141478074E+02 0.  0.
        254    2    1    2    0    0 -0.10425055189E+04  0.32558872083E+03  0.89442514133E+03  0.16739070283E+04  0.89952355939E+03 0.  0.
        -24    2    4    4    0    0 -0.80128374347E+03  0.46076685842E+03  0.23894760562E+03  0.95797184476E+03  0.79071877074E+02 0.  0.
         24    2    4    4    0    0 -0.24122177541E+03 -0.13517813759E+03  0.65547753572E+03  0.71593518354E+03  0.80320068425E+02 0.  0.
         13    1    3    3    0    0  0.70358731558E+03 -0.25864403608E+03  0.23718602917E+03  0.78624999871E+03  0.00000000000E+00 0. -1.
        -13    1    3    3    0    0  0.33891820330E+03 -0.66944684747E+02  0.81538089824E+02  0.35495858834E+03  0.00000000000E+00 0.  1.
          2    1    6    6  502    0 -0.23056555154E+03 -0.10683229991E+03  0.54411535563E+03  0.60052904517E+03  0.00000000000E+00 0. -1.
          1    1    5    5  503    0 -0.55093506257E+03  0.31515245210E+03  0.12588721286E+03  0.64706885383E+03  0.00000000000E+00 0. -1.
         -2    1    5    5    0  503 -0.25034868090E+03  0.14561440632E+03  0.11306039275E+03  0.31090299092E+03  0.00000000000E+00 0.  1.
         -1    1    6    6    0  502 -0.10656223875E+02 -0.28345837677E+02  0.11136218008E+03  0.11540613837E+03  0.00000000000E+00 0.  1.
<mgrwt>
<rscale>  0 0.25403041E+04</rscale>
<asrwt>0</asrwt>
<pdfrwt beam="1">  1        1 0.30986653E+00 0.25403041E+04</pdfrwt>
<pdfrwt beam="2">  1       -1 0.12322818E+00 0.25403041E+04</pdfrwt>
<totfact> 0.14960654E+00</totfact>
</mgrwt>
</event>
<event>
12    1  0.1980523E-007  0.2806776E+04  0.7818608E-02  0.8301168E-01
          1   -1    0    0  501    0  0.00000000000E+00  0.00000000000E+00  0.78105823966E+03  0.78105823966E+03  0.00000000000E+00 0. -1.
         -1   -1    0    0    0  501 -0.00000000000E+00 -0.00000000000E+00 -0.25215761915E+04  0.25215761915E+04  0.00000000000E+00 0.  1.
         23    2    1    2    0    0 -0.47117912768E+03 -0.23843114722E+03  0.56060006992E+03  0.77537447545E+03  0.89855197212E+02 0.  0.
        254    2    1    2    0    0  0.47117912768E+03  0.23843114722E+03 -0.23011180218E+04  0.25272599557E+04  0.90168705842E+03 0.  0.
        -24    2    4    4    0    0  0.19773946169E+03 -0.27233755390E+03 -0.35728993118E+03  0.49735097708E+03  0.80207615029E+02 0.  0.
         24    2    4    4    0    0  0.27343966599E+03  0.51076870112E+03 -0.19438280906E+04  0.20299089786E+04  0.80055598017E+02 0.  0.
         11    1    3    3    0    0 -0.29591953513E+03 -0.10245282573E+03  0.30873270377E+03  0.43975087851E+03  0.00000000000E+00 0.  1.
        -11    1    3    3    0    0 -0.17525959255E+03 -0.13597832149E+03  0.25186736615E+03  0.33562359695E+03  0.00000000000E+00 0. -1.
          2    1    6    6  502    0  0.52458066350E+01 -0.17933620438E+01 -0.10299788434E+02  0.11697019982E+02  0.00000000000E+00 0. -1.
          1    1    5    5  503    0  0.40322937094E+02 -0.10879991392E+03 -0.15257497456E+03  0.19168328927E+03  0.00000000000E+00 0. -1.
         -2    1    5    5    0  503  0.15741652460E+03 -0.16353763999E+03 -0.20471495662E+03  0.30566768781E+03  0.00000000000E+00 0.  1.
         -1    1    6    6    0  502  0.26819385935E+03  0.51256206317E+03 -0.19335283022E+04  0.20182119587E+04  0.00000000000E+00 0.  1.
<mgrwt>
<rscale>  0 0.28067760E+04</rscale>
<asrwt>0</asrwt>
<pdfrwt beam="1">  1        1 0.12016281E+00 0.28067760E+04</pdfrwt>
<pdfrwt beam="2">  1       -1 0.38793480E+00 0.28067760E+04</pdfrwt>
<totfact> 0.17177369E-01</totfact>
</mgrwt>
</event>
<event>
12    1  0.1980523E-007  0.3012599E+04  0.7818608E-02  0.8240142E-01
         -2   -1    0    0    0  501 -0.00000000000E+00  0.00000000000E+00  0.16533133221E+04  0.16533133221E+04  0.00000000000E+00 0.  1.
          2   -1    0    0  501    0  0.00000000000E+00 -0.00000000000E+00 -0.13723586599E+04  0.13723586599E+04  0.00000000000E+00 0. -1.
         23    2    1    2    0    0  0.66662384775E+03  0.27669931829E+03 -0.10414108367E+04  0.12703083335E+04  0.90536534710E+02 0.  0.
        254    2    1    2    0    0 -0.66662384775E+03 -0.27669931829E+03  0.13223654989E+04  0.17553636485E+04  0.90094459251E+03 0.  0.
        -24    2    4    4    0    0 -0.78106793084E+03 -0.71391580283E+02  0.12810369719E+04  0.15041725330E+04  0.79469587133E+02 0.  0.
         24    2    4    4    0    0  0.11444408308E+03 -0.20530773800E+03  0.41328526970E+02  0.25119111553E+03  0.78359517244E+02 0.  0.
         13    1    3    3    0    0  0.55131669359E+03  0.21460330463E+03 -0.90490967318E+03  0.10811411525E+04  0.00000000000E+00 0. -1.
        -13    1    3    3    0    0  0.11530715416E+03  0.62096013655E+02 -0.13650116353E+03  0.18916718098E+03  0.00000000000E+00 0.  1.
          2    1    6    6  502    0  0.55617770279E+02 -0.92458681722E+02  0.58565908524E+02  0.12276770682E+03  0.00000000000E+00 0. -1.
          3    1    5    5  503    0 -0.46389228131E+03 -0.35528677492E+01  0.74306590192E+03  0.87598835958E+03  0.00000000000E+00 0. -1.
         -4    1    5    5    0  503 -0.31717564952E+03 -0.67838712534E+02  0.53797106998E+03  0.62818417340E+03  0.00000000000E+00 0.  1.
         -1    1    6    6    0  502  0.58826312805E+02 -0.11284905628E+03 -0.17237381554E+02  0.12842340871E+03  0.00000000000E+00 0.  1.
<mgrwt>
<rscale>  0 0.30125994E+04</rscale>
<asrwt>0</asrwt>
<pdfrwt beam="1">  1        2 0.21113210E+00 0.30125994E+04</pdfrwt>
<pdfrwt beam="2">  1       -2 0.25435590E+00 0.30125994E+04</pdfrwt>
<totfact> 0.77548990E-01</totfact>
</mgrwt>
</event>
<event>
12    1  0.1980523E-007  0.1411845E+04  0.7818608E-02  0.8945289E-01
         -3   -1    0    0    0  501 -0.00000000000E+00  0.00000000000E+00  0.90257029811E+03  0.90257029811E+03  0.00000000000E+00 0.  1.
          3   -1    0    0  501    0  0.00000000000E+00 -0.00000000000E+00 -0.55211927748E+03  0.55211927748E+03  0.00000000000E+00 0. -1.
         23    2    1    2    0    0  0.38538266550E+03  0.12522701755E+03  0.17446105866E+03  0.45029311588E+03  0.90142245496E+02 0.  0.
        254    2    1    2    0    0 -0.38538266550E+03 -0.12522701755E+03  0.17598996198E+03  0.10043964597E+04  0.90201894479E+03 0.  0.
        -24    2    4    4    0    0 -0.12070887712E+03  0.26265409049E+03 -0.23046224133E+03  0.37836039368E+03  0.80535324907E+02 0.  0.
         24    2    4    4    0    0 -0.26467378838E+03 -0.38788110804E+03  0.40645220331E+03  0.62603606603E+03  0.78827623101E+02 0.  0.
         11    1    3    3    0    0  0.85983809709E+02  0.47304930750E+02  0.80605659448E+02  0.12699702493E+03  0.00000000000E+00 0.  1.
        -11    1    3    3    0    0  0.29939885579E+03  0.77922086802E+02  0.93855399208E+02  0.32329609095E+03  0.00000000000E+00 0. -1.
          4    1    6    6  502    0 -0.24566451531E+03 -0.37762903580E+03  0.36704960145E+03  0.58110253199E+03  0.00000000000E+00 0. -1.
          3    1    5    5  503    0 -0.12601631633E+03  0.19548162783E+03 -0.18295351874E+03  0.29591412406E+03  0.00000000000E+00 0. -1.
         -4    1    5    5    0  503  0.53074392144E+01  0.67172462662E+02 -0.47508722596E+02  0.82446269617E+02  0.00000000000E+00 0.  1.
         -3    1    6    6    0  502 -0.19009273074E+02 -0.10252072241E+02  0.39402601859E+02  0.44933534039E+02  0.00000000000E+00 0.  1.
<mgrwt>
<rscale>  0 0.14118448E+04</rscale>
<asrwt>0</asrwt>
<pdfrwt beam="1">  1        3 0.84941427E-01 0.14118448E+04</pdfrwt>
<pdfrwt beam="2">  1       -3 0.13885697E+00 0.14118448E+04</pdfrwt>
<totfact> 0.12746152E+00</totfact>
</mgrwt>
</event>
<event>
12    1  0.1980523E-007  0.2278233E+04  0.7818608E-02  0.8486553E-01
          2   -1    0    0  501    0  0.00000000000E+00  0.00000000000E+00  0.80521148624E+03  0.80521148624E+03  0.00000000000E+00 0. -1.
         -2   -1    0    0    0  501 -0.00000000000E+00 -0.00000000000E+00 -0.16114850679E+04  0.16114850679E+04  0.00000000000E+00 0.  1.
         23    2    1    2    0    0 -0.42102778357E+02 -0.84514987537E+03 -0.81635269887E+03  0.11795827668E+04  0.94513591112E+02 0.  0.
        254    2    1    2    0    0  0.42102778357E+02  0.84514987537E+03  0.10079117168E+02  0.12371137874E+04  0.90238460683E+03 0.  0.
        -24    2    4    4    0    0  0.25570201820E+03  0.94258937131E+03  0.69053473352E+02  0.98225374849E+03  0.78713399279E+02 0.  0.
         24    2    4    4    0    0 -0.21359923984E+03 -0.97439495938E+02 -0.58974356185E+02  0.25486003893E+03  0.79728126319E+02 0.  0.
         11    1    3    3    0    0  0.26077279727E+02 -0.42598847604E+03 -0.40746021208E+03  0.59005934504E+03  0.00000000000E+00 0.  1.
        -11    1    3    3    0    0 -0.68180058084E+02 -0.41916139933E+03 -0.40889248679E+03  0.58952342172E+03  0.00000000000E+00 0. -1.
          4    1    6    6  502    0 -0.10402058758E+03 -0.66594237202E+02  0.62349522818E+01  0.12366870946E+03  0.00000000000E+00 0. -1.
          1    1    5    5  503    0  0.98373324392E+02  0.50246990756E+03  0.21733852082E+02  0.51247017404E+03  0.00000000000E+00 0. -1.
         -2    1    5    5    0  503  0.15732869381E+03  0.44011946375E+03  0.47319621270E+02  0.46978357445E+03  0.00000000000E+00 0.  1.
         -1    1    6    6    0  502 -0.10957865226E+03 -0.30845258736E+02 -0.65209308466E+02  0.13119132947E+03  0.00000000000E+00 0.  1.
<mgrwt>
<rscale>  0 0.22782329E+04</rscale>
<asrwt>0</asrwt>
<pdfrwt beam="1">  1        2 0.12387869E+00 0.22782329E+04</pdfrwt>
<pdfrwt beam="2">  1       -2 0.24792078E+00 0.22782329E+04</pdfrwt>
<totfact> 0.20523065E+00</totfact>
</mgrwt>
</event>
<event>
12    1  0.1980523E-007  0.1805765E+04  0.7818608E-02  0.8703240E-01
         -2   -1    0    0    0  501 -0.00000000000E+00  0.00000000000E+00  0.74195485699E+03  0.74195485699E+03  0.00000000000E+00 0.  1.
          2   -1    0    0  501    0  0.00000000000E+00 -0.00000000000E+00 -0.10987144040E+04  0.10987144040E+04  0.00000000000E+00 0. -1.
         23    2    1    2    0    0  0.35860432777E+02  0.34017812748E+03 -0.72582208961E+03  0.80738354493E+03  0.89684746735E+02 0.  0.
        254    2    1    2    0    0 -0.35860432777E+02 -0.34017812748E+03  0.36906254262E+03  0.10332857160E+04  0.90247719172E+03 0.  0.
        -24    2    4    4    0    0  0.18977437954E+03 -0.43690526771E+03  0.53994834174E+03  0.72453986188E+03  0.80704842665E+02 0.  0.
         24    2    4    4    0    0 -0.22563481231E+03  0.96727140233E+02 -0.17088579912E+03  0.30874585417E+03  0.76516912772E+02 0.  0.
         13    1    3    3    0    0  0.41259479008E+02  0.15871688471E+03 -0.43106896403E+03  0.46120911293E+03  0.00000000000E+00 0.  1.
        -13    1    3    3    0    0 -0.53990462307E+01  0.18146124277E+03 -0.29475312558E+03  0.34617443200E+03  0.00000000000E+00 0. -1.
          2    1    6    6  502    0 -0.33073911057E+02 -0.82502909701E+01 -0.65994351420E+01  0.34720360567E+02  0.00000000000E+00 0. -1.
          3    1    5    5  503    0  0.97267543055E+02 -0.23849902066E+03  0.35097009383E+03  0.43534212357E+03  0.00000000000E+00 0. -1.
         -4    1    5    5    0  503  0.92506836480E+02 -0.19840624706E+03  0.18897824790E+03  0.28919773832E+03  0.00000000000E+00 0.  1.
         -3    1    6    6    0  502 -0.19256090125E+03  0.10497743120E+03 -0.16428636397E+03  0.27402549360E+03  0.00000000000E+00 0.  1.
<mgrwt>
<rscale>  0 0.18057646E+04</rscale>
<asrwt>0</asrwt>
<pdfrwt beam="1">  1        2 0.16903299E+00 0.18057646E+04</pdfrwt>
<pdfrwt beam="2">  1       -2 0.11414690E+00 0.18057646E+04</pdfrwt>
<totfact> 0.12368946E+01</totfact>
</mgrwt>
</event>
<event>
12    1  0.1980523E-007  0.1765959E+04  0.7818608E-02  0.8724614E-01
          1   -1    0    0  501    0  0.00000000000E+00  0.00000000000E+00  0.39331408854E+03  0.39331408854E+03  0.00000000000E+00 0. -1.
         -1   -1    0    0    0  501 -0.00000000000E+00 -0.00000000000E+00 -0.19822655428E+04  0.19822655428E+04  0.00000000000E+00 0.  1.
         23    2    1    2    0    0 -0.18000224936E+03 -0.58454732861E+03 -0.87696915950E+03  0.10743587261E+04  0.10523961504E+03 0.  0.
        254    2    1    2    0    0  0.18000224936E+03  0.58454732861E+03 -0.71198229478E+03  0.13012209052E+04  0.90119957108E+03 0.  0.
        -24    2    4    4    0    0 -0.32729742676E+03  0.38220063642E+03 -0.19654833887E+03  0.54620086961E+03  0.80642472740E+02 0.  0.
         24    2    4    4    0    0  0.50729967612E+03  0.20234669220E+03 -0.51543395590E+03  0.75502003560E+03  0.78012473447E+02 0.  0.
         13    1    3    3    0    0 -0.17869299043E+01 -0.16212801528E+03 -0.23177353718E+03  0.28285625147E+03  0.00000000000E+00 0. -1.
        -13    1    3    3    0    0 -0.17821531946E+03 -0.42241931334E+03 -0.64519562232E+03  0.79150247468E+03  0.00000000000E+00 0.  1.
          4    1    6    6  502    0  0.54093310303E+02 -0.27012595325E+01 -0.55273663913E+02  0.77385792914E+02  0.00000000000E+00 0. -1.
          3    1    5    5  503    0 -0.12635751788E+02  0.24302499818E+02 -0.31807626022E+02  0.41976169355E+02  0.00000000000E+00 0. -1.
         -4    1    5    5    0  503 -0.31466167498E+03  0.35789813660E+03 -0.16474071285E+03  0.50422470026E+03  0.00000000000E+00 0.  1.
         -3    1    6    6    0  502  0.45320636582E+03  0.20504795173E+03 -0.46016029199E+03  0.67763424268E+03  0.00000000000E+00 0.  1.
<mgrwt>
<rscale>  0 0.17659592E+04</rscale>
<asrwt>0</asrwt>
<pdfrwt beam="1">  1        1 0.60509859E-01 0.17659592E+04</pdfrwt>
<pdfrwt beam="2">  1       -1 0.30496393E+00 0.17659592E+04</pdfrwt>
<totfact> 0.17830913E+00</totfact>
</mgrwt>
</event>
<event>
12    1  0.1980523E-007  0.2040467E+04  0.7818608E-02  0.8587932E-01
         -1   -1    0    0    0  501 -0.00000000000E+00  0.00000000000E+00  0.11302091037E+04  0.11302091037E+04  0.00000000000E+00 0.  1.
          1   -1    0    0  501    0  0.00000000000E+00 -0.00000000000E+00 -0.92095871472E+03  0.92095871472E+03  0.00000000000E+00 0. -1.
         23    2    1    2    0    0  0.19914836022E+03 -0.35521163067E+03  0.79340149462E+03  0.89651114705E+03  0.91711139882E+02 0.  0.
        254    2    1    2    0    0 -0.19914836022E+03  0.35521163067E+03 -0.58415110567E+03  0.11546566713E+04  0.90893571965E+03 0.  0.
        -24    2    4    4    0    0  0.24415303636E+03  0.40346449499E+03 -0.50337033575E+03  0.69437431840E+03  0.79872994531E+02 0.  0.
         24    2    4    4    0    0 -0.44330139659E+03 -0.48252864320E+02 -0.80780769921E+02  0.46028235294E+03  0.80559571165E+02 0.  0.
         13    1    3    3    0    0  0.72688113731E+02 -0.19632931422E+03  0.33337777744E+03  0.39366166182E+03  0.00000000000E+00 0. -1.
        -13    1    3    3    0    0  0.12646024649E+03 -0.15888231644E+03  0.46002371718E+03  0.50284948522E+03  0.00000000000E+00 0.  1.
          2    1    6    6  502    0 -0.19955113634E+03  0.13781452330E+02 -0.16669568831E+02  0.20071985195E+03  0.00000000000E+00 0. -1.
          1    1    5    5  503    0  0.95328645623E+02  0.89782124931E+02 -0.14581755113E+03  0.19598759872E+03  0.00000000000E+00 0. -1.
         -2    1    5    5    0  503  0.14882439074E+03  0.31368237006E+03 -0.35755278461E+03  0.49838671968E+03  0.00000000000E+00 0.  1.
         -1    1    6    6    0  502 -0.24375026025E+03 -0.62034316650E+02 -0.64111201089E+02  0.25956250098E+03  0.00000000000E+00 0.  1.
<mgrwt>
<rscale>  0 0.20404665E+04</rscale>
<asrwt>0</asrwt>
<pdfrwt beam="1">  1        1 0.14168596E+00 0.20404665E+04</pdfrwt>
<pdfrwt beam="2">  1       -1 0.17387832E+00 0.20404665E+04</pdfrwt>
<totfact> 0.37272414E+00</totfact>
</mgrwt>
</event>
<event>
12    1  0.1980523E-007  0.1706479E+04  0.7818608E-02  0.8757678E-01
          2   -1    0    0  501    0  0.00000000000E+00  0.00000000000E+00  0.27038334385E+04  0.27038334385E+04  0.00000000000E+00 0. -1.
         -2   -1    0    0    0  501 -0.00000000000E+00 -0.00000000000E+00 -0.26925394607E+03  0.26925394607E+03  0.00000000000E+00 0.  1.
         23    2    1    2    0    0 -0.33945532255E+03 -0.50062133958E+03  0.76097595123E+03  0.97645121567E+03  0.92308919292E+02 0.  0.
        254    2    1    2    0    0  0.33945532255E+03  0.50062133958E+03  0.16736035412E+04  0.19966361689E+04  0.90540352117E+03 0.  0.
        -24    2    4    4    0    0  0.61356775995E+03  0.49817182945E+03  0.11154985903E+04  0.13698080398E+04  0.86002285579E+02 0.  0.
         24    2    4    4    0    0 -0.27411243739E+03  0.24495101316E+01  0.55810495089E+03  0.62682812913E+03  0.79301568822E+02 0.  0.
         13    1    3    3    0    0 -0.97961479703E+02 -0.20964954543E+03  0.24835199517E+03  0.33945264310E+03  0.00000000000E+00 0.  1.
        -13    1    3    3    0    0 -0.24149384285E+03 -0.29097179415E+03  0.51262395606E+03  0.63699857257E+03  0.00000000000E+00 0. -1.
          4    1    6    6  502    0 -0.15384935894E+03 -0.19500724199E+02  0.38360527952E+03  0.41376673859E+03  0.00000000000E+00 0. -1.
          1    1    5    5  503    0  0.56733026984E+03  0.48499432468E+03  0.10594783364E+04  0.12959851370E+04  0.00000000000E+00 0. -1.
         -2    1    5    5    0  503  0.46237490104E+02  0.13177504765E+02  0.56020253898E+02  0.73822902745E+02  0.00000000000E+00 0.  1.
         -3    1    6    6    0  502 -0.12026307845E+03  0.21950234330E+02  0.17449967138E+03  0.21306139053E+03  0.00000000000E+00 0.  1.
<mgrwt>
<rscale>  0 0.17064792E+04</rscale>
<asrwt>0</asrwt>
<pdfrwt beam="1">  1        2 0.41597436E+00 0.17064792E+04</pdfrwt>
<pdfrwt beam="2">  1       -2 0.41423686E-01 0.17064792E+04</pdfrwt>
<totfact> 0.13908178E+01</totfact>
</mgrwt>
</event>
<event>
12    1  0.1980523E-007  0.3344257E+04  0.7818608E-02  0.8151725E-01
         -1   -1    0    0    0  501 -0.00000000000E+00  0.00000000000E+00  0.13315650689E+04  0.13315650689E+04  0.00000000000E+00 0.  1.
          1   -1    0    0  501    0  0.00000000000E+00 -0.00000000000E+00 -0.20997944581E+04  0.20997944581E+04  0.00000000000E+00 0. -1.
         23    2    1    2    0    0  0.13072798132E+04  0.54948629479E+03 -0.99768369762E+03  0.17362582381E+04  0.91127441680E+02 0.  0.
        254    2    1    2    0    0 -0.13072798132E+04 -0.54948629479E+03  0.22945430843E+03  0.16951012890E+04  0.89989077220E+03 0.  0.
        -24    2    4    4    0    0 -0.49460439952E+01 -0.29274797016E+03  0.20187605618E+03  0.36500193045E+03  0.82137870628E+02 0.  0.
         24    2    4    4    0    0 -0.13023337692E+04 -0.25673832463E+03  0.27578252248E+02  0.13300993585E+04  0.80099498299E+02 0.  0.
         11    1    3    3    0    0  0.72117428829E+03  0.25669975959E+03 -0.55615277246E+03  0.94619925332E+03  0.00000000000E+00 0.  1.
        -11    1    3    3    0    0  0.58610552495E+03  0.29278653520E+03 -0.44153092516E+03  0.79005898479E+03  0.00000000000E+00 0. -1.
          2    1    6    6  502    0 -0.51650150969E+03 -0.92978420912E+02 -0.27287970627E+02  0.52551253992E+03  0.00000000000E+00 0. -1.
          1    1    5    5  503    0 -0.46000688757E+01 -0.21550581192E+00 -0.49332227258E+01  0.67486119223E+01  0.00000000000E+00 0. -1.
         -2    1    5    5    0  503 -0.34597511951E+00 -0.29253246435E+03  0.20680927891E+03  0.35825331853E+03  0.00000000000E+00 0.  1.
         -3    1    6    6    0  502 -0.78583225956E+03 -0.16375990371E+03  0.54866222875E+02  0.80458681858E+03  0.00000000000E+00 0.  1.
<mgrwt>
<rscale>  0 0.33442565E+04</rscale>
<asrwt>0</asrwt>
<pdfrwt beam="1">  1        1 0.32304530E+00 0.33442565E+04</pdfrwt>
<pdfrwt beam="2">  1       -1 0.20485616E+00 0.33442565E+04</pdfrwt>
<totfact> 0.29367400E-01</totfact>
</mgrwt>
</event>
<event>
12    1  0.1980523E-007  0.2840117E+04  0.7818608E-02  0.8290921E-01
         -2   -1    0    0    0  501 -0.00000000000E+00  0.00000000000E+00  0.12759822045E+04  0.12759822045E+04  0.00000000000E+00 0.  1.
          2   -1    0    0  501    0  0.00000000000E+00 -0.00000000000E+00 -0.15804029588E+04  0.15804029588E+04  0.00000000000E+00 0. -1.
         23    2    1    2    0    0  0.11757192037E+04 -0.32333387247E+03  0.24198312016E+03  0.12462309285E+04  0.87608547969E+02 0.  0.
        254    2    1    2    0    0 -0.11757192037E+04  0.32333387247E+03 -0.54640387440E+03  0.16101542348E+04  0.89843142588E+03 0.  0.
        -24    2    4    4    0    0 -0.71193656030E+03  0.60271360312E+03 -0.50191598684E+03  0.10621823787E+04  0.78704475317E+02 0.  0.
         24    2    4    4    0    0 -0.46378264339E+03 -0.27937973065E+03 -0.44487887560E+02  0.54797185617E+03  0.71739869049E+02 0.  0.
         13    1    3    3    0    0  0.55452813743E+03 -0.11272417497E+03  0.13340541693E+03  0.58138214634E+03  0.00000000000E+00 0. -1.
        -13    1    3    3    0    0  0.62119106626E+03 -0.21060969750E+03  0.10857770323E+03  0.66484878214E+03  0.00000000000E+00 0.  1.
          4    1    6    6  502    0 -0.47757230210E+02 -0.14405299053E+02 -0.21138460715E+02  0.54176565040E+02  0.00000000000E+00 0. -1.
          3    1    5    5  503    0 -0.37422940230E+03  0.27037810991E+03 -0.26710418829E+03  0.53338224124E+03  0.00000000000E+00 0. -1.
         -4    1    5    5    0  503 -0.33770715799E+03  0.33233549321E+03 -0.23481179855E+03  0.52880013743E+03  0.00000000000E+00 0.  1.
         -3    1    6    6    0  502 -0.41602541318E+03 -0.26497443160E+03 -0.23349426845E+02  0.49379529113E+03  0.00000000000E+00 0.  1.
<mgrwt>
<rscale>  0 0.28401169E+04</rscale>
<asrwt>0</asrwt>
<pdfrwt beam="1">  1        2 0.24313892E+00 0.28401169E+04</pdfrwt>
<pdfrwt beam="2">  1       -2 0.19630495E+00 0.28401169E+04</pdfrwt>
<totfact> 0.13957176E+00</totfact>
</mgrwt>
</event>
<event>
12    1  0.1980523E-007  0.2239603E+04  0.7818608E-02  0.8502123E-01
         -2   -1    0    0    0  501 -0.00000000000E+00  0.00000000000E+00  0.52224204930E+03  0.52224204930E+03  0.00000000000E+00 0.  1.
          2   -1    0    0  501    0  0.00000000000E+00 -0.00000000000E+00 -0.24010989693E+04  0.24010989693E+04  0.00000000000E+00 0. -1.
         23    2    1    2    0    0  0.14767163277E+03 -0.33990500023E+03  0.33388554167E+03  0.50710333194E+03  0.91279318702E+02 0.  0.
        254    2    1    2    0    0 -0.14767163277E+03  0.33990500023E+03 -0.22127424617E+04  0.24162376867E+04  0.89701339815E+03 0.  0.
        -24    2    4    4    0    0 -0.16119824399E+03  0.54214268175E+03 -0.77844321054E+03  0.96549371846E+03  0.79377119533E+02 0.  0.
         24    2    4    4    0    0  0.13526611225E+02 -0.20223768153E+03 -0.14342992512E+04  0.14507439682E+04  0.79753811407E+02 0.  0.
         13    1    3    3    0    0 -0.68938898290E+01 -0.70206815191E+02  0.54384722440E+02  0.89074242355E+02  0.00000000000E+00 0. -1.
        -13    1    3    3    0    0  0.15456552260E+03 -0.26969818503E+03  0.27950081923E+03  0.41802908958E+03  0.00000000000E+00 0.  1.
          2    1    6    6  502    0  0.41752917313E+02 -0.14809970652E+03 -0.91218149279E+03  0.92506859473E+03  0.00000000000E+00 0. -1.
          3    1    5    5  503    0 -0.11141356878E+03  0.46886303191E+03 -0.67344448296E+03  0.82811412113E+03  0.00000000000E+00 0. -1.
         -4    1    5    5    0  503 -0.49784675208E+02  0.73279649847E+02 -0.10499872758E+03  0.13737959733E+03  0.00000000000E+00 0.  1.
         -1    1    6    6    0  502 -0.28226306088E+02 -0.54137975008E+02 -0.52211775839E+03  0.52567537352E+03  0.00000000000E+00 0.  1.
<mgrwt>
<rscale>  0 0.22396025E+04</rscale>
<asrwt>0</asrwt>
<pdfrwt beam="1">  1        2 0.36939984E+00 0.22396025E+04</pdfrwt>
<pdfrwt beam="2">  1       -2 0.80344932E-01 0.22396025E+04</pdfrwt>
<totfact> 0.49509838E+00</totfact>
</mgrwt>
</event>
<event>
12    1  0.1980523E-007  0.2980186E+04  0.7818608E-02  0.8249412E-01
         -2   -1    0    0    0  501 -0.00000000000E+00  0.00000000000E+00  0.81760605671E+03  0.81760605671E+03  0.00000000000E+00 0.  1.
          2   -1    0    0  501    0  0.00000000000E+00 -0.00000000000E+00 -0.27157045454E+04  0.27157045454E+04  0.00000000000E+00 0. -1.
         23    2    1    2    0    0 -0.85455039996E+03 -0.10468644867E+04 -0.92989822986E+03  0.16429473365E+04  0.91561962711E+02 0.  0.
        254    2    1    2    0    0  0.85455039996E+03  0.10468644867E+04 -0.96820025880E+03  0.18903632656E+04  0.89993327257E+03 0.  0.
        -24    2    4    4    0    0  0.12288445484E+03 -0.13283264457E+03 -0.26946783144E+03  0.33430016774E+03  0.79991182401E+02 0.  0.
         24    2    4    4    0    0  0.73166594512E+03  0.11796971313E+04 -0.69873242736E+03  0.15560630978E+04  0.78006298498E+02 0.  0.
         13    1    3    3    0    0 -0.42602615846E+03 -0.45904839245E+03 -0.45748634656E+03  0.77557557439E+03  0.00000000000E+00 0. -1.
        -13    1    3    3    0    0 -0.42852424149E+03 -0.58781609425E+03 -0.47241188330E+03  0.86737176210E+03  0.00000000000E+00 0.  1.
          4    1    6    6  502    0  0.38110229233E+02  0.35011470496E+02 -0.21026009053E+02  0.55859517498E+02  0.00000000000E+00 0. -1.
          1    1    5    5  503    0  0.37730144337E+02  0.24230192222E+01 -0.57796007444E+02  0.69063834894E+02  0.00000000000E+00 0. -1.
         -2    1    5    5    0  503  0.85154310505E+02 -0.13525566379E+03 -0.21167182400E+03  0.26523633284E+03  0.00000000000E+00 0.  1.
         -3    1    6    6    0  502  0.69355571588E+03  0.11446856608E+04 -0.67770641830E+03  0.15002035803E+04  0.00000000000E+00 0.  1.
<mgrwt>
<rscale>  0 0.29801856E+04</rscale>
<asrwt>0</asrwt>
<pdfrwt beam="1">  1        2 0.41780070E+00 0.29801856E+04</pdfrwt>
<pdfrwt beam="2">  1       -2 0.12578555E+00 0.29801856E+04</pdfrwt>
<totfact> 0.10513060E+00</totfact>
</mgrwt>
</event>
<event>
12    1  0.1980523E-007  0.2236871E+04  0.7818608E-02  0.8503237E-01
          1   -1    0    0  501    0  0.00000000000E+00  0.00000000000E+00  0.10847474358E+04  0.10847474358E+04  0.00000000000E+00 0. -1.
         -1   -1    0    0    0  501 -0.00000000000E+00 -0.00000000000E+00 -0.11531694768E+04  0.11531694768E+04  0.00000000000E+00 0.  1.
         23    2    1    2    0    0  0.18506024193E+03  0.62928032976E+03 -0.69950385557E+03  0.96333092299E+03  0.91977152954E+02 0.  0.
        254    2    1    2    0    0 -0.18506024193E+03 -0.62928032976E+03  0.63108181465E+03  0.12745859896E+04  0.89222427760E+03 0.  0.
        -24    2    4    4    0    0 -0.36305078927E+02 -0.23711330188E+02 -0.20741468165E+03  0.22661613265E+03  0.80335144714E+02 0.  0.
         24    2    4    4    0    0 -0.14875516301E+03 -0.60556899957E+03  0.83849649631E+03  0.10479698570E+04  0.79514369810E+02 0.  0.
         11    1    3    3    0    0  0.25911380305E+02  0.12648815911E+03 -0.19235034832E+03  0.23166637763E+03  0.00000000000E+00 0.  1.
        -11    1    3    3    0    0  0.15914886163E+03  0.50279217065E+03 -0.50715350725E+03  0.73166454537E+03  0.00000000000E+00 0. -1.
          2    1    6    6  502    0 -0.45700151065E+02 -0.33940781389E+03  0.48247720761E+03  0.59166749429E+03  0.00000000000E+00 0. -1.
          3    1    5    5  503    0 -0.45068145226E+02  0.10907447714E+02 -0.65334157255E+02  0.80116554057E+02  0.00000000000E+00 0. -1.
         -4    1    5    5    0  503  0.87630662988E+01 -0.34618777902E+02 -0.14208052440E+03  0.14649957859E+03  0.00000000000E+00 0.  1.
         -1    1    6    6    0  502 -0.10305501194E+03 -0.26616118568E+03  0.35601928869E+03  0.45630236266E+03  0.00000000000E+00 0.  1.
<mgrwt>
<rscale>  0 0.22368707E+04</rscale>
<asrwt>0</asrwt>
<pdfrwt beam="1">  1        1 0.16688422E+00 0.22368707E+04</pdfrwt>
<pdfrwt beam="2">  1       -1 0.17741069E+00 0.22368707E+04</pdfrwt>
<totfact> 0.25708091E+00</totfact>
</mgrwt>
</event>
<event>
12    1  0.1980523E-007  0.2002080E+04  0.7818608E-02  0.8605649E-01
         -1   -1    0    0    0  501 -0.00000000000E+00  0.00000000000E+00  0.11251706781E+04  0.11251706781E+04  0.00000000000E+00 0.  1.
          1   -1    0    0  501    0  0.00000000000E+00 -0.00000000000E+00 -0.89060329937E+03  0.89060329937E+03  0.00000000000E+00 0. -1.
         23    2    1    2    0    0 -0.39440167385E+03 -0.20814612033E+03 -0.56894467638E+03  0.72875360504E+03  0.92229519830E+02 0.  0.
        254    2    1    2    0    0  0.39440167385E+03  0.20814612033E+03  0.80351205509E+03  0.12870203724E+04  0.90106177846E+03 0.  0.
        -24    2    4    4    0    0 -0.14027379375E+03  0.39904082101E+03  0.36578473473E+03  0.56457354628E+03  0.77682063230E+02 0.  0.
         24    2    4    4    0    0  0.53467546761E+03 -0.19089470069E+03  0.43772732036E+03  0.72244682614E+03  0.89473835285E+02 0.  0.
         13    1    3    3    0    0 -0.16703779999E+03 -0.14016237822E+03 -0.26820365516E+03  0.34565925351E+03  0.00000000000E+00 0. -1.
        -13    1    3    3    0    0 -0.22736387387E+03 -0.67983742104E+02 -0.30074102122E+03  0.38309435153E+03  0.00000000000E+00 0.  1.
          2    1    6    6  502    0  0.25739242964E+03 -0.44914585054E+02  0.20554171906E+03  0.33243883807E+03  0.00000000000E+00 0. -1.
          3    1    5    5  503    0 -0.14449312216E+03  0.34308432737E+03  0.33365604212E+03  0.49991146464E+03  0.00000000000E+00 0. -1.
         -4    1    5    5    0  503  0.42193284039E+01  0.55956493637E+02  0.32128692616E+02  0.64662081637E+02  0.00000000000E+00 0.  1.
         -1    1    6    6    0  502  0.27728303797E+03 -0.14598011563E+03  0.23218560130E+03  0.39000798807E+03  0.00000000000E+00 0.  1.
<mgrwt>
<rscale>  0 0.20020796E+04</rscale>
<asrwt>0</asrwt>
<pdfrwt beam="1">  1        1 0.13701589E+00 0.20020796E+04</pdfrwt>
<pdfrwt beam="2">  1       -1 0.17310318E+00 0.20020796E+04</pdfrwt>
<totfact> 0.40117944E+00</totfact>
</mgrwt>
</event>
<event>
12    1  0.1980523E-007  0.2696469E+04  0.7818608E-02  0.8336152E-01
          2   -1    0    0  501    0  0.00000000000E+00  0.00000000000E+00  0.94973843256E+03  0.94973843256E+03  0.00000000000E+00 0. -1.
         -2   -1    0    0    0  501 -0.00000000000E+00 -0.00000000000E+00 -0.19139331579E+04  0.19139331579E+04  0.00000000000E+00 0.  1.
         23    2    1    2    0    0 -0.69980611837E+03  0.78039074838E+03 -0.10421899335E+04  0.14809771444E+04  0.91624895583E+02 0.  0.
        254    2    1    2    0    0  0.69980611837E+03 -0.78039074838E+03  0.77995208120E+02  0.13826944460E+04  0.89834422975E+03 0.  0.
        -24    2    4    4    0    0  0.42083283705E+03 -0.64436492692E+03  0.44705113272E+03  0.89375687201E+03  0.81487392964E+02 0.  0.
         24    2    4    4    0    0  0.27897328131E+03 -0.13602582146E+03 -0.36905592460E+03  0.48893757402E+03  0.80799505034E+02 0.  0.
         13    1    3    3    0    0 -0.22056885772E+03  0.19847621164E+03 -0.33217602613E+03  0.44540356972E+03  0.00000000000E+00 0. -1.
        -13    1    3    3    0    0 -0.47923726064E+03  0.58191453673E+03 -0.71001390733E+03  0.10355735747E+04  0.00000000000E+00 0.  1.
          4    1    6    6  502    0  0.33388992164E+02  0.30957881270E+01 -0.16666055372E+02  0.37445508456E+02  0.00000000000E+00 0. -1.
          3    1    5    5  503    0  0.51360312586E+01 -0.38822034711E+02  0.17687399205E+02  0.42969445968E+02  0.00000000000E+00 0. -1.
         -4    1    5    5    0  503  0.41569680580E+03 -0.60554289221E+03  0.42936373351E+03  0.85078742604E+03  0.00000000000E+00 0.  1.
         -3    1    6    6    0  502  0.24558428915E+03 -0.13912160959E+03 -0.35238986923E+03  0.45149206556E+03  0.00000000000E+00 0.  1.
<mgrwt>
<rscale>  0 0.26964687E+04</rscale>
<asrwt>0</asrwt>
<pdfrwt beam="1">  1        2 0.14611360E+00 0.26964687E+04</pdfrwt>
<pdfrwt beam="2">  1       -2 0.29445126E+00 0.26964687E+04</pdfrwt>
<totfact> 0.81916610E-01</totfact>
</mgrwt>
</event>
<event>
12    1  0.1980523E-007  0.1799461E+04  0.7818608E-02  0.8706586E-01
          2   -1    0    0  501    0  0.00000000000E+00  0.00000000000E+00  0.21772952107E+04  0.21772952107E+04  0.00000000000E+00 0. -1.
         -2   -1    0    0    0  501 -0.00000000000E+00 -0.00000000000E+00 -0.37179856443E+03  0.37179856443E+03  0.00000000000E+00 0.  1.
         23    2    1    2    0    0  0.56459899036E+03  0.22410851544E+03  0.27120365982E+03  0.67117820942E+03  0.89062433689E+02 0.  0.
        254    2    1    2    0    0 -0.56459899036E+03 -0.22410851544E+03  0.15342929865E+04  0.18779155657E+04  0.89639012548E+03 0.  0.
        -24    2    4    4    0    0 -0.29370015461E+03  0.20427282042E+03  0.12252049116E+04  0.12788041428E+04  0.78903701375E+02 0.  0.
         24    2    4    4    0    0 -0.27089883575E+03 -0.42838133586E+03  0.30908807483E+03  0.59911142295E+03  0.80636908338E+02 0.  0.
         11    1    3    3    0    0  0.19440647716E+03  0.51156658567E+02  0.12747553854E+03  0.23803549105E+03  0.00000000000E+00 0. -1.
        -11    1    3    3    0    0  0.37019251320E+03  0.17295185687E+03  0.14372812129E+03  0.43314271837E+03  0.00000000000E+00 0.  1.
          4    1    6    6  502    0  0.57506873381E+01 -0.65974212974E+01  0.41648619631E+01  0.96923912327E+01  0.00000000000E+00 0. -1.
          3    1    5    5  503    0 -0.19250352080E+03  0.11139703925E+03  0.63490075333E+03  0.67273016318E+03  0.00000000000E+00 0. -1.
         -4    1    5    5    0  503 -0.10119663380E+03  0.92875781173E+02  0.59030415830E+03  0.60607397958E+03  0.00000000000E+00 0.  1.
         -3    1    6    6    0  502 -0.27664952309E+03 -0.42178391456E+03  0.30492321287E+03  0.58941903172E+03  0.00000000000E+00 0.  1.
<mgrwt>
<rscale>  0 0.17994613E+04</rscale>
<asrwt>0</asrwt>
<pdfrwt beam="1">  1        2 0.33496849E+00 0.17994613E+04</pdfrwt>
<pdfrwt beam="2">  1       -2 0.57199780E-01 0.17994613E+04</pdfrwt>
<totfact> 0.14384588E+01</totfact>
</mgrwt>
</event>
<event>
12    1  0.2276501E-007  0.3612661E+04  0.7818608E-02  0.8087598E-01
          1   -1    0    0  501    0  0.00000000000E+00  0.00000000000E+00  0.19155761715E+04  0.19155761715E+04  0.00000000000E+00 0. -1.
         -1   -1    0    0    0  501 -0.00000000000E+00 -0.00000000000E+00 -0.17033147541E+04  0.17033147541E+04  0.00000000000E+00 0.  1.
         23    2    1    2    0    0 -0.36893431674E+02  0.15280829245E+04 -0.62827686636E+03  0.16552610247E+04  0.93587872144E+02 0.  0.
        254    2    1    2    0    0  0.36893431674E+02 -0.15280829245E+04  0.84053828378E+03  0.19636299009E+04  0.90163142803E+03 0.  0.
        -24    2    4    4    0    0  0.35820414948E+03 -0.90658333535E+03  0.17295331875E+03  0.99318666881E+03  0.79393652172E+02 0.  0.
         24    2    4    4    0    0 -0.32131071780E+03 -0.62149958912E+03  0.66758496503E+03  0.97044323213E+03  0.81166893525E+02 0.  0.
         13    1    3    3    0    0 -0.27896319466E+02  0.11752478361E+04 -0.52522993324E+03  0.12875760807E+04  0.00000000000E+00 0.  1.
        -13    1    3    3    0    0 -0.89971122084E+01  0.35283508840E+03 -0.10304693311E+03  0.36768494402E+03  0.00000000000E+00 0. -1.
          4    1    6    6  502    0 -0.25189639969E+03 -0.42721837107E+03  0.43671359373E+03  0.66082228754E+03  0.00000000000E+00 0. -1.
          3    1    5    5  503    0  0.28132586955E+03 -0.67771914831E+03  0.16227735588E+03  0.75151941365E+03  0.00000000000E+00 0. -1.
         -4    1    5    5    0  503  0.76878279923E+02 -0.22886418704E+03  0.10675962870E+02  0.24166725516E+03  0.00000000000E+00 0.  1.
         -3    1    6    6    0  502 -0.69414318115E+02 -0.19428121805E+03  0.23087137130E+03  0.30962094459E+03  0.00000000000E+00 0.  1.
<mgrwt>
<rscale>  0 0.36126606E+04</rscale>
<asrwt>0</asrwt>
<pdfrwt beam="1">  1        1 0.29470403E+00 0.36126606E+04</pdfrwt>
<pdfrwt beam="2">  1       -1 0.26204842E+00 0.36126606E+04</pdfrwt>
<totfact> 0.15992148E-01</totfact>
</mgrwt>
</event>
<event>
12    1  0.1980523E-007  0.2575872E+04  0.7818608E-02  0.8376443E-01
         -1   -1    0    0    0  501 -0.00000000000E+00  0.00000000000E+00  0.24778271343E+04  0.24778271343E+04  0.00000000000E+00 0. -1.
          1   -1    0    0  501    0  0.00000000000E+00 -0.00000000000E+00 -0.66944917188E+03  0.66944917188E+03  0.00000000000E+00 0.  1.
         23    2    1    2    0    0 -0.94665621665E+03  0.99302770172E+02  0.45856927364E+02  0.95679648945E+03  0.85659977524E+02 0.  0.
        254    2    1    2    0    0  0.94665621665E+03 -0.99302770172E+02  0.17625210350E+04  0.21904798167E+04  0.88639855359E+03 0.  0.
        -24    2    4    4    0    0 -0.80641155630E+02 -0.21534573298E+03  0.49945448026E+03  0.55625595531E+03  0.84196967162E+02 0.  0.
         24    2    4    4    0    0  0.10272973723E+04  0.11604296281E+03  0.12630665548E+04  0.16342238614E+04  0.80898992932E+02 0.  0.
         13    1    3    3    0    0 -0.30707459029E+03  0.13038874724E+02 -0.20423018877E+02  0.30802908297E+03  0.00000000000E+00 0.  1.
        -13    1    3    3    0    0 -0.63958162636E+03  0.86263895448E+02  0.66279946241E+02  0.64876740648E+03  0.00000000000E+00 0. -1.
          4    1    6    6  502    0  0.60154966092E+03  0.10292665170E+03  0.77428850166E+03  0.98588973724E+03  0.00000000000E+00 0. -1.
          1    1    5    5  503    0 -0.76245638253E+02 -0.18775878065E+03  0.48310897730E+03  0.52389029482E+03  0.00000000000E+00 0. -1.
         -2    1    5    5    0  503 -0.43955173773E+01 -0.27586952333E+02  0.16345502957E+02  0.32365660490E+02  0.00000000000E+00 0.  1.
         -3    1    6    6    0  502  0.42574771135E+03  0.13116311109E+02  0.48877805309E+03  0.64833412414E+03  0.00000000000E+00 0.  1.
<mgrwt>
<rscale>  0 0.25758721E+04</rscale>
<asrwt>0</asrwt>
<pdfrwt beam="1">  1        1 0.10299218E+00 0.25758721E+04</pdfrwt>
<pdfrwt beam="2">  1       -1 0.38120417E+00 0.25758721E+04</pdfrwt>
<totfact> 0.24701427E-01</totfact>
</mgrwt>
</event>
<event>
12    1  0.1980523E-007  0.2027902E+04  0.7818608E-02  0.8593686E-01
          1   -1    0    0  501    0  0.00000000000E+00  0.00000000000E+00  0.67703751430E+03  0.67703751430E+03  0.00000000000E+00 0. -1.
         -1   -1    0    0    0  501 -0.00000000000E+00 -0.00000000000E+00 -0.15185219585E+04  0.15185219585E+04  0.00000000000E+00 0.  1.
         23    2    1    2    0    0  0.80213604196E+03 -0.30897554865E+02 -0.46583090824E+03  0.93247472436E+03  0.90187514634E+02 0.  0.
        254    2    1    2    0    0 -0.80213604196E+03  0.30897554865E+02 -0.37565353596E+03  0.12630847484E+04  0.89993922791E+03 0.  0.
        -24    2    4    4    0    0 -0.92664697922E+03 -0.15073592558E+03 -0.40737274089E+03  0.10261881838E+04  0.75588988450E+02 0.  0.
         24    2    4    4    0    0  0.12451093725E+03  0.18163348045E+03  0.31719204939E+02  0.23689656464E+03  0.81364486486E+02 0.  0.
         11    1    3    3    0    0  0.39998236812E+03 -0.59916972419E+02 -0.22469529273E+03  0.46267041505E+03  0.00000000000E+00 0. -1.
        -11    1    3    3    0    0  0.40215367384E+03  0.29019417555E+02 -0.24113561551E+03  0.46980430931E+03  0.00000000000E+00 0.  1.
          4    1    6    6  502    0  0.96450487216E+02  0.90144112871E+02  0.46702333729E+02  0.14003487260E+03  0.00000000000E+00 0. -1.
          3    1    5    5  503    0 -0.12590633496E+03  0.18962101685E+01 -0.69046441255E+02  0.14360853682E+03  0.00000000000E+00 0. -1.
         -4    1    5    5    0  503 -0.80074064425E+03 -0.15263213575E+03 -0.33832629964E+03  0.88257964697E+03  0.00000000000E+00 0.  1.
         -3    1    6    6    0  502  0.28060450039E+02  0.91489367576E+02 -0.14983128790E+02  0.96861692037E+02  0.00000000000E+00 0.  1.
<mgrwt>
<rscale>  0 0.20279017E+04</rscale>
<asrwt>0</asrwt>
<pdfrwt beam="1">  1        1 0.10415962E+00 0.20279017E+04</pdfrwt>
<pdfrwt beam="2">  1       -1 0.23361876E+00 0.20279017E+04</pdfrwt>
<totfact> 0.23684668E+00</totfact>
</mgrwt>
</event>
<event>
12    1  0.1980523E-007  0.1542212E+04  0.7818608E-02  0.8856858E-01
         -2   -1    0    0    0  501 -0.00000000000E+00  0.00000000000E+00  0.11318065923E+04  0.11318065923E+04  0.00000000000E+00 0.  1.
          2   -1    0    0  501    0  0.00000000000E+00 -0.00000000000E+00 -0.52535888123E+03  0.52535888123E+03  0.00000000000E+00 0. -1.
         23    2    1    2    0    0 -0.68363987815E+02 -0.30796997789E+03 -0.21640707547E+03  0.39956087037E+03  0.11531576088E+03 0.  0.
        254    2    1    2    0    0  0.68363987815E+02  0.30796997789E+03  0.82285478652E+03  0.12576046031E+04  0.89719574009E+03 0.  0.
        -24    2    4    4    0    0 -0.10053494257E+03 -0.28053543214E+03  0.41724545624E+03  0.51893651114E+03  0.79962043989E+02 0.  0.
         24    2    4    4    0    0  0.16889893039E+03  0.58850541003E+03  0.40560933028E+03  0.73866809200E+03  0.79032619928E+02 0.  0.
         11    1    3    3    0    0 -0.29420671275E+02 -0.28786238538E+03 -0.20389328455E+03  0.35398135586E+03  0.00000000000E+00 0. -1.
        -11    1    3    3    0    0 -0.38943316540E+02 -0.20107592513E+02 -0.12513790920E+02  0.45579514510E+02  0.00000000000E+00 0.  1.
          4    1    6    6  502    0  0.16627883747E+03  0.55825841170E+03  0.40275149320E+03  0.70817361664E+03  0.00000000000E+00 0. -1.
          3    1    5    5  503    0 -0.80329133263E+02 -0.25176061979E+03  0.40089712004E+03  0.48016109815E+03  0.00000000000E+00 0. -1.
         -4    1    5    5    0  503 -0.20205809308E+02 -0.28774812351E+02  0.16348336202E+02  0.38775412985E+02  0.00000000000E+00 0.  1.
         -3    1    6    6    0  502  0.26200929116E+01  0.30246998333E+02  0.28578370733E+01  0.30494475365E+02  0.00000000000E+00 0.  1.
<mgrwt>
<rscale>  0 0.15422122E+04</rscale>
<asrwt>0</asrwt>
<pdfrwt beam="1">  1        2 0.80824444E-01 0.15422122E+04</pdfrwt>
<pdfrwt beam="2">  1       -2 0.17412409E+00 0.15422122E+04</pdfrwt>
<totfact> 0.11143085E+01</totfact>
</mgrwt>
</event>
<event>
12    1  0.1980523E-007  0.2122653E+04  0.7818608E-02  0.8551330E-01
          2   -1    0    0  501    0  0.00000000000E+00  0.00000000000E+00  0.10890025868E+04  0.10890025868E+04  0.00000000000E+00 0. -1.
         -2   -1    0    0    0  501 -0.00000000000E+00 -0.00000000000E+00 -0.10343541062E+04  0.10343541062E+04  0.00000000000E+00 0.  1.
         23    2    1    2    0    0  0.56555637490E+03 -0.42024708172E+03  0.52412498796E+03  0.88496741162E+03  0.10953854915E+03 0.  0.
        254    2    1    2    0    0 -0.56555637490E+03  0.42024708172E+03 -0.46947650741E+03  0.12383892814E+04  0.90373569052E+03 0.  0.
        -24    2    4    4    0    0 -0.73197692071E+03  0.65436612742E+02 -0.37035555190E+03  0.82679421596E+03  0.79707452513E+02 0.  0.
         24    2    4    4    0    0  0.16642054581E+03  0.35481046898E+03 -0.99120955511E+02  0.41159506541E+03  0.77454935840E+02 0.  0.
         11    1    3    3    0    0  0.23433802654E+03 -0.24067886398E+03  0.26154501881E+03  0.42573045829E+03  0.00000000000E+00 0. -1.
        -11    1    3    3    0    0  0.33121834835E+03 -0.17956821774E+03  0.26257996915E+03  0.45923695333E+03  0.00000000000E+00 0.  1.
          4    1    6    6  502    0  0.51271641219E+02  0.16900304784E+03 -0.74277093243E+02  0.19159305299E+03  0.00000000000E+00 0. -1.
          1    1    5    5  503    0 -0.27985803211E+02 -0.30625665945E+01  0.48886007036E+00  0.28157121296E+02  0.00000000000E+00 0. -1.
         -4    1    5    5    0  503 -0.70399111749E+03  0.68499179336E+02 -0.37084441197E+03  0.79863709466E+03  0.00000000000E+00 0.  1.
         -3    1    6    6    0  502  0.11514890459E+03  0.18580742114E+03 -0.24843862268E+02  0.22000201243E+03  0.00000000000E+00 0.  1.
<mgrwt>
<rscale>  0 0.21226533E+04</rscale>
<asrwt>0</asrwt>
<pdfrwt beam="1">  1        2 0.16753886E+00 0.21226533E+04</pdfrwt>
<pdfrwt beam="2">  1       -2 0.15913140E+00 0.21226533E+04</pdfrwt>
<totfact> 0.52040269E+00</totfact>
</mgrwt>
</event>
<event>
12    1  0.1980523E-007  0.2528092E+04  0.7818608E-02  0.8393046E-01
          1   -1    0    0  501    0  0.00000000000E+00  0.00000000000E+00  0.16017667733E+04  0.16017667733E+04  0.00000000000E+00 0. -1.
         -1   -1    0    0    0  501 -0.00000000000E+00 -0.00000000000E+00 -0.99753089409E+03  0.99753089409E+03  0.00000000000E+00 0.  1.
         23    2    1    2    0    0 -0.94816004312E+03 -0.53823307342E+03  0.10029733925E+03  0.10985408771E+04  0.89611348142E+02 0.  0.
        254    2    1    2    0    0  0.94816004312E+03  0.53823307342E+03  0.50393853994E+03  0.15007567903E+04  0.89978585385E+03 0.  0.
        -24    2    4    4    0    0  0.77015608467E+03 -0.62873145485E+01  0.50191312291E+03  0.92246282262E+03  0.76426115248E+02 0.  0.
         24    2    4    4    0    0  0.17800395845E+03  0.54452038797E+03  0.20254170329E+01  0.57829396764E+03  0.78942691601E+02 0.  0.
         11    1    3    3    0    0 -0.58511398507E+03 -0.37396460078E+03  0.86979334261E+02  0.69983805466E+03  0.00000000000E+00 0. -1.
        -11    1    3    3    0    0 -0.36304605805E+03 -0.16426847265E+03  0.13318004992E+02  0.39870282245E+03  0.00000000000E+00 0.  1.
          4    1    6    6  502    0  0.10004170057E+03  0.31001088798E+03  0.40234615130E+02  0.32822845211E+03  0.00000000000E+00 0. -1.
          1    1    5    5  503    0  0.12397428103E+03  0.24406235745E+02  0.96835284215E+02  0.15919283579E+03  0.00000000000E+00 0. -1.
         -2    1    5    5    0  503  0.64618180364E+03 -0.30693550294E+02  0.40507783869E+03  0.76326998682E+03  0.00000000000E+00 0.  1.
         -3    1    6    6    0  502  0.77962257878E+02  0.23450949999E+03 -0.38209198097E+02  0.25006551553E+03  0.00000000000E+00 0.  1.
<mgrwt>
<rscale>  0 0.25280916E+04</rscale>
<asrwt>0</asrwt>
<pdfrwt beam="1">  1        1 0.24642566E+00 0.25280916E+04</pdfrwt>
<pdfrwt beam="2">  1       -1 0.15346629E+00 0.25280916E+04</pdfrwt>
<totfact> 0.16172125E+00</totfact>
</mgrwt>
</event>
<event>
12    1  0.1980523E-007  0.2947621E+04  0.7818608E-02  0.8258848E-01
          1   -1    0    0  501    0  0.00000000000E+00  0.00000000000E+00  0.27172567391E+04  0.27172567391E+04  0.00000000000E+00 0. -1.
         -1   -1    0    0    0  501 -0.00000000000E+00 -0.00000000000E+00 -0.79937854871E+03  0.79937854871E+03  0.00000000000E+00 0.  1.
         23    2    1    2    0    0  0.11058339517E+04 -0.66667965810E+03  0.12757056568E+04  0.18172164385E+04  0.86718891820E+02 0.  0.
        254    2    1    2    0    0 -0.11058339517E+04  0.66667965810E+03  0.64217253360E+03  0.16994188493E+04  0.89905971288E+03 0.  0.
        -24    2    4    4    0    0 -0.11070680482E+04  0.24752687069E+03  0.38581575700E+03  0.12004823911E+04  0.73722168083E+02 0.  0.
         24    2    4    4    0    0  0.12340964552E+01  0.41915278742E+03  0.25635677661E+03  0.49893645823E+03  0.86765259432E+02 0.  0.
         11    1    3    3    0    0  0.13821113210E+03 -0.58858425463E+02  0.17477206371E+03  0.23046020381E+03  0.00000000000E+00 0.  1.
        -11    1    3    3    0    0  0.96762281960E+03 -0.60782123264E+03  0.11009335931E+04  0.15867562347E+04  0.00000000000E+00 0. -1.
          4    1    6    6  502    0 -0.17560382254E+02  0.16228971894E+02  0.78439756201E+01  0.25164946000E+02  0.00000000000E+00 0. -1.
          3    1    5    5  503    0 -0.18837204424E+02  0.14784366753E+02  0.74721337711E+01  0.25084867030E+02  0.00000000000E+00 0. -1.
         -2    1    5    5    0  503 -0.10882308437E+04  0.23274250393E+03  0.37834362322E+03  0.11753975241E+04  0.00000000000E+00 0.  1.
         -3    1    6    6    0  502  0.18794478709E+02  0.40292381552E+03  0.24851280099E+03  0.47377151223E+03  0.00000000000E+00 0.  1.
<mgrwt>
<rscale>  0 0.29476206E+04</rscale>
<asrwt>0</asrwt>
<pdfrwt beam="1">  1        1 0.41803949E+00 0.29476206E+04</pdfrwt>
<pdfrwt beam="2">  1       -1 0.12298132E+00 0.29476206E+04</pdfrwt>
<totfact> 0.47507688E-01</totfact>
</mgrwt>
</event>
<event>
12    1  0.1980523E-007  0.3560528E+04  0.7818608E-02  0.8099593E-01
          2   -1    0    0  501    0  0.00000000000E+00  0.00000000000E+00  0.45133226821E+04  0.45133226821E+04  0.00000000000E+00 0. -1.
         -2   -1    0    0    0  501 -0.00000000000E+00 -0.00000000000E+00 -0.70221892114E+03  0.70221892114E+03  0.00000000000E+00 0.  1.
         23    2    1    2    0    0  0.72422217706E+02 -0.15162956891E+04  0.27877894775E+04  0.31754541853E+04  0.85682659243E+02 0.  0.
        254    2    1    2    0    0 -0.72422217706E+02  0.15162956891E+04  0.10233142834E+04  0.20400874179E+04  0.90021494963E+03 0.  0.
        -24    2    4    4    0    0  0.30186854022E+01  0.15910676517E+04  0.10424015583E+04  0.19038607536E+04  0.81113350435E+02 0.  0.
         24    2    4    4    0    0 -0.75440903108E+02 -0.74771962670E+02 -0.19087274832E+02  0.13622666424E+03  0.83133649790E+02 0.  0.
         11    1    3    3    0    0 -0.72764868907E+01 -0.72540859677E+03  0.13486681965E+04  0.15313969061E+04  0.00000000000E+00 0.  1.
        -11    1    3    3    0    0  0.79698704596E+02 -0.79088709230E+03  0.14391212810E+04  0.16440572793E+04  0.00000000000E+00 0. -1.
          2    1    6    6  502    0 -0.32532976634E+00 -0.14396070177E+02  0.26082946085E+02  0.29793837492E+02  0.00000000000E+00 0. -1.
          3    1    5    5  503    0  0.28106493346E+02  0.22545583373E+03  0.14149886152E+03  0.26766067276E+03  0.00000000000E+00 0. -1.
         -4    1    5    5    0  503 -0.25087807943E+02  0.13656118180E+04  0.90090269676E+03  0.16362000809E+04  0.00000000000E+00 0.  1.
         -1    1    6    6    0  502 -0.75115573342E+02 -0.60375892493E+02 -0.45170220918E+02  0.10643282675E+03  0.00000000000E+00 0.  1.
<mgrwt>
<rscale>  0 0.35605284E+04</rscale>
<asrwt>0</asrwt>
<pdfrwt beam="1">  1        2 0.69435732E+00 0.35605284E+04</pdfrwt>
<pdfrwt beam="2">  1       -2 0.10803368E+00 0.35605284E+04</pdfrwt>
<totfact> 0.66669422E-02</totfact>
</mgrwt>
</event>
<event>
12    1  0.1980523E-007  0.2829780E+04  0.7818608E-02  0.8294082E-01
          2   -1    0    0  501    0  0.00000000000E+00  0.00000000000E+00  0.16668223538E+04  0.16668223538E+04  0.00000000000E+00 0. -1.
         -2   -1    0    0    0  501 -0.00000000000E+00 -0.00000000000E+00 -0.12010356396E+04  0.12010356396E+04  0.00000000000E+00 0.  1.
         23    2    1    2    0    0 -0.55356193329E+03  0.11292451489E+04  0.38895878330E+03  0.13195225288E+04  0.90693707757E+02 0.  0.
        254    2    1    2    0    0  0.55356193329E+03 -0.11292451489E+04  0.76827930908E+02  0.15483354646E+04  0.89989708276E+03 0.  0.
        -24    2    4    4    0    0  0.42354120970E+03 -0.11663118643E+04  0.29678406504E+03  0.12781242837E+04  0.76487790674E+02 0.  0.
         24    2    4    4    0    0  0.13002072358E+03  0.37066715426E+02 -0.21995613413E+03  0.27021118087E+03  0.79712303774E+02 0.  0.
         11    1    3    3    0    0 -0.17180499284E+03  0.37851583255E+03  0.17159434651E+03  0.44970636065E+03  0.00000000000E+00 0. -1.
        -11    1    3    3    0    0 -0.38175694045E+03  0.75072931634E+03  0.21736443680E+03  0.86981616815E+03  0.00000000000E+00 0.  1.
          4    1    6    6  502    0  0.11993094612E+03  0.25919180989E+02 -0.12905227011E+03  0.17807224433E+03  0.00000000000E+00 0. -1.
          1    1    5    5  503    0  0.23790805957E+03 -0.74603824015E+03  0.20756938198E+03  0.81009774034E+03  0.00000000000E+00 0. -1.
         -2    1    5    5    0  503  0.18563315014E+03 -0.42027362416E+03  0.89214683061E+02  0.46802654334E+03  0.00000000000E+00 0.  1.
         -3    1    6    6    0  502  0.10089777466E+02  0.11147534437E+02 -0.90903864023E+02  0.92138936545E+02  0.00000000000E+00 0.  1.
<mgrwt>
<rscale>  0 0.28297795E+04</rscale>
<asrwt>0</asrwt>
<pdfrwt beam="1">  1        2 0.25643421E+00 0.28297795E+04</pdfrwt>
<pdfrwt beam="2">  1       -2 0.18477471E+00 0.28297795E+04</pdfrwt>
<totfact> 0.14938340E+00</totfact>
</mgrwt>
</event>
<event>
12    1  0.1980523E-007  0.1789072E+04  0.7818608E-02  0.8712132E-01
          1   -1    0    0  501    0  0.00000000000E+00  0.00000000000E+00  0.74424111899E+03  0.74424111899E+03  0.00000000000E+00 0. -1.
         -1   -1    0    0    0  501 -0.00000000000E+00 -0.00000000000E+00 -0.10751826011E+04  0.10751826011E+04  0.00000000000E+00 0.  1.
         23    2    1    2    0    0 -0.64000100706E+03  0.53897451750E+02 -0.29555418368E+03  0.71277119771E+03  0.90467013035E+02 0.  0.
        254    2    1    2    0    0  0.64000100706E+03 -0.53897451750E+02 -0.35387298463E+02  0.11066525224E+04  0.90051169905E+03 0.  0.
        -24    2    4    4    0    0  0.67529462141E+03  0.19623192033E+03  0.21722959887E+03  0.74043292860E+03  0.80761568058E+02 0.  0.
         24    2    4    4    0    0 -0.35293614348E+02 -0.25012937208E+03 -0.25261689733E+03  0.36621959381E+03  0.80567686362E+02 0.  0.
         13    1    3    3    0    0 -0.19378259297E+03  0.45637375008E+02 -0.58904041031E+02  0.20761538812E+03  0.00000000000E+00 0. -1.
        -13    1    3    3    0    0 -0.44621841409E+03  0.82600767426E+01 -0.23665014265E+03  0.50515580959E+03  0.00000000000E+00 0.  1.
          2    1    6    6  502    0  0.97406162003E+01 -0.11878728099E+03 -0.75188629312E+02  0.14092064329E+03  0.00000000000E+00 0. -1.
          1    1    5    5  503    0  0.46270807516E+03  0.17203226647E+03  0.16032388584E+03  0.51903527038E+03  0.00000000000E+00 0. -1.
         -2    1    5    5    0  503  0.21258654624E+03  0.24199653862E+02  0.56905713031E+02  0.22139765822E+03  0.00000000000E+00 0.  1.
         -1    1    6    6    0  502 -0.45034230548E+02 -0.13134209109E+03 -0.17742826802E+03  0.22529895052E+03  0.00000000000E+00 0.  1.
<mgrwt>
<rscale>  0 0.17890725E+04</rscale>
<asrwt>0</asrwt>
<pdfrwt beam="1">  1        1 0.11449863E+00 0.17890725E+04</pdfrwt>
<pdfrwt beam="2">  1       -1 0.16541271E+00 0.17890725E+04</pdfrwt>
<totfact> 0.62299347E+00</totfact>
</mgrwt>
</event>
<event>
12    1  0.1980523E-007  0.1668356E+04  0.7818608E-02  0.8779621E-01
         -1   -1    0    0    0  501 -0.00000000000E+00  0.00000000000E+00  0.27585607854E+03  0.27585607854E+03  0.00000000000E+00 0.  1.
          1   -1    0    0  501    0  0.00000000000E+00 -0.00000000000E+00 -0.25225208406E+04  0.25225208406E+04  0.00000000000E+00 0. -1.
         23    2    1    2    0    0 -0.30660308053E+03  0.13651799263E+03  0.84864660873E+01  0.34738485591E+03  0.89227835927E+02 0.  0.
        254    2    1    2    0    0  0.30660308053E+03 -0.13651799263E+03 -0.22551512282E+04  0.24509920633E+04  0.89945117763E+03 0.  0.
        -24    2    4    4    0    0  0.20948570602E+03  0.18294990884E+03 -0.20061713852E+04  0.20269154711E+04  0.79421470587E+02 0.  0.
         24    2    4    4    0    0  0.97117374513E+02 -0.31946790147E+03 -0.24897984302E+03  0.42407659222E+03  0.79740010868E+02 0.  0.
         13    1    3    3    0    0 -0.80032191486E+02  0.28901344087E+02 -0.36436446883E+02  0.92563783553E+02  0.00000000000E+00 0. -1.
        -13    1    3    3    0    0 -0.22657088905E+03  0.10761664854E+03  0.44922912971E+02  0.25482107236E+03  0.00000000000E+00 0.  1.
          4    1    6    6  502    0  0.17966508270E+02 -0.18202992734E+03 -0.15476067294E+03  0.23960082586E+03  0.00000000000E+00 0. -1.
          3    1    5    5  503    0  0.60788958554E+02  0.12173790158E+02 -0.49670224315E+03  0.50055630752E+03  0.00000000000E+00 0. -1.
         -4    1    5    5    0  503  0.14869674747E+03  0.17077611868E+03 -0.15094691420E+04  0.15263591635E+04  0.00000000000E+00 0.  1.
         -3    1    6    6    0  502  0.79150866242E+02 -0.13743797413E+03 -0.94219170084E+02  0.18447576635E+03  0.00000000000E+00 0.  1.
<mgrwt>
<rscale>  0 0.16683557E+04</rscale>
<asrwt>0</asrwt>
<pdfrwt beam="1">  1        1 0.38808012E+00 0.16683557E+04</pdfrwt>
<pdfrwt beam="2">  1       -1 0.42439397E-01 0.16683557E+04</pdfrwt>
<totfact> 0.68217608E+00</totfact>
</mgrwt>
</event>
<event>
12    1  0.1980523E-007  0.2590860E+04  0.7818608E-02  0.8371313E-01
          1   -1    0    0  501    0  0.00000000000E+00  0.00000000000E+00  0.27923490254E+04  0.27923490254E+04  0.00000000000E+00 0. -1.
         -1   -1    0    0    0  501 -0.00000000000E+00 -0.00000000000E+00 -0.60097726930E+03  0.60097726930E+03  0.00000000000E+00 0.  1.
         23    2    1    2    0    0  0.10059987736E+04 -0.20882496382E+03  0.32690367885E+03  0.10820619728E+04  0.91382162467E+02 0.  0.
        254    2    1    2    0    0 -0.10059987736E+04  0.20882496382E+03  0.18644680773E+04  0.23112643220E+04  0.90003341983E+03 0.  0.
        -24    2    4    4    0    0 -0.11407750324E+04  0.28922850374E+03  0.15174101993E+04  0.19219456976E+04  0.79503142166E+02 0.  0.
         24    2    4    4    0    0  0.13477625878E+03 -0.80403539919E+02  0.34705787795E+03  0.38931862436E+03  0.80563338215E+02 0.  0.
         11    1    3    3    0    0  0.92400703914E+02 -0.42629321739E+01  0.52957387122E+02  0.10658586926E+03  0.00000000000E+00 0. -1.
        -11    1    3    3    0    0  0.91359806971E+03 -0.20456203164E+03  0.27394629173E+03  0.97547610351E+03  0.00000000000E+00 0.  1.
          4    1    6    6  502    0  0.12182016632E+03 -0.75552764889E+02  0.34704471217E+03  0.37548422796E+03  0.00000000000E+00 0. -1.
          3    1    5    5  503    0 -0.65977265839E+03  0.16287858673E+03  0.81205931075E+03  0.10589002403E+04  0.00000000000E+00 0. -1.
         -4    1    5    5    0  503 -0.48100237402E+03  0.12634991700E+03  0.70535088858E+03  0.86304545729E+03  0.00000000000E+00 0.  1.
         -3    1    6    6    0  502  0.12956092463E+02 -0.48507750294E+01  0.13165778405E-01  0.13834396396E+02  0.00000000000E+00 0.  1.
<mgrwt>
<rscale>  0 0.25908595E+04</rscale>
<asrwt>0</asrwt>
<pdfrwt beam="1">  1        1 0.42959215E+00 0.25908595E+04</pdfrwt>
<pdfrwt beam="2">  1       -1 0.92458043E-01 0.25908595E+04</pdfrwt>
<totfact> 0.84608293E-01</totfact>
</mgrwt>
</event>
<event>
12    1  0.1980523E-007  0.3907580E+04  0.7818608E-02  0.8023454E-01
          2   -1    0    0  501    0  0.00000000000E+00  0.00000000000E+00  0.22271877435E+04  0.22271877435E+04  0.00000000000E+00 0. -1.
         -2   -1    0    0    0  501 -0.00000000000E+00 -0.00000000000E+00 -0.17139535047E+04  0.17139535047E+04  0.00000000000E+00 0.  1.
         23    2    1    2    0    0  0.14806360820E+04  0.11068990538E+04  0.20568154447E+03  0.18622219576E+04  0.89760788519E+02 0.  0.
        254    2    1    2    0    0 -0.14806360820E+04 -0.11068990538E+04  0.30755269431E+03  0.20789192906E+04  0.89989334629E+03 0.  0.
        -24    2    4    4    0    0 -0.11885073336E+04 -0.44941256780E+03  0.43195422498E+03  0.13444307317E+04  0.79926227053E+02 0.  0.
         24    2    4    4    0    0 -0.29212874839E+03 -0.65748648596E+03 -0.12440153067E+03  0.73448855893E+03  0.79812389440E+02 0.  0.
         13    1    3    3    0    0  0.11043008088E+03  0.65683651459E+02 -0.41087992512E+01  0.12855359607E+03  0.00000000000E+00 0.  1.
        -13    1    3    3    0    0  0.13702060011E+04  0.10412154023E+04  0.20979034372E+03  0.17336683615E+04  0.00000000000E+00 0. -1.
          4    1    6    6  502    0 -0.68489510408E+02 -0.95843196787E+02 -0.27082109357E+01  0.11783066584E+03  0.00000000000E+00 0. -1.
          3    1    5    5  503    0 -0.69943323443E+03 -0.30003243713E+03  0.28019522574E+03  0.81100904883E+03  0.00000000000E+00 0. -1.
         -4    1    5    5    0  503 -0.48907409916E+03 -0.14938013068E+03  0.15175899924E+03  0.53342168287E+03  0.00000000000E+00 0.  1.
         -3    1    6    6    0  502 -0.22363923798E+03 -0.56164328918E+03 -0.12169331973E+03  0.61665789309E+03  0.00000000000E+00 0.  1.
<mgrwt>
<rscale>  0 0.39075804E+04</rscale>
<asrwt>0</asrwt>
<pdfrwt beam="1">  1        2 0.34264427E+00 0.39075804E+04</pdfrwt>
<pdfrwt beam="2">  1       -2 0.26368515E+00 0.39075804E+04</pdfrwt>
<totfact> 0.20987895E-01</totfact>
</mgrwt>
</event>
<event>
12    1  0.1980523E-007  0.4291458E+04  0.7818608E-02  0.7948199E-01
          1   -1    0    0  501    0  0.00000000000E+00  0.00000000000E+00  0.31400245447E+04  0.31400245447E+04  0.00000000000E+00 0. -1.
         -1   -1    0    0    0  501 -0.00000000000E+00 -0.00000000000E+00 -0.14662792643E+04  0.14662792643E+04  0.00000000000E+00 0.  1.
         23    2    1    2    0    0 -0.14905602101E+04 -0.65118445180E+03 -0.53925506230E+03  0.17159659148E+04  0.89062159196E+02 0.  0.
        254    2    1    2    0    0  0.14905602101E+04  0.65118445180E+03  0.22130003427E+04  0.28903378943E+04  0.90048414535E+03 0.  0.
        -24    2    4    4    0    0  0.13152278332E+04  0.32773951129E+03  0.20940028092E+04  0.24957310584E+04  0.81168407765E+02 0.  0.
         24    2    4    4    0    0  0.17533237686E+03  0.32344494051E+03  0.11899753353E+03  0.39460683587E+03  0.78715119352E+02 0.  0.
         11    1    3    3    0    0 -0.10533553790E+04 -0.41578805436E+03 -0.36960714397E+03  0.11912374664E+04  0.00000000000E+00 0. -1.
        -11    1    3    3    0    0 -0.43720483111E+03 -0.23539639744E+03 -0.16964791833E+03  0.52472844832E+03  0.00000000000E+00 0.  1.
          2    1    6    6  502    0  0.16361690807E+03  0.30271736600E+03  0.13068274576E+03  0.36808460484E+03  0.00000000000E+00 0. -1.
          1    1    5    5  503    0  0.12653136218E+04  0.30541948916E+03  0.19838390612E+04  0.23727446231E+04  0.00000000000E+00 0. -1.
         -2    1    5    5    0  503  0.49914211461E+02  0.22320022126E+02  0.11016374794E+03  0.12298643525E+03  0.00000000000E+00 0.  1.
         -1    1    6    6    0  502  0.11715468797E+02  0.20727574507E+02 -0.11685212226E+02  0.26522231030E+02  0.00000000000E+00 0.  1.
<mgrwt>
<rscale>  0 0.42914580E+04</rscale>
<asrwt>0</asrwt>
<pdfrwt beam="1">  1        1 0.48308070E+00 0.42914580E+04</pdfrwt>
<pdfrwt beam="2">  1       -1 0.22558143E+00 0.42914580E+04</pdfrwt>
<totfact> 0.36357087E-02</totfact>
</mgrwt>
</event>
<event>
12    1  0.1980523E-007  0.2524085E+04  0.7818608E-02  0.8394455E-01
         -2   -1    0    0    0  501 -0.00000000000E+00  0.00000000000E+00  0.49562976914E+03  0.49562976914E+03  0.00000000000E+00 0.  1.
          2   -1    0    0  501    0  0.00000000000E+00 -0.00000000000E+00 -0.32135916548E+04  0.32135916548E+04  0.00000000000E+00 0. -1.
         23    2    1    2    0    0 -0.10444844708E+04 -0.55418014849E+02 -0.67830783066E+03  0.12501593833E+04  0.93691005151E+02 0.  0.
        254    2    1    2    0    0  0.10444844708E+04  0.55418014849E+02 -0.20396540550E+04  0.24590620406E+04  0.89038109222E+03 0.  0.
        -24    2    4    4    0    0  0.68515378678E+03 -0.20914533520E+03 -0.18152145630E+04  0.19531446534E+04  0.81195101933E+02 0.  0.
         24    2    4    4    0    0  0.35933068403E+03  0.26456335005E+03 -0.22443949208E+03  0.50591738730E+03  0.80417724934E+02 0.  0.
         11    1    3    3    0    0 -0.30979859502E+03 -0.39960258769E+02 -0.24579140369E+03  0.39747378013E+03  0.00000000000E+00 0. -1.
        -11    1    3    3    0    0 -0.73468587579E+03 -0.15457756081E+02 -0.43251642696E+03  0.85268560320E+03  0.00000000000E+00 0.  1.
          2    1    6    6  502    0  0.18523991563E+03  0.12039738617E+03 -0.68473958019E+02  0.23129643289E+03  0.00000000000E+00 0. -1.
          1    1    5    5  503    0  0.59892709408E+03 -0.15710129130E+03 -0.15959194140E+04  0.17118274609E+04  0.00000000000E+00 0. -1.
         -2    1    5    5    0  503  0.86226692692E+02 -0.52044043906E+02 -0.21929514894E+03  0.24131719248E+03  0.00000000000E+00 0.  1.
         -1    1    6    6    0  502  0.17409076841E+03  0.14416596388E+03 -0.15596553406E+03  0.27462095441E+03  0.00000000000E+00 0.  1.
<mgrwt>
<rscale>  0 0.25240853E+04</rscale>
<asrwt>0</asrwt>
<pdfrwt beam="1">  1        2 0.49439869E+00 0.25240853E+04</pdfrwt>
<pdfrwt beam="2">  1       -2 0.76250738E-01 0.25240853E+04</pdfrwt>
<totfact> 0.17413727E+00</totfact>
</mgrwt>
</event>
<event>
12    1  0.1980523E-007  0.1746468E+04  0.7818608E-02  0.8735297E-01
          2   -1    0    0  501    0  0.00000000000E+00  0.00000000000E+00  0.15866959722E+04  0.15866959722E+04  0.00000000000E+00 0. -1.
         -2   -1    0    0    0  501 -0.00000000000E+00 -0.00000000000E+00 -0.48058185204E+03  0.48058185204E+03  0.00000000000E+00 0.  1.
         23    2    1    2    0    0  0.45704459032E+03  0.15843258284E+03  0.90036101263E+03  0.10260698647E+04  0.90436571059E+02 0.  0.
        254    2    1    2    0    0 -0.45704459032E+03 -0.15843258284E+03  0.20575310750E+03  0.10412079595E+04  0.89877084555E+03 0.  0.
        -24    2    4    4    0    0 -0.58980796048E+03  0.15370334726E+03 -0.37588843233E+02  0.61597658650E+03  0.80722269402E+02 0.  0.
         24    2    4    4    0    0  0.13276337015E+03 -0.31213593010E+03  0.24334195074E+03  0.42523137299E+03  0.80941116086E+02 0.  0.
         11    1    3    3    0    0  0.26088826110E+03  0.13064157402E+03  0.58327332444E+03  0.65217917526E+03  0.00000000000E+00 0. -1.
        -11    1    3    3    0    0  0.19615632922E+03  0.27791008813E+02  0.31708768820E+03  0.37389068947E+03  0.00000000000E+00 0.  1.
          4    1    6    6  502    0 -0.50710947973E+00 -0.51082579880E+01 -0.59736357039E+01  0.78762797830E+01  0.00000000000E+00 0. -1.
          3    1    5    5  503    0 -0.24563172940E+03  0.87452164147E+02 -0.48984923766E+02  0.26529672116E+03  0.00000000000E+00 0. -1.
         -4    1    5    5    0  503 -0.34417623107E+03  0.66251183117E+02  0.11396080533E+02  0.35067986533E+03  0.00000000000E+00 0.  1.
         -3    1    6    6    0  502  0.13327047963E+03 -0.30702767211E+03  0.24931558644E+03  0.41735509321E+03  0.00000000000E+00 0.  1.
<mgrwt>
<rscale>  0 0.17464676E+04</rscale>
<asrwt>0</asrwt>
<pdfrwt beam="1">  1        2 0.24410707E+00 0.17464676E+04</pdfrwt>
<pdfrwt beam="2">  1       -2 0.73935670E-01 0.17464676E+04</pdfrwt>
<totfact> 0.17726675E+01</totfact>
</mgrwt>
</event>
<event>
12    1  0.1980523E-007  0.4453155E+04  0.7818608E-02  0.7918890E-01
          1   -1    0    0  501    0  0.00000000000E+00  0.00000000000E+00  0.39388908030E+04  0.39388908030E+04  0.00000000000E+00 0. -1.
         -1   -1    0    0    0  501 -0.00000000000E+00 -0.00000000000E+00 -0.12586403881E+04  0.12586403881E+04  0.00000000000E+00 0.  1.
         23    2    1    2    0    0 -0.19919359214E+04  0.49883517788E+03  0.60522167840E+03  0.21427795968E+04  0.92551990257E+02 0.  0.
        254    2    1    2    0    0  0.19919359214E+04 -0.49883517788E+03  0.20750287365E+04  0.30547515943E+04  0.89950975296E+03 0.  0.
        -24    2    4    4    0    0  0.44787007134E+03 -0.52228085702E+03  0.71509185409E+03  0.99550510376E+03  0.79430204742E+02 0.  0.
         24    2    4    4    0    0  0.15440658501E+04  0.23445679137E+02  0.13599368824E+04  0.20592464905E+04  0.79866984914E+02 0.  0.
         13    1    3    3    0    0 -0.21096128182E+03  0.24768516641E+02  0.55179395312E+02  0.21946049192E+03  0.00000000000E+00 0. -1.
        -13    1    3    3    0    0 -0.17809746396E+04  0.47406666124E+03  0.55004228309E+03  0.19233191049E+04  0.00000000000E+00 0.  1.
          4    1    6    6  502    0  0.17138846026E+03 -0.26587918549E+01  0.11956049924E+03  0.20898752705E+03  0.00000000000E+00 0. -1.
          3    1    5    5  503    0  0.82443310708E+02 -0.14140728110E+03  0.19340409516E+03  0.25337336611E+03  0.00000000000E+00 0. -1.
         -4    1    5    5    0  503  0.36542676063E+03 -0.38087357593E+03  0.52168775892E+03  0.74213173765E+03  0.00000000000E+00 0.  1.
         -3    1    6    6    0  502  0.13726773898E+04  0.26104470992E+02  0.12403763832E+04  0.18502589634E+04  0.00000000000E+00 0.  1.
<mgrwt>
<rscale>  0 0.44531549E+04</rscale>
<asrwt>0</asrwt>
<pdfrwt beam="1">  1        1 0.60598320E+00 0.44531549E+04</pdfrwt>
<pdfrwt beam="2">  1       -1 0.19363698E+00 0.44531549E+04</pdfrwt>
<totfact> 0.13594914E-02</totfact>
</mgrwt>
</event>
<event>
12    1  0.2286117E-007  0.3463652E+04  0.7818608E-02  0.8122458E-01
          2   -1    0    0  501    0  0.00000000000E+00  0.00000000000E+00  0.27080834422E+04  0.27080834422E+04  0.00000000000E+00 0. -1.
         -2   -1    0    0    0  501 -0.00000000000E+00 -0.00000000000E+00 -0.11075067736E+04  0.11075067736E+04  0.00000000000E+00 0.  1.
         23    2    1    2    0    0  0.11943094493E+04 -0.76110283277E+03  0.15981328422E+04  0.21373467863E+04  0.92574946724E+02 0.  0.
        254    2    1    2    0    0 -0.11943094493E+04  0.76110283277E+03  0.24438263369E+01  0.16782434295E+04  0.90046790813E+03 0.  0.
        -24    2    4    4    0    0 -0.12051578873E+04  0.45257638669E+03  0.19709931510E+03  0.13048098292E+04  0.80309597393E+02 0.  0.
         24    2    4    4    0    0  0.10848437947E+02  0.30852644608E+03 -0.19465548876E+03  0.37343360026E+03  0.79092591052E+02 0.  0.
         13    1    3    3    0    0  0.87969465372E+03 -0.54401247688E+03  0.11072965724E+04  0.15152286818E+04  0.00000000000E+00 0.  1.
        -13    1    3    3    0    0  0.31461479560E+03 -0.21709035589E+03  0.49083626980E+03  0.62211810453E+03  0.00000000000E+00 0. -1.
          2    1    6    6  502    0  0.53186199266E+01  0.25042842151E+03 -0.19092768820E+03  0.31495406672E+03  0.00000000000E+00 0. -1.
          3    1    5    5  503    0 -0.11912882661E+04  0.43741774499E+03  0.19079351626E+03  0.12833176468E+04  0.00000000000E+00 0. -1.
         -4    1    5    5    0  503 -0.13869621140E+02  0.15158641693E+02  0.63057988324E+01  0.21492182473E+02  0.00000000000E+00 0.  1.
         -1    1    6    6    0  502  0.55298180206E+01  0.58098024567E+02 -0.37278005572E+01  0.58479533539E+02  0.00000000000E+00 0.  1.
<mgrwt>
<rscale>  0 0.34636517E+04</rscale>
<asrwt>0</asrwt>
<pdfrwt beam="1">  1        2 0.41662822E+00 0.34636517E+04</pdfrwt>
<pdfrwt beam="2">  1       -2 0.17038566E+00 0.34636517E+04</pdfrwt>
<totfact> 0.45824596E-01</totfact>
</mgrwt>
</event>
<event>
12    1  0.1980523E-007  0.2719525E+04  0.7818608E-02  0.8328697E-01
         -2   -1    0    0    0  501 -0.00000000000E+00  0.00000000000E+00  0.66681702793E+03  0.66681702793E+03  0.00000000000E+00 0.  1.
          2   -1    0    0  501    0  0.00000000000E+00 -0.00000000000E+00 -0.27728056066E+04  0.27728056066E+04  0.00000000000E+00 0. -1.
         23    2    1    2    0    0 -0.11989647061E+04 -0.16300181703E+03 -0.82159060142E+03  0.14655313475E+04  0.93193644329E+02 0.  0.
        254    2    1    2    0    0  0.11989647061E+04  0.16300181703E+03 -0.12843979772E+04  0.19740912869E+04  0.88502671509E+03 0.  0.
        -24    2    4    4    0    0  0.10136598725E+04 -0.16403285904E+03 -0.60587151981E+03  0.11949397686E+04  0.79922687904E+02 0.  0.
         24    2    4    4    0    0  0.18530483360E+03  0.32703467607E+03 -0.67852645739E+03  0.77915151834E+03  0.73412358858E+02 0.  0.
         11    1    3    3    0    0 -0.27521623083E+03 -0.34973191915E+02 -0.23695629923E+03  0.36484981240E+03  0.00000000000E+00 0. -1.
        -11    1    3    3    0    0 -0.92374847532E+03 -0.12802862512E+03 -0.58463430219E+03  0.11006815351E+04  0.00000000000E+00 0.  1.
          4    1    6    6  502    0  0.14959013299E+03  0.29879841793E+03 -0.55915347155E+03  0.65139105550E+03  0.00000000000E+00 0. -1.
          1    1    5    5  503    0  0.84265171761E+03 -0.15527450465E+03 -0.53115692892E+03  0.10081169437E+04  0.00000000000E+00 0. -1.
         -2    1    5    5    0  503  0.17100815493E+03 -0.87583543898E+01 -0.74714590894E+02  0.18682282494E+03  0.00000000000E+00 0.  1.
         -3    1    6    6    0  502  0.35714700613E+02  0.28236258143E+02 -0.11937298585E+03  0.12776046284E+03  0.00000000000E+00 0.  1.
<mgrwt>
<rscale>  0 0.27195250E+04</rscale>
<asrwt>0</asrwt>
<pdfrwt beam="1">  1        2 0.42658548E+00 0.27195250E+04</pdfrwt>
<pdfrwt beam="2">  1       -2 0.10258724E+00 0.27195250E+04</pdfrwt>
<totfact> 0.16343619E+00</totfact>
</mgrwt>
</event>
<event>
12    1  0.1980523E-007  0.2214097E+04  0.7818608E-02  0.8512583E-01
         -1   -1    0    0    0  501 -0.00000000000E+00  0.00000000000E+00  0.61348603825E+03  0.61348603825E+03  0.00000000000E+00 0.  1.
          1   -1    0    0  501    0  0.00000000000E+00 -0.00000000000E+00 -0.19976922775E+04  0.19976922775E+04  0.00000000000E+00 0. -1.
         23    2    1    2    0    0  0.51823743433E+02 -0.90084732466E+03 -0.80032750394E+03  0.12098062578E+04  0.94315773663E+02 0.  0.
        254    2    1    2    0    0 -0.51823743433E+02  0.90084732466E+03 -0.58387873529E+03  0.14013720579E+04  0.89928730917E+03 0.  0.
        -24    2    4    4    0    0  0.14818857688E+02  0.82883601996E+03 -0.29831661250E+02  0.83311343159E+03  0.77455247377E+02 0.  0.
         24    2    4    4    0    0 -0.66642601121E+02  0.72011304694E+02 -0.55404707404E+03  0.56825862632E+03  0.79516299252E+02 0.  0.
         11    1    3    3    0    0  0.74664818642E+02 -0.57220888651E+03 -0.53313350071E+03  0.78563934125E+03  0.00000000000E+00 0. -1.
        -11    1    3    3    0    0 -0.22841075209E+02 -0.32863843815E+03 -0.26719400323E+03  0.42416691656E+03  0.00000000000E+00 0.  1.
          2    1    6    6  502    0 -0.47897376072E+02  0.12792042509E+02 -0.38466085060E+03  0.38784244864E+03  0.00000000000E+00 0. -1.
          1    1    5    5  503    0  0.76969867096E+01  0.77022944019E+03 -0.84231951424E+01  0.77031395181E+03  0.00000000000E+00 0. -1.
         -2    1    5    5    0  503  0.71218709784E+01  0.58606579773E+02 -0.21408466107E+02  0.62799479775E+02  0.00000000000E+00 0.  1.
         -1    1    6    6    0  502 -0.18745225049E+02  0.59219262185E+02 -0.16938622345E+03  0.18041617768E+03  0.00000000000E+00 0.  1.
<mgrwt>
<rscale>  0 0.22140969E+04</rscale>
<asrwt>0</asrwt>
<pdfrwt beam="1">  1        1 0.30733727E+00 0.22140969E+04</pdfrwt>
<pdfrwt beam="2">  1       -1 0.94382468E-01 0.22140969E+04</pdfrwt>
<totfact> 0.29586274E+00</totfact>
</mgrwt>
</event>
<event>
12    1  0.1980523E-007  0.2431441E+04  0.7818608E-02  0.8427825E-01
         -2   -1    0    0    0  501 -0.00000000000E+00  0.00000000000E+00  0.14533918714E+04  0.14533918714E+04  0.00000000000E+00 0.  1.
          2   -1    0    0  501    0  0.00000000000E+00 -0.00000000000E+00 -0.10169151792E+04  0.10169151792E+04  0.00000000000E+00 0. -1.
         23    2    1    2    0    0 -0.47606967819E+03  0.44658214703E+03 -0.64138739489E+03  0.91929450403E+03  0.87445081473E+02 0.  0.
        254    2    1    2    0    0  0.47606967819E+03 -0.44658214703E+03  0.10778640872E+04  0.15510125466E+04  0.90430690406E+03 0.  0.
        -24    2    4    4    0    0  0.55951226974E+03 -0.15495253785E+03  0.10898016374E+04  0.12373863904E+04  0.79957496343E+02 0.  0.
         24    2    4    4    0    0 -0.83442591546E+02 -0.29162960918E+03 -0.11937550249E+02  0.31362615620E+03  0.78793183165E+02 0.  0.
         13    1    3    3    0    0 -0.45562691969E+03  0.40216344839E+03 -0.61073012111E+03  0.86158145871E+03  0.00000000000E+00 0.  1.
        -13    1    3    3    0    0 -0.20442758503E+02  0.44418698639E+02 -0.30657273781E+02  0.57713045316E+02  0.00000000000E+00 0. -1.
          2    1    6    6  502    0 -0.35927276487E+02 -0.18134363849E+03 -0.42544986211E+02  0.18970071236E+03  0.00000000000E+00 0. -1.
          3    1    5    5  503    0  0.33834269601E+03 -0.13205543190E+03  0.65093130799E+03  0.74540323635E+03  0.00000000000E+00 0. -1.
         -4    1    5    5    0  503  0.22116957372E+03 -0.22897105941E+02  0.43887032942E+03  0.49198315403E+03  0.00000000000E+00 0.  1.
         -1    1    6    6    0  502 -0.47515315059E+02 -0.11028597069E+03  0.30607435962E+02  0.12392544384E+03  0.00000000000E+00 0.  1.
<mgrwt>
<rscale>  0 0.24314409E+04</rscale>
<asrwt>0</asrwt>
<pdfrwt beam="1">  1        2 0.15644849E+00 0.24314409E+04</pdfrwt>
<pdfrwt beam="2">  1       -2 0.22359875E+00 0.24314409E+04</pdfrwt>
<totfact> 0.20662884E+00</totfact>
</mgrwt>
</event>
<event>
12    1  0.1980523E-007  0.1444009E+04  0.7818608E-02  0.8922564E-01
          2   -1    0    0  501    0  0.00000000000E+00  0.00000000000E+00  0.34004759748E+04  0.34004759748E+04  0.00000000000E+00 0.  1.
         -2   -1    0    0    0  501 -0.00000000000E+00 -0.00000000000E+00 -0.15329934136E+03  0.15329934136E+03  0.00000000000E+00 0. -1.
         23    2    1    2    0    0  0.20316855413E+03 -0.37380965681E+03  0.76580541183E+03  0.88023727754E+03  0.85724063580E+02 0.  0.
        254    2    1    2    0    0 -0.20316855413E+03  0.37380965681E+03  0.24813712216E+04  0.26735380386E+04  0.89977296222E+03 0.  0.
        -24    2    4    4    0    0 -0.16308257236E+03  0.50384369357E+03  0.68159013931E+03  0.86687476380E+03  0.80326490977E+02 0.  0.
         24    2    4    4    0    0 -0.40085981771E+02 -0.13003403676E+03  0.17997810823E+04  0.18066632748E+04  0.79400930018E+02 0.  0.
         11    1    3    3    0    0  0.14362675228E+03 -0.29938585641E+03  0.52430597068E+03  0.62061041393E+03  0.00000000000E+00 0. -1.
        -11    1    3    3    0    0  0.59541801851E+02 -0.74423800402E+02  0.24149944115E+03  0.25962686362E+03  0.00000000000E+00 0.  1.
          2    1    6    6  502    0  0.12189284356E+02 -0.79125921268E+02  0.11537762101E+04  0.11565504888E+04  0.00000000000E+00 0. -1.
          3    1    5    5  503    0 -0.13541149352E+03  0.42767936977E+03  0.52499351336E+03  0.69055347727E+03  0.00000000000E+00 0. -1.
         -4    1    5    5    0  503 -0.27671078844E+02  0.76164323798E+02  0.15659662594E+03  0.17632128652E+03  0.00000000000E+00 0.  1.
         -1    1    6    6    0  502 -0.52275266127E+02 -0.50908115493E+02  0.64600487216E+03  0.65011278600E+03  0.00000000000E+00 0.  1.
<mgrwt>
<rscale>  0 0.14440093E+04</rscale>
<asrwt>0</asrwt>
<pdfrwt beam="1">  1        2 0.52315009E+00 0.14440093E+04</pdfrwt>
<pdfrwt beam="2">  1       -2 0.23584517E-01 0.14440093E+04</pdfrwt>
<totfact> 0.14943373E+01</totfact>
</mgrwt>
</event>
<event>
12    1  0.1980523E-007  0.1631767E+04  0.7818608E-02  0.8801266E-01
          2   -1    0    0  501    0  0.00000000000E+00  0.00000000000E+00  0.71971999065E+03  0.71971999065E+03  0.00000000000E+00 0. -1.
         -2   -1    0    0    0  501 -0.00000000000E+00 -0.00000000000E+00 -0.92489599252E+03  0.92489599252E+03  0.00000000000E+00 0.  1.
         23    2    1    2    0    0  0.43746320989E+03 -0.28648967746E+03  0.13464242624E+03  0.54783849378E+03  0.92455594856E+02 0.  0.
        254    2    1    2    0    0 -0.43746320989E+03  0.28648967746E+03 -0.33981842811E+03  0.10967774894E+04  0.90221610596E+03 0.  0.
        -24    2    4    4    0    0 -0.32693121480E+03 -0.28995323958E+03 -0.20400864668E+03  0.48871996703E+03  0.79188243400E+02 0.  0.
         24    2    4    4    0    0 -0.11053199509E+03  0.57644291704E+03 -0.13580978143E+03  0.60805752237E+03  0.82376545420E+02 0.  0.
         11    1    3    3    0    0  0.11492614072E+03 -0.48366586884E+02 -0.71270091668E+00  0.12469102811E+03  0.00000000000E+00 0.  1.
        -11    1    3    3    0    0  0.32253706917E+03 -0.23812309057E+03  0.13535512716E+03  0.42314746567E+03  0.00000000000E+00 0. -1.
          2    1    6    6  502    0 -0.10317237435E+03  0.57616766969E+03 -0.13413944841E+03  0.60050571524E+03  0.00000000000E+00 0. -1.
          3    1    5    5  503    0 -0.13856938179E+03 -0.77042119612E+02 -0.91015221970E+02  0.18281338133E+03  0.00000000000E+00 0. -1.
         -4    1    5    5    0  503 -0.18836183301E+03 -0.21291111997E+03 -0.11299342471E+03  0.30590658569E+03  0.00000000000E+00 0.  1.
         -1    1    6    6    0  502 -0.73596207350E+01  0.27524735363E+00 -0.16703330193E+01  0.75518071258E+01  0.00000000000E+00 0.  1.
<mgrwt>
<rscale>  0 0.16317673E+04</rscale>
<asrwt>0</asrwt>
<pdfrwt beam="1">  1        2 0.11072615E+00 0.16317673E+04</pdfrwt>
<pdfrwt beam="2">  1       -2 0.14229169E+00 0.16317673E+04</pdfrwt>
<totfact> 0.13018513E+01</totfact>
</mgrwt>
</event>
<event>
12    1  0.1980523E-007  0.2194676E+04  0.7818608E-02  0.8520647E-01
          1   -1    0    0  501    0  0.00000000000E+00  0.00000000000E+00  0.14635225918E+04  0.14635225918E+04  0.00000000000E+00 0. -1.
         -1   -1    0    0    0  501 -0.00000000000E+00 -0.00000000000E+00 -0.82277597424E+03  0.82277597424E+03  0.00000000000E+00 0.  1.
         23    2    1    2    0    0 -0.77492535545E+03  0.33092475375E+03  0.62646203895E+03  0.10537612056E+04  0.89092609549E+02 0.  0.
        254    2    1    2    0    0  0.77492535545E+03 -0.33092475375E+03  0.14284578612E+02  0.12325373604E+04  0.89940191042E+03 0.  0.
        -24    2    4    4    0    0 -0.14317474609E+03  0.79289006680E+02 -0.11286022859E+03  0.21596939572E+03  0.84377687785E+02 0.  0.
         24    2    4    4    0    0  0.91810010153E+03 -0.41021376043E+03  0.12714480720E+03  0.10165679647E+04  0.77855630176E+02 0.  0.
         13    1    3    3    0    0 -0.71448484120E+03  0.32524902724E+03  0.59720880567E+03  0.98637410530E+03  0.00000000000E+00 0. -1.
        -13    1    3    3    0    0 -0.60440514243E+02  0.56757265112E+01  0.29253233282E+02  0.67387100330E+02  0.00000000000E+00 0.  1.
          2    1    6    6  502    0  0.90987390937E+03 -0.40102849723E+03  0.11819384607E+03  0.10013311998E+04  0.00000000000E+00 0. -1.
          1    1    5    5  503    0 -0.84173127276E+02  0.91018700425E+02 -0.76648033487E+02  0.14575472624E+03  0.00000000000E+00 0. -1.
         -2    1    5    5    0  503 -0.59001618810E+02 -0.11729693745E+02 -0.36212195099E+02  0.70214669489E+02  0.00000000000E+00 0.  1.
         -1    1    6    6    0  502  0.82261921628E+01 -0.91852632074E+01  0.89509611288E+01  0.15236764841E+02  0.00000000000E+00 0.  1.
<mgrwt>
<rscale>  0 0.21946765E+04</rscale>
<asrwt>0</asrwt>
<pdfrwt beam="1">  1        1 0.22515732E+00 0.21946765E+04</pdfrwt>
<pdfrwt beam="2">  1       -1 0.12658092E+00 0.21946765E+04</pdfrwt>
<totfact> 0.34307744E+00</totfact>
</mgrwt>
</event>
<event>
12    1  0.1980523E-007  0.2269061E+04  0.7818608E-02  0.8490221E-01
          2   -1    0    0  501    0  0.00000000000E+00  0.00000000000E+00  0.95032146157E+03  0.95032146157E+03  0.00000000000E+00 0. -1.
         -2   -1    0    0    0  501 -0.00000000000E+00 -0.00000000000E+00 -0.13544468043E+04  0.13544468043E+04  0.00000000000E+00 0.  1.
         23    2    1    2    0    0 -0.86893155387E+03  0.14881339774E+03  0.19763385546E+03  0.90833271353E+03  0.93923931921E+02 0.  0.
        254    2    1    2    0    0  0.86893155387E+03 -0.14881339774E+03 -0.60175919821E+03  0.13964355524E+04  0.90040582327E+03 0.  0.
        -24    2    4    4    0    0  0.35171178800E+03  0.35195791288E+03 -0.95733491374E+02  0.51284275236E+03  0.79165857658E+02 0.  0.
         24    2    4    4    0    0  0.51721976588E+03 -0.50077131062E+03 -0.50602570683E+03  0.88359279999E+03  0.79912630225E+02 0.  0.
         13    1    3    3    0    0 -0.67597589156E+03  0.78870365708E+02  0.13578576853E+03  0.69397529891E+03  0.00000000000E+00 0.  1.
        -13    1    3    3    0    0 -0.19295566231E+03  0.69943032035E+02  0.61848086925E+02  0.21435741463E+03  0.00000000000E+00 0. -1.
          4    1    6    6  502    0  0.33633512718E+03 -0.37192397456E+03 -0.33116263015E+03  0.60093048536E+03  0.00000000000E+00 0. -1.
          1    1    5    5  503    0  0.22088340659E+03  0.24495271762E+03 -0.97068867172E+02  0.34382216064E+03  0.00000000000E+00 0. -1.
         -2    1    5    5    0  503  0.13082838140E+03  0.10700519526E+03  0.13353757980E+01  0.16902059171E+03  0.00000000000E+00 0.  1.
         -3    1    6    6    0  502  0.18088463869E+03 -0.12884733606E+03 -0.17486307668E+03  0.28266231463E+03  0.00000000000E+00 0.  1.
<mgrwt>
<rscale>  0 0.22690614E+04</rscale>
<asrwt>0</asrwt>
<pdfrwt beam="1">  1        2 0.14620330E+00 0.22690614E+04</pdfrwt>
<pdfrwt beam="2">  1       -2 0.20837643E+00 0.22690614E+04</pdfrwt>
<totfact> 0.28924000E+00</totfact>
</mgrwt>
</event>
<event>
12    1  0.1980523E-007  0.2178640E+04  0.7818608E-02  0.8527372E-01
         -2   -1    0    0    0  501 -0.00000000000E+00  0.00000000000E+00  0.46044291712E+03  0.46044291712E+03  0.00000000000E+00 0. -1.
          2   -1    0    0  501    0  0.00000000000E+00 -0.00000000000E+00 -0.25771230594E+04  0.25771230594E+04  0.00000000000E+00 0.  1.
         23    2    1    2    0    0  0.75580913426E+03  0.18439109011E+03 -0.15187789931E+04  0.17076487290E+04  0.64241967428E+02 0.  0.
        254    2    1    2    0    0 -0.75580913426E+03 -0.18439109011E+03 -0.59790114924E+03  0.13299172475E+04  0.89774527538E+03 0.  0.
        -24    2    4    4    0    0 -0.28008056033E+02  0.18924346525E+03  0.11927028293E+03  0.23901589775E+03  0.79408177444E+02 0.  0.
         24    2    4    4    0    0 -0.72780107823E+03 -0.37363455535E+03 -0.71717143217E+03  0.10909013498E+04  0.80210357273E+02 0.  0.
         13    1    3    3    0    0  0.41166538252E+03  0.73615608823E+02 -0.77366443777E+03  0.87945682515E+03  0.00000000000E+00 0. -1.
        -13    1    3    3    0    0  0.34414375174E+03  0.11077548128E+03 -0.74511455529E+03  0.82819190386E+03  0.00000000000E+00 0.  1.
          4    1    6    6  502    0 -0.71015507133E+03 -0.36813446769E+03 -0.71386955364E+03  0.10721254363E+04  0.00000000000E+00 0. -1.
          1    1    5    5  503    0 -0.48656257979E+02  0.15807833357E+03  0.11486911976E+03  0.20137305097E+03  0.00000000000E+00 0. -1.
         -2    1    5    5    0  503  0.20648201946E+02  0.31165131677E+02  0.44011631736E+01  0.37642846775E+02  0.00000000000E+00 0.  1.
         -3    1    6    6    0  502 -0.17646006900E+02 -0.55000876585E+01 -0.33018785329E+01  0.18775913443E+02  0.00000000000E+00 0.  1.
<mgrwt>
<rscale>  0 0.21786400E+04</rscale>
<asrwt>0</asrwt>
<pdfrwt beam="1">  1        2 0.39648047E+00 0.21786400E+04</pdfrwt>
<pdfrwt beam="2">  1       -2 0.70837373E-01 0.21786400E+04</pdfrwt>
<totfact> 0.52065697E+00</totfact>
</mgrwt>
</event>
<event>
12    1  0.1980523E-007  0.4157741E+04  0.7818608E-02  0.7973460E-01
         -2   -1    0    0    0  501 -0.00000000000E+00  0.00000000000E+00  0.13779713586E+04  0.13779713586E+04  0.00000000000E+00 0.  1.
          2   -1    0    0  501    0  0.00000000000E+00 -0.00000000000E+00 -0.31362789054E+04  0.31362789054E+04  0.00000000000E+00 0. -1.
         23    2    1    2    0    0  0.16759884964E+04  0.78076306471E+03 -0.16068457170E+04  0.24512574359E+04  0.90451400304E+02 0.  0.
        254    2    1    2    0    0 -0.16759884964E+04 -0.78076306471E+03 -0.15146182987E+03  0.20629928281E+04  0.90248009374E+03 0.  0.
        -24    2    4    4    0    0 -0.19605708066E+03 -0.36175760836E+03  0.22690048656E+03  0.47658179081E+03  0.79620515238E+02 0.  0.
         24    2    4    4    0    0 -0.14799314158E+04 -0.41900545635E+03 -0.37836231643E+03  0.15864110373E+04  0.88200731212E+02 0.  0.
         13    1    3    3    0    0  0.50485761159E+03  0.25613879697E+03 -0.54161097105E+03  0.78347350642E+03  0.00000000000E+00 0. -1.
        -13    1    3    3    0    0  0.11711308848E+04  0.52462426774E+03 -0.10652347459E+04  0.16677839295E+04  0.00000000000E+00 0.  1.
          2    1    6    6  502    0 -0.14086500770E+04 -0.39731837310E+03 -0.33989603214E+03  0.15025598963E+04  0.00000000000E+00 0. -1.
          1    1    5    5  503    0 -0.17896208926E+03 -0.35967943266E+03  0.21994519344E+03  0.45800940142E+03  0.00000000000E+00 0. -1.
         -2    1    5    5    0  503 -0.17094991395E+02 -0.20781756935E+01  0.69552931188E+01  0.18572389383E+02  0.00000000000E+00 0.  1.
         -1    1    6    6    0  502 -0.71281338710E+02 -0.21687083246E+02 -0.38466284286E+02  0.83851141046E+02  0.00000000000E+00 0.  1.
<mgrwt>
<rscale>  0 0.41577410E+04</rscale>
<asrwt>0</asrwt>
<pdfrwt beam="1">  1        2 0.48250445E+00 0.41577410E+04</pdfrwt>
<pdfrwt beam="2">  1       -2 0.21199559E+00 0.41577410E+04</pdfrwt>
<totfact> 0.12340101E-01</totfact>
</mgrwt>
</event>
<event>
12    1  0.1984385E-007  0.2411594E+04  0.7818608E-02  0.8435176E-01
          2   -1    0    0  501    0  0.00000000000E+00  0.00000000000E+00  0.12329951750E+04  0.12329951750E+04  0.00000000000E+00 0. -1.
         -2   -1    0    0    0  501 -0.00000000000E+00 -0.00000000000E+00 -0.11791987962E+04  0.11791987962E+04  0.00000000000E+00 0.  1.
         23    2    1    2    0    0 -0.79780586916E+03  0.45686557367E+03  0.50666814795E+03  0.10536341388E+04  0.90619694283E+02 0.  0.
        254    2    1    2    0    0  0.79780586916E+03 -0.45686557367E+03 -0.45287176920E+03  0.13585598325E+04  0.89183609578E+03 0.  0.
        -24    2    4    4    0    0 -0.78934540780E+02 -0.24662265604E+03  0.11051775026E+03  0.29207638809E+03  0.77724173569E+02 0.  0.
         24    2    4    4    0    0  0.87674040994E+03 -0.21024291763E+03 -0.56338951946E+03  0.10664834444E+04  0.84281407351E+02 0.  0.
         11    1    3    3    0    0 -0.48579389646E+03  0.24573157653E+03  0.25981001595E+03  0.60322546525E+03  0.00000000000E+00 0.  1.
        -11    1    3    3    0    0 -0.31201197270E+03  0.21113399713E+03  0.24685813200E+03  0.45040867353E+03  0.00000000000E+00 0. -1.
          2    1    6    6  502    0  0.81048366917E+03 -0.20723002230E+03 -0.54201540255E+03  0.99679925598E+03  0.00000000000E+00 0. -1.
          1    1    5    5  503    0 -0.66771175671E+02 -0.20859247437E+03  0.12176948961E+03  0.25059333364E+03  0.00000000000E+00 0. -1.
         -2    1    5    5    0  503 -0.12163365109E+02 -0.38030181667E+02 -0.11251739344E+02  0.41483054452E+02  0.00000000000E+00 0.  1.
         -1    1    6    6    0  502  0.66256740775E+02 -0.30128953293E+01 -0.21374116910E+02  0.69684188379E+02  0.00000000000E+00 0.  1.
<mgrwt>
<rscale>  0 0.24115940E+04</rscale>
<asrwt>0</asrwt>
<pdfrwt beam="1">  1        2 0.18969157E+00 0.24115940E+04</pdfrwt>
<pdfrwt beam="2">  1       -2 0.18141520E+00 0.24115940E+04</pdfrwt>
<totfact> 0.28834003E+00</totfact>
</mgrwt>
</event>
<event>
12    1  0.1980523E-007  0.1276567E+04  0.7818608E-02  0.9048357E-01
         -1   -1    0    0    0  501 -0.00000000000E+00  0.00000000000E+00  0.55885995691E+03  0.55885995691E+03  0.00000000000E+00 0. -1.
          1   -1    0    0  501    0  0.00000000000E+00 -0.00000000000E+00 -0.72899456099E+03  0.72899456099E+03  0.00000000000E+00 0.  1.
         23    2    1    2    0    0  0.85657070545E+02 -0.12077770887E+03  0.23294733721E+03  0.29141110944E+03  0.93442945675E+02 0.  0.
        254    2    1    2    0    0 -0.85657070545E+02  0.12077770887E+03 -0.40308194129E+03  0.99644340846E+03  0.89916629506E+03 0.  0.
        -24    2    4    4    0    0  0.23260754378E+03  0.40568489145E+03 -0.24347753544E+03  0.53370489849E+03  0.82904208763E+02 0.  0.
         24    2    4    4    0    0 -0.31826461432E+03 -0.28490718259E+03 -0.15960440585E+03  0.46273850997E+03  0.78669529180E+02 0.  0.
         11    1    3    3    0    0  0.21416969956E+02 -0.64526547454E+02  0.17626555735E+03  0.18892302305E+03  0.00000000000E+00 0. -1.
        -11    1    3    3    0    0  0.64240100590E+02 -0.56251161414E+02  0.56681779859E+02  0.10248808639E+03  0.00000000000E+00 0.  1.
          4    1    6    6  502    0 -0.25865352351E+03 -0.26782241710E+03 -0.13665092310E+03  0.39661564153E+03  0.00000000000E+00 0. -1.
          3    1    5    5  503    0  0.20707780815E+03  0.39609589731E+03 -0.23593835927E+03  0.50541081099E+03  0.00000000000E+00 0. -1.
         -4    1    5    5    0  503  0.25529735627E+02  0.95889941474E+01 -0.75391761650E+01  0.28294087495E+02  0.00000000000E+00 0.  1.
         -3    1    6    6    0  502 -0.59611090809E+02 -0.17084765485E+02 -0.22953482759E+02  0.66122868434E+02  0.00000000000E+00 0.  1.
<mgrwt>
<rscale>  0 0.12765671E+04</rscale>
<asrwt>0</asrwt>
<pdfrwt beam="1">  1        1 0.11215301E+00 0.12765671E+04</pdfrwt>
<pdfrwt beam="2">  1       -1 0.85978455E-01 0.12765671E+04</pdfrwt>
<totfact> 0.33662491E+01</totfact>
</mgrwt>
</event>
<event>
12    1  0.1980523E-007  0.1926926E+04  0.7818608E-02  0.8641568E-01
          3   -1    0    0  501    0  0.00000000000E+00  0.00000000000E+00  0.18700481411E+04  0.18700481411E+04  0.00000000000E+00 0. -1.
         -3   -1    0    0    0  501 -0.00000000000E+00 -0.00000000000E+00 -0.49638353680E+03  0.49638353680E+03  0.00000000000E+00 0.  1.
         23    2    1    2    0    0 -0.13432356596E+03 -0.73781245967E+03  0.52625177537E+03  0.92054802111E+03  0.89764592490E+02 0.  0.
        254    2    1    2    0    0  0.13432356596E+03  0.73781245967E+03  0.84741282889E+03  0.14458836568E+04  0.90003388842E+03 0.  0.
        -24    2    4    4    0    0  0.45035216925E+03  0.39204082636E+03  0.74851071376E+03  0.96089863318E+03  0.80899992250E+02 0.  0.
         24    2    4    4    0    0 -0.31602860329E+03  0.34577163330E+03  0.98902115128E+02  0.48498502358E+03  0.77438648132E+02 0.  0.
         13    1    3    3    0    0 -0.82187533697E+02 -0.24757895183E+03  0.20935741435E+03  0.33448565743E+03  0.00000000000E+00 0. -1.
        -13    1    3    3    0    0 -0.52136032265E+02 -0.49023350783E+03  0.31689436103E+03  0.58606236367E+03  0.00000000000E+00 0.  1.
          4    1    6    6  502    0 -0.44053694238E+02  0.18356494950E+02 -0.11619398141E+01  0.47739281384E+02  0.00000000000E+00 0. -1.
          1    1    5    5  503    0  0.37989345721E+02  0.44054978840E+02  0.11402264001E+03  0.12800466391E+03  0.00000000000E+00 0. -1.
         -4    1    5    5    0  503  0.41236282353E+03  0.34798584752E+03  0.63448807375E+03  0.83289396926E+03  0.00000000000E+00 0.  1.
         -3    1    6    6    0  502 -0.27197490905E+03  0.32741513835E+03  0.10006405494E+03  0.43724574219E+03  0.00000000000E+00 0.  1.
<mgrwt>
<rscale>  0 0.19269262E+04</rscale>
<asrwt>0</asrwt>
<pdfrwt beam="1">  1        3 0.28769971E+00 0.19269262E+04</pdfrwt>
<pdfrwt beam="2">  1       -3 0.76366699E-01 0.19269262E+04</pdfrwt>
<totfact> 0.17846896E-01</totfact>
</mgrwt>
</event>
<event>
12    1  0.1980523E-007  0.1427791E+04  0.7818608E-02  0.8933944E-01
         -2   -1    0    0    0  501 -0.00000000000E+00  0.00000000000E+00  0.59247239883E+03  0.59247239883E+03  0.00000000000E+00 0.  1.
          2   -1    0    0  501    0  0.00000000000E+00 -0.00000000000E+00 -0.86020394023E+03  0.86020394023E+03  0.00000000000E+00 0. -1.
         23    2    1    2    0    0 -0.12374728405E+03 -0.38279468484E+03  0.47349919522E+02  0.41722783761E+03  0.99959454522E+02 0.  0.
        254    2    1    2    0    0  0.12374728405E+03  0.38279468484E+03 -0.31508146093E+03  0.10354485014E+04  0.90057321250E+03 0.  0.
        -24    2    4    4    0    0  0.48038479756E+03  0.10294901279E+03 -0.28605794548E+03  0.57409170170E+03  0.79900443246E+02 0.  0.
         24    2    4    4    0    0 -0.35663751350E+03  0.27984567205E+03 -0.29023515448E+02  0.46135679975E+03  0.80646239979E+02 0.  0.
         11    1    3    3    0    0 -0.84078795364E+02 -0.25822987316E+03 -0.15826965954E+02  0.27203382892E+03  0.00000000000E+00 0. -1.
        -11    1    3    3    0    0 -0.39668488689E+02 -0.12456481168E+03  0.63176885476E+02  0.14519400870E+03  0.00000000000E+00 0.  1.
          4    1    6    6  502    0 -0.11536187658E+03  0.46226910745E+02 -0.15476182988E+02  0.12523897990E+03  0.00000000000E+00 0. -1.
          1    1    5    5  503    0  0.14763570999E+03  0.55432360336E+02 -0.58583906165E+02  0.16822937763E+03  0.00000000000E+00 0. -1.
         -2    1    5    5    0  503  0.33274908757E+03  0.47516652457E+02 -0.22747403931E+03  0.40586232407E+03  0.00000000000E+00 0.  1.
         -3    1    6    6    0  502 -0.24127563692E+03  0.23361876130E+03 -0.13547332460E+02  0.33611781985E+03  0.00000000000E+00 0.  1.
<mgrwt>
<rscale>  0 0.14277914E+04</rscale>
<asrwt>0</asrwt>
<pdfrwt beam="1">  1        2 0.13233907E+00 0.14277914E+04</pdfrwt>
<pdfrwt beam="2">  1       -2 0.91149600E-01 0.14277914E+04</pdfrwt>
<totfact> 0.31133890E+01</totfact>
</mgrwt>
</event>
<event>
12    1  0.1980523E-007  0.1993160E+04  0.7818608E-02  0.8609826E-01
          2   -1    0    0  501    0  0.00000000000E+00  0.00000000000E+00  0.24884284512E+04  0.24884284512E+04  0.00000000000E+00 0.  1.
         -2   -1    0    0    0  501 -0.00000000000E+00 -0.00000000000E+00 -0.39911583573E+03  0.39911583573E+03  0.00000000000E+00 0. -1.
         23    2    1    2    0    0  0.33728636196E+03 -0.70794802625E+03  0.70755871188E+03  0.10604182771E+04  0.94313805199E+02 0.  0.
        254    2    1    2    0    0 -0.33728636196E+03  0.70794802625E+03  0.13817539036E+04  0.18271260098E+04  0.90232649736E+03 0.  0.
        -24    2    4    4    0    0 -0.23266852376E+03  0.79346831127E+03  0.14378709694E+04  0.16604097188E+04  0.75900637669E+02 0.  0.
         24    2    4    4    0    0 -0.10461783820E+03 -0.85520285016E+02 -0.56117065806E+02  0.16671629100E+03  0.79916114708E+02 0.  0.
         13    1    3    3    0    0  0.74690995606E+02 -0.13561486644E+03  0.19158889110E+03  0.24632588175E+03  0.00000000000E+00 0. -1.
        -13    1    3    3    0    0  0.26259536635E+03 -0.57233315981E+03  0.51596982078E+03  0.81409239537E+03  0.00000000000E+00 0.  1.
          4    1    6    6  502    0 -0.10007742741E+03 -0.62402697421E+02 -0.72114272861E+02  0.13823912787E+03  0.00000000000E+00 0. -1.
          1    1    5    5  503    0 -0.23291722679E+03  0.76761673120E+03  0.13671768626E+04  0.15851367305E+04  0.00000000000E+00 0. -1.
         -2    1    5    5    0  503  0.24870302683E+00  0.25851580070E+02  0.70694106783E+02  0.75272988377E+02  0.00000000000E+00 0.  1.
         -3    1    6    6    0  502 -0.45404107854E+01 -0.23117587595E+02  0.15997207055E+02  0.28477163129E+02  0.00000000000E+00 0.  1.
<mgrwt>
<rscale>  0 0.19931595E+04</rscale>
<asrwt>0</asrwt>
<pdfrwt beam="1">  1        2 0.38283514E+00 0.19931595E+04</pdfrwt>
<pdfrwt beam="2">  1       -2 0.61402438E-01 0.19931595E+04</pdfrwt>
<totfact> 0.81085195E+00</totfact>
</mgrwt>
</event>
<event>
12    1  0.1980523E-007  0.2431766E+04  0.7818608E-02  0.8427706E-01
         -2   -1    0    0    0  501 -0.00000000000E+00  0.00000000000E+00  0.15018676357E+04  0.15018676357E+04  0.00000000000E+00 0. -1.
          2   -1    0    0  501    0  0.00000000000E+00 -0.00000000000E+00 -0.98435531237E+03  0.98435531237E+03  0.00000000000E+00 0.  1.
         23    2    1    2    0    0 -0.97217920915E+03  0.28672889109E+03  0.49181953212E+03  0.11304948848E+04  0.93735589301E+02 0.  0.
        254    2    1    2    0    0  0.97217920915E+03 -0.28672889109E+03  0.25692791179E+02  0.13557280632E+04  0.89999588346E+03 0.  0.
        -24    2    4    4    0    0  0.27951345933E+03 -0.33715273359E+03 -0.34604920383E+03  0.56365775759E+03  0.78487429035E+02 0.  0.
         24    2    4    4    0    0  0.69266574982E+03  0.50423842497E+02  0.37174199501E+03  0.79207030564E+03  0.82794041815E+02 0.  0.
         11    1    3    3    0    0 -0.32477598157E+03  0.50121952467E+02  0.15876267692E+03  0.36496196501E+03  0.00000000000E+00 0. -1.
        -11    1    3    3    0    0 -0.64740322758E+03  0.23660693862E+03  0.33305685520E+03  0.76553291979E+03  0.00000000000E+00 0.  1.
          4    1    6    6  502    0  0.15975526946E+03 -0.58000292684E+01  0.52226930114E+02  0.16817561859E+03  0.00000000000E+00 0. -1.
          3    1    5    5  503    0  0.17461728085E+01 -0.10039021381E+02  0.28554294480E+01  0.10582275138E+02  0.00000000000E+00 0. -1.
         -4    1    5    5    0  503  0.27776728652E+03 -0.32711371220E+03 -0.34890463328E+03  0.55307548245E+03  0.00000000000E+00 0.  1.
         -3    1    6    6    0  502  0.53291048036E+03  0.56223871765E+02  0.31951506489E+03  0.62389468705E+03  0.00000000000E+00 0.  1.
<mgrwt>
<rscale>  0 0.24317659E+04</rscale>
<asrwt>0</asrwt>
<pdfrwt beam="1">  1        2 0.15143928E+00 0.24317659E+04</pdfrwt>
<pdfrwt beam="2">  1       -2 0.23105656E+00 0.24317659E+04</pdfrwt>
<totfact> 0.19467694E+00</totfact>
</mgrwt>
</event>
<event>
12    1  0.1980523E-007  0.2069976E+04  0.7818608E-02  0.8574586E-01
         -1   -1    0    0    0  501 -0.00000000000E+00  0.00000000000E+00  0.72341308942E+03  0.72341308942E+03  0.00000000000E+00 0.  1.
          1   -1    0    0  501    0  0.00000000000E+00 -0.00000000000E+00 -0.14807580049E+04  0.14807580049E+04  0.00000000000E+00 0. -1.
         23    2    1    2    0    0 -0.76732125834E+03  0.47592050998E+02  0.43229635589E+02  0.77533311635E+03  0.90695772180E+02 0.  0.
        254    2    1    2    0    0  0.76732125834E+03 -0.47592050998E+02 -0.80057455105E+03  0.14288379780E+04  0.89978410669E+03 0.  0.
        -24    2    4    4    0    0  0.34338086330E+03  0.11092286721E+02 -0.91361787773E+03  0.97897529359E+03  0.75243224510E+02 0.  0.
         24    2    4    4    0    0  0.42394039504E+03 -0.58684337719E+02  0.11304332669E+03  0.44986268437E+03  0.80176873468E+02 0.  0.
         13    1    3    3    0    0 -0.53465916378E+03  0.36125754929E+02 -0.11675888837E+02  0.53600542718E+03  0.00000000000E+00 0. -1.
        -13    1    3    3    0    0 -0.23266209456E+03  0.11466296070E+02  0.54905524426E+02  0.23932768917E+03  0.00000000000E+00 0.  1.
          4    1    6    6  502    0  0.30865903282E+03 -0.78430260753E+02  0.82516586408E+02  0.32898433302E+03  0.00000000000E+00 0. -1.
          1    1    5    5  503    0  0.18855127722E+03  0.37750751677E+02 -0.55784101066E+03  0.59005363872E+03  0.00000000000E+00 0. -1.
         -2    1    5    5    0  503  0.15482958608E+03 -0.26658464956E+02 -0.35577686707E+03  0.38892165487E+03  0.00000000000E+00 0.  1.
         -3    1    6    6    0  502  0.11528136223E+03  0.19745923033E+02  0.30526740277E+02  0.12087835135E+03  0.00000000000E+00 0.  1.
<mgrwt>
<rscale>  0 0.20699756E+04</rscale>
<asrwt>0</asrwt>
<pdfrwt beam="1">  1        1 0.22780892E+00 0.20699756E+04</pdfrwt>
<pdfrwt beam="2">  1       -1 0.11129432E+00 0.20699756E+04</pdfrwt>
<totfact> 0.46172996E+00</totfact>
</mgrwt>
</event>
<event>
12    1  0.1980523E-007  0.4208409E+04  0.7818608E-02  0.7963775E-01
         -2   -1    0    0    0  501 -0.00000000000E+00  0.00000000000E+00  0.18268318260E+04  0.18268318260E+04  0.00000000000E+00 0.  1.
          2   -1    0    0  501    0  0.00000000000E+00 -0.00000000000E+00 -0.24236910967E+04  0.24236910967E+04  0.00000000000E+00 0. -1.
         23    2    1    2    0    0  0.10340127219E+04 -0.14073765598E+04 -0.12837037880E+04  0.21693722570E+04  0.91594125608E+02 0.  0.
        254    2    1    2    0    0 -0.10340127219E+04  0.14073765598E+04  0.68684451726E+03  0.20811506657E+04  0.89974530414E+03 0.  0.
        -24    2    4    4    0    0 -0.92338681613E+03  0.57340843635E+03  0.56492671478E+03  0.12275136712E+04  0.78785613248E+02 0.  0.
         24    2    4    4    0    0 -0.11062590574E+03  0.83396812350E+03  0.12191780248E+03  0.85363699450E+03  0.78046433602E+02 0.  0.
         13    1    3    3    0    0  0.51390642493E+03 -0.77356895699E+03 -0.69769098940E+03  0.11615857530E+04  0.00000000000E+00 0.  1.
        -13    1    3    3    0    0  0.52010629694E+03 -0.63380760285E+03 -0.58601279863E+03  0.10077865040E+04  0.00000000000E+00 0. -1.
          2    1    6    6  502    0 -0.61932036818E+02  0.24345706929E+03  0.56817295412E+02  0.25755606541E+03  0.00000000000E+00 0. -1.
          3    1    5    5  503    0 -0.14992860899E+03  0.61236371334E+02  0.91920144928E+02  0.18621974657E+03  0.00000000000E+00 0. -1.
         -4    1    5    5    0  503 -0.77345820714E+03  0.51217206502E+03  0.47300656985E+03  0.10412939246E+04  0.00000000000E+00 0.  1.
         -1    1    6    6    0  502 -0.48693868922E+02  0.59051105421E+03  0.65100507068E+02  0.59608092909E+03  0.00000000000E+00 0.  1.
<mgrwt>
<rscale>  0 0.42084087E+04</rscale>
<asrwt>0</asrwt>
<pdfrwt beam="1">  1        2 0.37287555E+00 0.42084087E+04</pdfrwt>
<pdfrwt beam="2">  1       -2 0.28105105E+00 0.42084087E+04</pdfrwt>
<totfact> 0.12402756E-01</totfact>
</mgrwt>
</event>
<event>
12    1  0.1980523E-007  0.1579824E+04  0.7818608E-02  0.8833040E-01
         -2   -1    0    0    0  501 -0.00000000000E+00  0.00000000000E+00  0.79217951369E+03  0.79217951369E+03  0.00000000000E+00 0. -1.
          2   -1    0    0  501    0  0.00000000000E+00 -0.00000000000E+00 -0.78765101348E+03  0.78765101348E+03  0.00000000000E+00 0.  1.
         23    2    1    2    0    0  0.37293743725E+03  0.12001321811E+03 -0.35624576533E+03  0.53657269140E+03  0.86681619840E+02 0.  0.
        254    2    1    2    0    0 -0.37293743725E+03 -0.12001321811E+03  0.36077426554E+03  0.10432578358E+04  0.89707487792E+03 0.  0.
        -24    2    4    4    0    0 -0.38035868806E+03  0.28504761679E+03 -0.16691306729E+02  0.48388177751E+03  0.89096012639E+02 0.  0.
         24    2    4    4    0    0  0.74212508073E+01 -0.40506083490E+03  0.37746557227E+03  0.55937605825E+03  0.79321884525E+02 0.  0.
         13    1    3    3    0    0  0.29937931064E+03  0.12085767085E+03 -0.31997799971E+03  0.45455524256E+03  0.00000000000E+00 0.  1.
        -13    1    3    3    0    0  0.73558126612E+02 -0.84445274527E+00 -0.36267765624E+02  0.82017448841E+02  0.00000000000E+00 0. -1.
          4    1    6    6  502    0  0.36429860593E+02 -0.32345930766E+03  0.28436834781E+03  0.43222495959E+03  0.00000000000E+00 0. -1.
          3    1    5    5  503    0 -0.28984982464E+03  0.17140069529E+03  0.62702630241E+01  0.33679435178E+03  0.00000000000E+00 0. -1.
         -4    1    5    5    0  503 -0.90508863418E+02  0.11364692151E+03 -0.22961569753E+02  0.14708742574E+03  0.00000000000E+00 0.  1.
         -3    1    6    6    0  502 -0.29008609785E+02 -0.81601527240E+02  0.93097224464E+02  0.12715109867E+03  0.00000000000E+00 0.  1.
<mgrwt>
<rscale>  0 0.15798240E+04</rscale>
<asrwt>0</asrwt>
<pdfrwt beam="1">  1        2 0.12117708E+00 0.15798240E+04</pdfrwt>
<pdfrwt beam="2">  1       -2 0.12187377E+00 0.15798240E+04</pdfrwt>
<totfact> 0.17252719E+01</totfact>
</mgrwt>
</event>
<event>
12    1  0.1980523E-007  0.2643215E+04  0.7818608E-02  0.8353668E-01
         -1   -1    0    0    0  501 -0.00000000000E+00  0.00000000000E+00  0.14063620397E+04  0.14063620397E+04  0.00000000000E+00 0. -1.
          1   -1    0    0  501    0  0.00000000000E+00 -0.00000000000E+00 -0.12419607397E+04  0.12419607397E+04  0.00000000000E+00 0.  1.
         23    2    1    2    0    0  0.42893192135E+03 -0.36340702385E+03  0.10966331362E+04  0.12356500001E+04  0.90440197103E+02 0.  0.
        254    2    1    2    0    0 -0.42893192135E+03  0.36340702385E+03 -0.93223183620E+03  0.14126727793E+04  0.90030046481E+03 0.  0.
        -24    2    4    4    0    0 -0.97161678336E+02 -0.39940912786E+02  0.15528055213E+03  0.20357828626E+03  0.79349861479E+02 0.  0.
         24    2    4    4    0    0 -0.33177024301E+03  0.40334793663E+03 -0.10875123883E+04  0.12090944931E+04  0.80406755316E+02 0.  0.
         11    1    3    3    0    0  0.34013810601E+03 -0.33172580026E+03  0.91160737082E+03  0.10279902413E+04  0.00000000000E+00 0.  1.
        -11    1    3    3    0    0  0.88793815336E+02 -0.31681223590E+02  0.18502576538E+03  0.20765975880E+03  0.00000000000E+00 0. -1.
          2    1    6    6  502    0 -0.26588740306E+03  0.30078508998E+03 -0.89950626788E+03  0.98502756683E+03  0.00000000000E+00 0. -1.
          3    1    5    5  503    0 -0.90010554294E+02 -0.19881989529E+00  0.93615723117E+02  0.12986856058E+03  0.00000000000E+00 0. -1.
         -4    1    5    5    0  503 -0.71511240418E+01 -0.39742092891E+02  0.61664829009E+02  0.73709725675E+02  0.00000000000E+00 0.  1.
         -1    1    6    6    0  502 -0.65882839951E+02  0.10256284666E+03 -0.18800612044E+03  0.22406692625E+03  0.00000000000E+00 0.  1.
<mgrwt>
<rscale>  0 0.26432150E+04</rscale>
<asrwt>0</asrwt>
<pdfrwt beam="1">  1        1 0.19107088E+00 0.26432150E+04</pdfrwt>
<pdfrwt beam="2">  1       -1 0.21636339E+00 0.26432150E+04</pdfrwt>
<totfact> 0.10174090E+00</totfact>
</mgrwt>
</event>
<event>
12    1  0.1980523E-007  0.1310063E+04  0.7818608E-02  0.9021623E-01
         -1   -1    0    0    0  501 -0.00000000000E+00  0.00000000000E+00  0.10915439743E+04  0.10915439743E+04  0.00000000000E+00 0.  1.
          1   -1    0    0  501    0  0.00000000000E+00 -0.00000000000E+00 -0.39308196750E+03  0.39308196750E+03  0.00000000000E+00 0. -1.
         23    2    1    2    0    0  0.32901721041E+03  0.16063337421E+02  0.26673063054E+03  0.43360058784E+03  0.91399589500E+02 0.  0.
        254    2    1    2    0    0 -0.32901721041E+03 -0.16063337421E+02  0.43173137624E+03  0.10510253539E+04  0.89986218824E+03 0.  0.
        -24    2    4    4    0    0 -0.38752524385E+02 -0.30490163597E+03  0.53406899432E+03  0.62152952609E+03  0.81255740371E+02 0.  0.
         24    2    4    4    0    0 -0.29026468602E+03  0.28883829855E+03 -0.10233761807E+03  0.42949582784E+03  0.79451415337E+02 0.  0.
         13    1    3    3    0    0  0.69239079455E+02 -0.25961100123E+02  0.30572397119E+02  0.80016875151E+02  0.00000000000E+00 0. -1.
        -13    1    3    3    0    0  0.25977813095E+03  0.42024437545E+02  0.23615823342E+03  0.35358371269E+03  0.00000000000E+00 0.  1.
          4    1    6    6  502    0 -0.16405504362E+03  0.12476062089E+03 -0.21327683610E+02  0.20720555000E+03  0.00000000000E+00 0. -1.
          1    1    5    5  503    0  0.14832397325E+02 -0.18456957880E+03  0.33636439038E+03  0.38396214988E+03  0.00000000000E+00 0. -1.
         -2    1    5    5    0  503 -0.53584921710E+02 -0.12033205717E+03  0.19770460394E+03  0.23756737620E+03  0.00000000000E+00 0.  1.
         -3    1    6    6    0  502 -0.12620964240E+03  0.16407767766E+03 -0.81009934465E+02  0.22229027784E+03  0.00000000000E+00 0.  1.
<mgrwt>
<rscale>  0 0.13100630E+04</rscale>
<asrwt>0</asrwt>
<pdfrwt beam="1">  1        1 0.60474149E-01 0.13100630E+04</pdfrwt>
<pdfrwt beam="2">  1       -1 0.16792984E+00 0.13100630E+04</pdfrwt>
<totfact> 0.15365679E+01</totfact>
</mgrwt>
</event>
<event>
12    1  0.1980523E-007  0.2590782E+04  0.7818608E-02  0.8371339E-01
         -2   -1    0    0    0  501 -0.00000000000E+00  0.00000000000E+00  0.18554246341E+04  0.18554246341E+04  0.00000000000E+00 0.  1.
          2   -1    0    0  501    0  0.00000000000E+00 -0.00000000000E+00 -0.90439536067E+03  0.90439536067E+03  0.00000000000E+00 0. -1.
         23    2    1    2    0    0 -0.74988841449E+03 -0.56614414747E+03 -0.26375095343E+03  0.98062588355E+03  0.95972538495E+02 0.  0.
        254    2    1    2    0    0  0.74988841449E+03  0.56614414747E+03  0.12147802268E+04  0.17791941112E+04  0.89832558459E+03 0.  0.
        -24    2    4    4    0    0  0.89425110137E+03  0.28525659163E+03  0.71459088471E+03  0.11824484887E+04  0.80547753883E+02 0.  0.
         24    2    4    4    0    0 -0.14436268688E+03  0.28088755584E+03  0.50018934214E+03  0.59674562246E+03  0.78597427146E+02 0.  0.
         11    1    3    3    0    0 -0.34837525924E+03 -0.20975754893E+03 -0.13578755347E+03  0.42872113344E+03  0.00000000000E+00 0. -1.
        -11    1    3    3    0    0 -0.40151315525E+03 -0.35638659854E+03 -0.12796339996E+03  0.55190475010E+03  0.00000000000E+00 0.  1.
          2    1    6    6  502    0 -0.12892409977E+03  0.26934588136E+03  0.42695836977E+03  0.52102022688E+03  0.00000000000E+00 0. -1.
          1    1    5    5  503    0  0.76331843395E+03  0.27154700745E+03  0.62431527033E+03  0.10228207886E+04  0.00000000000E+00 0. -1.
         -2    1    5    5    0  503  0.13093266742E+03  0.13709584183E+02  0.90275614373E+02  0.15962770013E+03  0.00000000000E+00 0.  1.
         -1    1    6    6    0  502 -0.15438587111E+02  0.11541674480E+02  0.73230972368E+02  0.75725395579E+02  0.00000000000E+00 0.  1.
<mgrwt>
<rscale>  0 0.25907817E+04</rscale>
<asrwt>0</asrwt>
<pdfrwt beam="1">  1        2 0.13913775E+00 0.25907817E+04</pdfrwt>
<pdfrwt beam="2">  1       -2 0.28544994E+00 0.25907817E+04</pdfrwt>
<totfact> 0.10056221E+00</totfact>
</mgrwt>
</event>
<event>
12    1  0.1980523E-007  0.2295757E+04  0.7818608E-02  0.8479596E-01
          2   -1    0    0  501    0  0.00000000000E+00  0.00000000000E+00  0.30843529086E+04  0.30843529086E+04  0.00000000000E+00 0. -1.
         -2   -1    0    0    0  501 -0.00000000000E+00 -0.00000000000E+00 -0.42719663249E+03  0.42719663249E+03  0.00000000000E+00 0.  1.
         23    2    1    2    0    0 -0.34886494288E+03  0.82490228572E+03  0.56125560456E+03  0.10608360690E+04  0.90525036447E+02 0.  0.
        254    2    1    2    0    0  0.34886494288E+03 -0.82490228572E+03  0.20959006716E+04  0.24507134721E+04  0.90057002397E+03 0.  0.
        -24    2    4    4    0    0  0.29647956836E+03 -0.11205040682E+03  0.12026835863E+03  0.34819082325E+03  0.79479199715E+02 0.  0.
         24    2    4    4    0    0  0.52385374522E+02 -0.71285187890E+03  0.19756323130E+04  0.21025226489E+04  0.81095156620E+02 0.  0.
         13    1    3    3    0    0 -0.10182440222E+03  0.14818941173E+03  0.11376648511E+03  0.21277011955E+03  0.00000000000E+00 0. -1.
        -13    1    3    3    0    0 -0.24704054066E+03  0.67671287398E+03  0.44748911945E+03  0.84806594942E+03  0.00000000000E+00 0.  1.
          4    1    6    6  502    0  0.40288885162E+01 -0.53216556472E+03  0.14794512800E+04  0.15722571386E+04  0.00000000000E+00 0. -1.
          1    1    5    5  503    0  0.19538362786E+03 -0.50146457342E+02  0.10855267954E+03  0.22907010598E+03  0.00000000000E+00 0. -1.
         -2    1    5    5    0  503  0.10109594050E+03 -0.61903949476E+02  0.11715679087E+02  0.11912071727E+03  0.00000000000E+00 0.  1.
         -3    1    6    6    0  502  0.48356486005E+02 -0.18068631418E+03  0.49618103299E+03  0.53026551025E+03  0.00000000000E+00 0.  1.
<mgrwt>
<rscale>  0 0.22957571E+04</rscale>
<asrwt>0</asrwt>
<pdfrwt beam="1">  1        2 0.47451582E+00 0.22957571E+04</pdfrwt>
<pdfrwt beam="2">  1       -2 0.65722561E-01 0.22957571E+04</pdfrwt>
<totfact> 0.29803058E+00</totfact>
</mgrwt>
</event>
<event>
12    1  0.2164904E-007  0.2393865E+04  0.7818608E-02  0.8441804E-01
         -1   -1    0    0    0  501 -0.00000000000E+00  0.00000000000E+00  0.71615262051E+03  0.71615262051E+03  0.00000000000E+00 0.  1.
          1   -1    0    0  501    0  0.00000000000E+00 -0.00000000000E+00 -0.20004773883E+04  0.20004773883E+04  0.00000000000E+00 0. -1.
         23    2    1    2    0    0  0.66766599862E+03  0.64658910811E+03 -0.59334145177E+02  0.93517880262E+03  0.84755481452E+02 0.  0.
        254    2    1    2    0    0 -0.66766599862E+03 -0.64658910811E+03 -0.12249906226E+04  0.17814512062E+04  0.89950598338E+03 0.  0.
        -24    2    4    4    0    0 -0.16454166127E+03  0.80858215539E+02  0.70049548507E+02  0.21120951072E+03  0.78041712300E+02 0.  0.
         24    2    4    4    0    0 -0.50312433735E+03 -0.72744732365E+03 -0.12950401711E+04  0.15702416955E+04  0.78843071263E+02 0.  0.
         13    1    3    3    0    0  0.34976886848E+03  0.39280355121E+03 -0.49528699823E+02  0.52828589164E+03  0.00000000000E+00 0. -1.
        -13    1    3    3    0    0  0.31789713013E+03  0.25378555690E+03 -0.98054453537E+01  0.40689291097E+03  0.00000000000E+00 0.  1.
          2    1    6    6  502    0 -0.78975322156E+02 -0.15793381783E+03 -0.29311068906E+03  0.34219010559E+03  0.00000000000E+00 0. -1.
          3    1    5    5  503    0 -0.46242565878E+02 -0.47135736440E+00 -0.93141556132E+01  0.47173621564E+02  0.00000000000E+00 0. -1.
         -4    1    5    5    0  503 -0.11829909539E+03  0.81329572904E+02  0.79363704120E+02  0.16403588916E+03  0.00000000000E+00 0.  1.
         -1    1    6    6    0  502 -0.42414901519E+03 -0.56951350583E+03 -0.10019294820E+04  0.12280515899E+04  0.00000000000E+00 0.  1.
<mgrwt>
<rscale>  0 0.23938648E+04</rscale>
<asrwt>0</asrwt>
<pdfrwt beam="1">  1        1 0.30776575E+00 0.23938648E+04</pdfrwt>
<pdfrwt beam="2">  1       -1 0.11017733E+00 0.23938648E+04</pdfrwt>
<totfact> 0.20294363E+00</totfact>
</mgrwt>
</event>
<event>
12    1  0.1980523E-007  0.2241539E+04  0.7818608E-02  0.8501335E-01
          2   -1    0    0  501    0  0.00000000000E+00  0.00000000000E+00  0.35006337748E+04  0.35006337748E+04  0.00000000000E+00 0. -1.
         -2   -1    0    0    0  501 -0.00000000000E+00 -0.00000000000E+00 -0.35882759007E+03  0.35882759007E+03  0.00000000000E+00 0.  1.
         23    2    1    2    0    0 -0.37637818739E+02 -0.76935133981E+03  0.40416465498E+03  0.87628309730E+03  0.10585324192E+03 0.  0.
        254    2    1    2    0    0  0.37637818739E+02  0.76935133981E+03  0.27376415297E+04  0.29831782676E+04  0.90075154246E+03 0.  0.
        -24    2    4    4    0    0  0.30145513511E+03  0.75764049013E+03  0.24536261693E+04  0.25867990910E+04  0.79711025727E+02 0.  0.
         24    2    4    4    0    0 -0.26381731637E+03  0.11710849678E+02  0.28401536045E+03  0.39637917660E+03  0.81945141720E+02 0.  0.
         13    1    3    3    0    0  0.52964178901E+01 -0.57040218140E+03  0.33390338610E+03  0.66096760272E+03  0.00000000000E+00 0. -1.
        -13    1    3    3    0    0 -0.42934236629E+02 -0.19894915840E+03  0.70261268874E+02  0.21531549459E+03  0.00000000000E+00 0.  1.
          2    1    6    6  502    0 -0.27418003571E+02  0.12508080414E+02  0.74998347146E+02  0.80826673011E+02  0.00000000000E+00 0. -1.
          3    1    5    5  503    0  0.21440650637E+01  0.16455754190E+02  0.24964111230E+02  0.29976586038E+02  0.00000000000E+00 0. -1.
         -4    1    5    5    0  503  0.29931107005E+03  0.74118473594E+03  0.24286620580E+04  0.25568225049E+04  0.00000000000E+00 0.  1.
         -1    1    6    6    0  502 -0.23639931280E+03 -0.79723073616E+00  0.20901701331E+03  0.31555250359E+03  0.00000000000E+00 0.  1.
<mgrwt>
<rscale>  0 0.22415387E+04</rscale>
<asrwt>0</asrwt>
<pdfrwt beam="1">  1        2 0.53855902E+00 0.22415387E+04</pdfrwt>
<pdfrwt beam="2">  1       -2 0.55204247E-01 0.22415387E+04</pdfrwt>
<totfact> 0.22895935E+00</totfact>
</mgrwt>
</event>
<event>
12    1  0.1980523E-007  0.1568743E+04  0.7818608E-02  0.8839984E-01
          2   -1    0    0  501    0  0.00000000000E+00  0.00000000000E+00  0.11915367284E+04  0.11915367284E+04  0.00000000000E+00 0. -1.
         -2   -1    0    0    0  501 -0.00000000000E+00 -0.00000000000E+00 -0.51634070736E+03  0.51634070736E+03  0.00000000000E+00 0.  1.
         23    2    1    2    0    0 -0.23707085475E+03  0.45996116266E+03  0.16602783761E+03  0.55097990414E+03  0.90811621393E+02 0.  0.
        254    2    1    2    0    0  0.23707085475E+03 -0.45996116266E+03  0.50916818338E+03  0.11568975316E+04  0.90077344448E+03 0.  0.
        -24    2    4    4    0    0 -0.11345656718E+03  0.16265133555E+03  0.36671650470E+03  0.42422644861E+03  0.78480795686E+02 0.  0.
         24    2    4    4    0    0  0.35052742193E+03 -0.62261249820E+03  0.14245167869E+03  0.73267108297E+03  0.77450878729E+02 0.  0.
         11    1    3    3    0    0 -0.21830127260E+03  0.42626000216E+03  0.17748553431E+03  0.51073882754E+03  0.00000000000E+00 0. -1.
        -11    1    3    3    0    0 -0.18769582150E+02  0.33701160492E+02 -0.11457696698E+02  0.40241076604E+02  0.00000000000E+00 0.  1.
          4    1    6    6  502    0  0.16409363252E+03 -0.22058652675E+03  0.39881672719E+02  0.27780511844E+03  0.00000000000E+00 0. -1.
          3    1    5    5  503    0 -0.10224165861E+03  0.10187108288E+03  0.30211856577E+03  0.33482338937E+03  0.00000000000E+00 0. -1.
         -4    1    5    5    0  503 -0.11214908566E+02  0.60780252669E+02  0.64597938922E+02  0.89403059241E+02  0.00000000000E+00 0.  1.
         -3    1    6    6    0  502  0.18643378942E+03 -0.40202597146E+03  0.10257000597E+03  0.45486596453E+03  0.00000000000E+00 0.  1.
<mgrwt>
<rscale>  0 0.15687433E+04</rscale>
<asrwt>0</asrwt>
<pdfrwt beam="1">  1        2 0.18331334E+00 0.15687433E+04</pdfrwt>
<pdfrwt beam="2">  1       -2 0.79437032E-01 0.15687433E+04</pdfrwt>
<totfact> 0.25873181E+01</totfact>
</mgrwt>
</event>
<event>
12    1  0.1980523E-007  0.2135764E+04  0.7818608E-02  0.8545651E-01
          2   -1    0    0  501    0  0.00000000000E+00  0.00000000000E+00  0.10657625842E+04  0.10657625842E+04  0.00000000000E+00 0. -1.
         -2   -1    0    0    0  501 -0.00000000000E+00 -0.00000000000E+00 -0.10700054943E+04  0.10700054943E+04  0.00000000000E+00 0.  1.
         23    2    1    2    0    0  0.32376328562E+03  0.77107454938E+03 -0.26274900106E+03  0.88070792757E+03  0.85034053798E+02 0.  0.
        254    2    1    2    0    0 -0.32376328562E+03 -0.77107454938E+03  0.25850609096E+03  0.12550601509E+04  0.89942868400E+03 0.  0.
        -24    2    4    4    0    0 -0.64803310810E+02  0.72031269304E+02 -0.21629869401E+03  0.25001069915E+03  0.79575447285E+02 0.  0.
         24    2    4    4    0    0 -0.25895997481E+03 -0.84310581868E+03  0.47480478497E+03  0.10050494518E+04  0.82444688604E+02 0.  0.
         13    1    3    3    0    0  0.30896864196E+03  0.68422424477E+03 -0.25219569522E+03  0.79197670896E+03  0.00000000000E+00 0.  1.
        -13    1    3    3    0    0  0.14794643662E+02  0.86850304609E+02 -0.10553305845E+02  0.88731218610E+02  0.00000000000E+00 0. -1.
          4    1    6    6  502    0 -0.19065773098E+03 -0.72097593570E+03  0.39337676116E+03  0.84315001421E+03  0.00000000000E+00 0. -1.
          3    1    5    5  503    0 -0.33988976577E+02 -0.11820067050E+02 -0.65673633125E+02  0.74886518157E+02  0.00000000000E+00 0. -1.
         -2    1    5    5    0  503 -0.30814334233E+02  0.83851336354E+02 -0.15062506088E+03  0.17512418099E+03  0.00000000000E+00 0.  1.
         -3    1    6    6    0  502 -0.68302243834E+02 -0.12212988298E+03  0.81428023810E+02  0.16189943759E+03  0.00000000000E+00 0.  1.
<mgrwt>
<rscale>  0 0.21357639E+04</rscale>
<asrwt>0</asrwt>
<pdfrwt beam="1">  1        2 0.16396348E+00 0.21357639E+04</pdfrwt>
<pdfrwt beam="2">  1       -2 0.16461623E+00 0.21357639E+04</pdfrwt>
<totfact> 0.48984399E+00</totfact>
</mgrwt>
</event>
<event>
12    1  0.1980523E-007  0.4009165E+04  0.7818608E-02  0.8002700E-01
         -2   -1    0    0    0  501 -0.00000000000E+00  0.00000000000E+00  0.98928215114E+03  0.98928215114E+03  0.00000000000E+00 0. -1.
          2   -1    0    0  501    0  0.00000000000E+00 -0.00000000000E+00 -0.40618864304E+04  0.40618864304E+04  0.00000000000E+00 0.  1.
         23    2    1    2    0    0 -0.14588814758E+04  0.10509185648E+04 -0.22426570496E+04  0.28758537355E+04  0.90879456056E+02 0.  0.
        254    2    1    2    0    0  0.14588814758E+04 -0.10509185648E+04 -0.82994722968E+03  0.21753148461E+04  0.90023179520E+03 0.  0.
        -24    2    4    4    0    0  0.73744706651E+03 -0.84741392000E+03 -0.86630556329E+03  0.14207755144E+04  0.78607923735E+02 0.  0.
         24    2    4    4    0    0  0.72143440930E+03 -0.20350464482E+03  0.36358333611E+02  0.75453933164E+03  0.78268302540E+02 0.  0.
         13    1    3    3    0    0 -0.98404929203E+03  0.73347642407E+03 -0.14700284373E+04  0.19150259215E+04  0.00000000000E+00 0.  1.
        -13    1    3    3    0    0 -0.47483218377E+03  0.31744214074E+03 -0.77262861235E+03  0.96082781397E+03  0.00000000000E+00 0. -1.
          4    1    6    6  502    0  0.25024236672E+03 -0.55461269975E+02  0.46676275808E+02  0.26052997772E+03  0.00000000000E+00 0. -1.
          1    1    5    5  503    0  0.32934878876E+03 -0.36176199609E+03 -0.33026634170E+03  0.59026961884E+03  0.00000000000E+00 0. -1.
         -2    1    5    5    0  503  0.40809827775E+03 -0.48565192391E+03 -0.53603922159E+03  0.83050589557E+03  0.00000000000E+00 0.  1.
         -3    1    6    6    0  502  0.47119204258E+03 -0.14804337484E+03 -0.10317942197E+02  0.49400935391E+03  0.00000000000E+00 0.  1.
<mgrwt>
<rscale>  0 0.40091654E+04</rscale>
<asrwt>0</asrwt>
<pdfrwt beam="1">  1        2 0.62490561E+00 0.40091654E+04</pdfrwt>
<pdfrwt beam="2">  1       -2 0.15219725E+00 0.40091654E+04</pdfrwt>
<totfact> 0.68902688E-02</totfact>
</mgrwt>
</event>
<event>
12    1  0.1980523E-007  0.3504090E+04  0.7818608E-02  0.8112821E-01
          2   -1    0    0  501    0  0.00000000000E+00  0.00000000000E+00  0.16933189840E+04  0.16933189840E+04  0.00000000000E+00 0. -1.
         -2   -1    0    0    0  501 -0.00000000000E+00 -0.00000000000E+00 -0.18128080000E+04  0.18128080000E+04  0.00000000000E+00 0.  1.
         23    2    1    2    0    0 -0.94501645016E+03  0.11678372490E+04 -0.70242967590E+03  0.16609192846E+04  0.91353649747E+02 0.  0.
        254    2    1    2    0    0  0.94501645016E+03 -0.11678372490E+04  0.58294065992E+03  0.18452076994E+04  0.89892808926E+03 0.  0.
        -24    2    4    4    0    0 -0.82309247289E+02 -0.17453942034E+03  0.33195788110E+03  0.39222892714E+03  0.80054200521E+02 0.  0.
         24    2    4    4    0    0  0.10273256975E+04 -0.99329782864E+03  0.25098277882E+03  0.14529787722E+04  0.78206727746E+02 0.  0.
         13    1    3    3    0    0 -0.43757083798E+03  0.55542618736E+03 -0.28138196098E+03  0.76101399187E+03  0.00000000000E+00 0.  1.
        -13    1    3    3    0    0 -0.50744561218E+03  0.61241106161E+03 -0.42104771492E+03  0.89990529276E+03  0.00000000000E+00 0. -1.
          2    1    6    6  502    0  0.82016444810E+03 -0.75816403034E+03  0.21669098749E+03  0.11377334498E+04  0.00000000000E+00 0. -1.
          1    1    5    5  503    0 -0.81108816877E+02 -0.13853722155E+03  0.20567483426E+03  0.26090868015E+03  0.00000000000E+00 0. -1.
         -2    1    5    5    0  503 -0.12004304120E+01 -0.36002198787E+02  0.12628304684E+03  0.13132024699E+03  0.00000000000E+00 0.  1.
         -1    1    6    6    0  502  0.20716124935E+03 -0.23513379829E+03  0.34291791326E+02  0.31524532238E+03  0.00000000000E+00 0.  1.
<mgrwt>
<rscale>  0 0.35040903E+04</rscale>
<asrwt>0</asrwt>
<pdfrwt beam="1">  1        2 0.26051061E+00 0.35040903E+04</pdfrwt>
<pdfrwt beam="2">  1       -2 0.27889354E+00 0.35040903E+04</pdfrwt>
<totfact> 0.34752268E-01</totfact>
</mgrwt>
</event>
<event>
12    1  0.1980523E-007  0.1721304E+04  0.7818608E-02  0.8749307E-01
         -2   -1    0    0    0  501 -0.00000000000E+00  0.00000000000E+00  0.60920193668E+03  0.60920193668E+03  0.00000000000E+00 0. -1.
          2   -1    0    0  501    0  0.00000000000E+00 -0.00000000000E+00 -0.12158884577E+04  0.12158884577E+04  0.00000000000E+00 0.  1.
         23    2    1    2    0    0 -0.45956790394E+03 -0.14023568646E+03 -0.63997427923E+03  0.80522815440E+03  0.89199756040E+02 0.  0.
        254    2    1    2    0    0  0.45956790394E+03  0.14023568646E+03  0.33287758202E+02  0.10198622400E+04  0.89896730064E+03 0.  0.
        -24    2    4    4    0    0  0.14148639595E+03  0.39810199219E+03  0.29975978006E+03  0.52411306554E+03  0.79592608414E+02 0.  0.
         24    2    4    4    0    0  0.31808150800E+03 -0.25786630572E+03 -0.26647202185E+03  0.49574917445E+03  0.84196366778E+02 0.  0.
         13    1    3    3    0    0 -0.18296909809E+03 -0.10147752823E+03 -0.26358560070E+03  0.33653045700E+03  0.00000000000E+00 0.  1.
        -13    1    3    3    0    0 -0.27659880585E+03 -0.38758158238E+02 -0.37638867853E+03  0.46869769740E+03  0.00000000000E+00 0. -1.
          4    1    6    6  502    0  0.30789302069E+03 -0.23225715723E+03 -0.26540317079E+03  0.46816700262E+03  0.00000000000E+00 0. -1.
          3    1    5    5  503    0  0.13137444050E+03  0.37450276518E+03  0.25268025012E+03  0.47048791010E+03  0.00000000000E+00 0. -1.
         -4    1    5    5    0  503  0.10111955442E+02  0.23599227009E+02  0.47079529931E+02  0.53625155448E+02  0.00000000000E+00 0.  1.
         -3    1    6    6    0  502  0.10188487303E+02 -0.25609148495E+02 -0.10688510615E+01  0.27582171828E+02  0.00000000000E+00 0.  1.
<mgrwt>
<rscale>  0 0.17213037E+04</rscale>
<asrwt>0</asrwt>
<pdfrwt beam="1">  1        2 0.18705976E+00 0.17213037E+04</pdfrwt>
<pdfrwt beam="2">  1       -2 0.93723375E-01 0.17213037E+04</pdfrwt>
<totfact> 0.16936698E+01</totfact>
</mgrwt>
</event>
<event>
12    1  0.1980523E-007  0.1370591E+04  0.7818608E-02  0.8975386E-01
          1   -1    0    0  501    0  0.00000000000E+00  0.00000000000E+00  0.16005627945E+04  0.16005627945E+04  0.00000000000E+00 0. -1.
         -1   -1    0    0    0  501 -0.00000000000E+00 -0.00000000000E+00 -0.29341544257E+03  0.29341544257E+03  0.00000000000E+00 0.  1.
         23    2    1    2    0    0  0.16558344523E+03  0.34426290201E+03  0.40125545253E+03  0.56145667206E+03  0.91064995349E+02 0.  0.
        254    2    1    2    0    0 -0.16558344523E+03 -0.34426290201E+03  0.90589189944E+03  0.13325215651E+04  0.89946582194E+03 0.  0.
        -24    2    4    4    0    0 -0.13101883731E+03 -0.16103460048E+03  0.10565050023E+04  0.10798996488E+04  0.82959949467E+02 0.  0.
         24    2    4    4    0    0 -0.34564607917E+02 -0.18322830154E+03 -0.15061310289E+03  0.25262191627E+03  0.79788490472E+02 0.  0.
         13    1    3    3    0    0  0.51631113587E+02  0.21144385828E+03  0.21757697832E+03  0.30775642738E+03  0.00000000000E+00 0.  1.
        -13    1    3    3    0    0  0.11395233164E+03  0.13281904373E+03  0.18367847421E+03  0.25370024468E+03  0.00000000000E+00 0. -1.
          2    1    6    6  502    0  0.60238388797E+01  0.34645900926E+01 -0.20041031879E+02  0.21211623656E+02  0.00000000000E+00 0. -1.
          1    1    5    5  503    0  0.63095199651E+01  0.50276662324E+01  0.36702760383E+02  0.37578984681E+02  0.00000000000E+00 0. -1.
         -2    1    5    5    0  503 -0.13732835728E+03 -0.16606226671E+03  0.10198022420E+04  0.10423206641E+04  0.00000000000E+00 0.  1.
         -1    1    6    6    0  502 -0.40588446797E+02 -0.18669289163E+03 -0.13057207102E+03  0.23141029261E+03  0.00000000000E+00 0.  1.
<mgrwt>
<rscale>  0 0.13705909E+04</rscale>
<asrwt>0</asrwt>
<pdfrwt beam="1">  1        1 0.24624042E+00 0.13705909E+04</pdfrwt>
<pdfrwt beam="2">  1       -1 0.45140838E-01 0.13705909E+04</pdfrwt>
<totfact> 0.26528103E+01</totfact>
</mgrwt>
</event>
<event>
12    1  0.1980523E-007  0.2348560E+04  0.7818608E-02  0.8459017E-01
          2   -1    0    0  501    0  0.00000000000E+00  0.00000000000E+00  0.28460023784E+04  0.28460023784E+04  0.00000000000E+00 0. -1.
         -2   -1    0    0    0  501 -0.00000000000E+00 -0.00000000000E+00 -0.48451587812E+03  0.48451587812E+03  0.00000000000E+00 0.  1.
         23    2    1    2    0    0  0.42398116505E+03 -0.90690232101E+03  0.98895226793E+03  0.14102029159E+04  0.91726918223E+02 0.  0.
        254    2    1    2    0    0 -0.42398116505E+03  0.90690232101E+03  0.13725342323E+04  0.19203153406E+04  0.89528148665E+03 0.  0.
        -24    2    4    4    0    0 -0.68145602164E+03  0.52181201997E+03  0.10026789022E+04  0.13224322293E+04  0.82413145240E+02 0.  0.
         24    2    4    4    0    0  0.25747485659E+03  0.38509030104E+03  0.36985533013E+03  0.59788311134E+03  0.77996204206E+02 0.  0.
         13    1    3    3    0    0  0.56130012555E+02 -0.20852575816E+03  0.20804848279E+03  0.29986287086E+03  0.00000000000E+00 0. -1.
        -13    1    3    3    0    0  0.36785115249E+03 -0.69837656285E+03  0.78090378514E+03  0.11103400450E+04  0.00000000000E+00 0.  1.
          2    1    6    6  502    0  0.38293320206E+02  0.89951617454E+02  0.11297633754E+03  0.14940322855E+03  0.00000000000E+00 0. -1.
          3    1    5    5  503    0  0.23657891748E+01  0.33247920725E+01  0.46721218484E+01  0.62032187863E+01  0.00000000000E+00 0. -1.
         -4    1    5    5    0  503 -0.68382181081E+03  0.51848722790E+03  0.99800678033E+03  0.13162290105E+04  0.00000000000E+00 0.  1.
         -1    1    6    6    0  502  0.21918153638E+03  0.29513868359E+03  0.25687899258E+03  0.44847988279E+03  0.00000000000E+00 0.  1.
<mgrwt>
<rscale>  0 0.23485598E+04</rscale>
<asrwt>0</asrwt>
<pdfrwt beam="1">  1        2 0.43784651E+00 0.23485598E+04</pdfrwt>
<pdfrwt beam="2">  1       -2 0.74540906E-01 0.23485598E+04</pdfrwt>
<totfact> 0.31703572E+00</totfact>
</mgrwt>
</event>
<event>
12    1  0.1980523E-007  0.1462849E+04  0.7818608E-02  0.8909541E-01
         -2   -1    0    0    0  501 -0.00000000000E+00  0.00000000000E+00  0.71626282123E+03  0.71626282123E+03  0.00000000000E+00 0.  1.
          2   -1    0    0  501    0  0.00000000000E+00 -0.00000000000E+00 -0.74690712476E+03  0.74690712476E+03  0.00000000000E+00 0. -1.
         23    2    1    2    0    0  0.28518575873E+02  0.43285363037E+03  0.47871316351E+02  0.44609245038E+03  0.92364694885E+02 0.  0.
        254    2    1    2    0    0 -0.28518575873E+02 -0.43285363037E+03 -0.78515619889E+02  0.10170774956E+04  0.91657315857E+03 0.  0.
        -24    2    4    4    0    0  0.30921170216E+03 -0.54825961468E+03  0.29528472207E+02  0.63541028255E+03  0.81693418759E+02 0.  0.
         24    2    4    4    0    0 -0.33773027803E+03  0.11540598430E+03 -0.10804409210E+03  0.38166721305E+03  0.81339128178E+02 0.  0.
         13    1    3    3    0    0  0.44463910564E+02  0.38282328957E+03  0.18305901732E+02  0.38583133157E+03  0.00000000000E+00 0.  1.
        -13    1    3    3    0    0 -0.15945334692E+02  0.50030340804E+02  0.29565414619E+02  0.60261118817E+02  0.00000000000E+00 0. -1.
          2    1    6    6  502    0 -0.31453639601E+03  0.91929056899E+02 -0.77577992792E+02  0.33675278898E+03  0.00000000000E+00 0. -1.
          1    1    5    5  503    0  0.14018603849E+03 -0.18136892814E+03  0.31968808499E+02  0.23144938583E+03  0.00000000000E+00 0. -1.
         -2    1    5    5    0  503  0.16902566367E+03 -0.36689068653E+03 -0.24403362920E+01  0.40396089673E+03  0.00000000000E+00 0.  1.
         -1    1    6    6    0  502 -0.23193882019E+02  0.23476927405E+02 -0.30466099304E+02  0.44914424078E+02  0.00000000000E+00 0.  1.
<mgrwt>
<rscale>  0 0.14628490E+04</rscale>
<asrwt>0</asrwt>
<pdfrwt beam="1">  1        2 0.11490879E+00 0.14628490E+04</pdfrwt>
<pdfrwt beam="2">  1       -2 0.11019428E+00 0.14628490E+04</pdfrwt>
<totfact> 0.23898734E+01</totfact>
</mgrwt>
</event>
<event>
12    1  0.1980523E-007  0.2523740E+04  0.7818608E-02  0.8394577E-01
         -2   -1    0    0    0  501 -0.00000000000E+00  0.00000000000E+00  0.97009830885E+03  0.97009830885E+03  0.00000000000E+00 0. -1.
          2   -1    0    0  501    0  0.00000000000E+00 -0.00000000000E+00 -0.16413960091E+04  0.16413960091E+04  0.00000000000E+00 0.  1.
         23    2    1    2    0    0 -0.23112095540E+02 -0.10124100209E+04  0.14841389521E+03  0.10276217414E+04  0.92040967678E+02 0.  0.
        254    2    1    2    0    0  0.23112095540E+02  0.10124100209E+04 -0.81971159542E+03  0.15838725765E+04  0.90067586817E+03 0.  0.
        -24    2    4    4    0    0 -0.17152997934E+03  0.26647831887E+03 -0.73551855404E+03  0.80404926531E+03  0.71235170156E+02 0.  0.
         24    2    4    4    0    0  0.19464207488E+03  0.74593170205E+03 -0.84193041381E+02  0.77982331119E+03  0.82074886688E+02 0.  0.
         11    1    3    3    0    0  0.17296277843E+02 -0.23488551677E+03  0.66625508805E+02  0.24476381604E+03  0.00000000000E+00 0. -1.
        -11    1    3    3    0    0 -0.40408373383E+02 -0.77752450414E+03  0.81788386408E+02  0.78285792538E+03  0.00000000000E+00 0.  1.
          4    1    6    6  502    0  0.32737882668E+02  0.27629183949E+03 -0.40221637099E+02  0.28111693229E+03  0.00000000000E+00 0. -1.
          1    1    5    5  503    0 -0.68685868339E+01 -0.16760714386E+01 -0.50605215090E+01  0.86945717839E+01  0.00000000000E+00 0. -1.
         -2    1    5    5    0  503 -0.16466139250E+03  0.26815439031E+03 -0.73045803253E+03  0.79535469353E+03  0.00000000000E+00 0.  1.
         -3    1    6    6    0  502  0.16190419221E+03  0.46963986256E+03 -0.43971404283E+02  0.49870637890E+03  0.00000000000E+00 0.  1.
<mgrwt>
<rscale>  0 0.25237397E+04</rscale>
<asrwt>0</asrwt>
<pdfrwt beam="1">  1        2 0.25252246E+00 0.25237397E+04</pdfrwt>
<pdfrwt beam="2">  1       -2 0.14924590E+00 0.25237397E+04</pdfrwt>
<totfact> 0.28582841E+00</totfact>
</mgrwt>
</event>
<event>
12    1  0.1980523E-007  0.1959211E+04  0.7818608E-02  0.8625932E-01
          2   -1    0    0  501    0  0.00000000000E+00  0.00000000000E+00  0.21722248490E+04  0.21722248490E+04  0.00000000000E+00 0. -1.
         -2   -1    0    0    0  501 -0.00000000000E+00 -0.00000000000E+00 -0.44177159252E+03  0.44177159252E+03  0.00000000000E+00 0.  1.
         23    2    1    2    0    0  0.57160758723E+03  0.45761474641E+03  0.10147287111E+04  0.12546710437E+04  0.91534589065E+02 0.  0.
        254    2    1    2    0    0 -0.57160758723E+03 -0.45761474641E+03  0.71572454536E+03  0.13593253977E+04  0.89406790693E+03 0.  0.
        -24    2    4    4    0    0 -0.33638309367E+03  0.22984342746E+03  0.34631693415E+03  0.54051042787E+03  0.78958957126E+02 0.  0.
         24    2    4    4    0    0 -0.23522449356E+03 -0.68745817387E+03  0.36940761121E+03  0.81881496987E+03  0.77888821214E+02 0.  0.
         11    1    3    3    0    0  0.18095871628E+03  0.10712553122E+03  0.34127767004E+03  0.40086454633E+03  0.00000000000E+00 0. -1.
        -11    1    3    3    0    0  0.39064887096E+03  0.35048921518E+03  0.67345104103E+03  0.85380649740E+03  0.00000000000E+00 0.  1.
          2    1    6    6  502    0 -0.13794170267E+03 -0.28397825279E+03  0.15938844352E+03  0.35366119001E+03  0.00000000000E+00 0. -1.
          1    1    5    5  503    0 -0.24978918167E+03  0.20943395748E+03  0.26854345268E+03  0.42234204598E+03  0.00000000000E+00 0. -1.
         -2    1    5    5    0  503 -0.86593911999E+02  0.20409469983E+02  0.77773481470E+02  0.11816838190E+03  0.00000000000E+00 0.  1.
         -1    1    6    6    0  502 -0.97282790894E+02 -0.40347992107E+03  0.21001916769E+03  0.46515377985E+03  0.00000000000E+00 0.  1.
<mgrwt>
<rscale>  0 0.19592113E+04</rscale>
<asrwt>0</asrwt>
<pdfrwt beam="1">  1        2 0.33418843E+00 0.19592113E+04</pdfrwt>
<pdfrwt beam="2">  1       -2 0.67964862E-01 0.19592113E+04</pdfrwt>
<totfact> 0.98917223E+00</totfact>
</mgrwt>
</event>
<event>
12    1  0.1980523E-007  0.1248716E+04  0.7818608E-02  0.9071253E-01
          2   -1    0    0  501    0  0.00000000000E+00  0.00000000000E+00  0.13592717123E+04  0.13592717123E+04  0.00000000000E+00 0. -1.
         -2   -1    0    0    0  501 -0.00000000000E+00 -0.00000000000E+00 -0.28678787216E+03  0.28678787216E+03  0.00000000000E+00 0.  1.
         23    2    1    2    0    0  0.11040943600E+03  0.21927963581E+03  0.56279485838E+02  0.26590567235E+03  0.85232879922E+02 0.  0.
        254    2    1    2    0    0 -0.11040943600E+03 -0.21927963581E+03  0.10162043543E+04  0.13801539121E+04  0.90104368884E+03 0.  0.
        -24    2    4    4    0    0 -0.40484059784E+03 -0.40311668156E+03  0.65455789442E+03  0.87267007923E+03  0.81902755859E+02 0.  0.
         24    2    4    4    0    0  0.29443116184E+03  0.18383704575E+03  0.36164645989E+03  0.50748383290E+03  0.79157502854E+02 0.  0.
         11    1    3    3    0    0  0.43047473520E+02  0.15634563835E+03  0.92780589350E+01  0.16242883360E+03  0.00000000000E+00 0. -1.
        -11    1    3    3    0    0  0.67361962482E+02  0.62933997465E+02  0.47001426902E+02  0.10347683875E+03  0.00000000000E+00 0.  1.
          4    1    6    6  502    0  0.42019643353E+02  0.52181951038E+02  0.10286956760E+03  0.12276300086E+03  0.00000000000E+00 0. -1.
          3    1    5    5  503    0 -0.20687045466E+03 -0.15578097240E+03  0.32457336724E+03  0.41522399629E+03  0.00000000000E+00 0. -1.
         -4    1    5    5    0  503 -0.19797014318E+03 -0.24733570916E+03  0.32998452718E+03  0.45744608294E+03  0.00000000000E+00 0.  1.
         -3    1    6    6    0  502  0.25241151848E+03  0.13165509471E+03  0.25877689229E+03  0.38472083205E+03  0.00000000000E+00 0.  1.
<mgrwt>
<rscale>  0 0.12487156E+04</rscale>
<asrwt>0</asrwt>
<pdfrwt beam="1">  1        2 0.20911872E+00 0.12487156E+04</pdfrwt>
<pdfrwt beam="2">  1       -2 0.44121212E-01 0.12487156E+04</pdfrwt>
<totfact> 0.73145127E+01</totfact>
</mgrwt>
</event>
<event>
12    1  0.1980523E-007  0.1269712E+04  0.7818608E-02  0.9053935E-01
         -1   -1    0    0    0  501 -0.00000000000E+00  0.00000000000E+00  0.30949434523E+03  0.30949434523E+03  0.00000000000E+00 0.  1.
          1   -1    0    0  501    0  0.00000000000E+00 -0.00000000000E+00 -0.13022596691E+04  0.13022596691E+04  0.00000000000E+00 0. -1.
         23    2    1    2    0    0 -0.29150102346E+03 -0.44834779563E+02 -0.15058293503E+03  0.34363193073E+03  0.91786052078E+02 0.  0.
        254    2    1    2    0    0  0.29150102346E+03  0.44834779563E+02 -0.84218238881E+03  0.12681220836E+04  0.90104352763E+03 0.  0.
        -24    2    4    4    0    0  0.28367656587E+03 -0.98696274388E+02 -0.99507927574E+03  0.10423174771E+04  0.77650559773E+02 0.  0.
         24    2    4    4    0    0  0.78244575907E+01  0.14353105395E+03  0.15289688693E+03  0.22580460649E+03  0.83353924289E+02 0.  0.
         11    1    3    3    0    0 -0.19393209773E+03 -0.42998521645E+02 -0.14491005542E+03  0.24588097843E+03  0.00000000000E+00 0. -1.
        -11    1    3    3    0    0 -0.97568925735E+02 -0.18362579179E+01 -0.56728796132E+01  0.97750952299E+02  0.00000000000E+00 0.  1.
          2    1    6    6  502    0  0.16977127371E+02  0.10936288829E+03  0.58895400548E+02  0.12536798791E+03  0.00000000000E+00 0. -1.
          3    1    5    5  503    0  0.46945409811E+02 -0.48152901677E+02 -0.25101880405E+03  0.25987114775E+03  0.00000000000E+00 0. -1.
         -4    1    5    5    0  503  0.23673115606E+03 -0.50543372711E+02 -0.74406047168E+03  0.78244632934E+03  0.00000000000E+00 0.  1.
         -1    1    6    6    0  502 -0.91526697806E+01  0.34168165665E+02  0.94001486379E+02  0.10043661857E+03  0.00000000000E+00 0.  1.
<mgrwt>
<rscale>  0 0.12697118E+04</rscale>
<asrwt>0</asrwt>
<pdfrwt beam="1">  1        1 0.20034764E+00 0.12697118E+04</pdfrwt>
<pdfrwt beam="2">  1       -1 0.47614514E-01 0.12697118E+04</pdfrwt>
<totfact> 0.39073723E+01</totfact>
</mgrwt>
</event>
<event>
12    1  0.1980523E-007  0.2641582E+04  0.7818608E-02  0.8354212E-01
         -1   -1    0    0    0  501 -0.00000000000E+00  0.00000000000E+00  0.10403709159E+04  0.10403709159E+04  0.00000000000E+00 0.  1.
          1   -1    0    0  501    0  0.00000000000E+00 -0.00000000000E+00 -0.16767949192E+04  0.16767949192E+04  0.00000000000E+00 0. -1.
         23    2    1    2    0    0 -0.57751200651E+03 -0.86592931179E+03  0.25842833598E+03  0.10762294316E+04  0.90171469057E+02 0.  0.
        254    2    1    2    0    0  0.57751200651E+03  0.86592931179E+03 -0.89485233929E+03  0.16409364035E+04  0.89919846564E+03 0.  0.
        -24    2    4    4    0    0  0.27779670691E+02  0.33611644001E+03 -0.79381243377E+03  0.86663087663E+03  0.84645879792E+02 0.  0.
         24    2    4    4    0    0  0.54973233582E+03  0.52981287178E+03 -0.10103990553E+03  0.77430552690E+03  0.80203904732E+02 0.  0.
         11    1    3    3    0    0 -0.53612881634E+02 -0.65305136929E+02 -0.23521329038E+01  0.84525939898E+02  0.00000000000E+00 0. -1.
        -11    1    3    3    0    0 -0.52389912488E+03 -0.80062417486E+03  0.26078046889E+03  0.99170349166E+03  0.00000000000E+00 0.  1.
          4    1    6    6  502    0  0.19405885761E+03  0.21924081054E+03 -0.70363105741E+02  0.30112512328E+03  0.00000000000E+00 0. -1.
          1    1    5    5  503    0 -0.67878714017E+01  0.19649112694E+03 -0.54302022251E+03  0.57751692635E+03  0.00000000000E+00 0. -1.
         -2    1    5    5    0  503  0.34567542093E+02  0.13962531307E+03 -0.25079221126E+03  0.28911395028E+03  0.00000000000E+00 0.  1.
         -3    1    6    6    0  502  0.35567347821E+03  0.31057206124E+03 -0.30676799785E+02  0.47318040362E+03  0.00000000000E+00 0.  1.
<mgrwt>
<rscale>  0 0.26415818E+04</rscale>
<asrwt>0</asrwt>
<pdfrwt beam="1">  1        1 0.25796845E+00 0.26415818E+04</pdfrwt>
<pdfrwt beam="2">  1       -1 0.16005707E+00 0.26415818E+04</pdfrwt>
<totfact> 0.12664990E+00</totfact>
</mgrwt>
</event>
<event>
12    1  0.1980523E-007  0.2016910E+04  0.7818608E-02  0.8598755E-01
         -1   -1    0    0    0  501 -0.00000000000E+00  0.00000000000E+00  0.63165677000E+03  0.63165677000E+03  0.00000000000E+00 0.  1.
          1   -1    0    0  501    0  0.00000000000E+00 -0.00000000000E+00 -0.16100219310E+04  0.16100219310E+04  0.00000000000E+00 0. -1.
         23    2    1    2    0    0 -0.24784747152E+03 -0.74131076916E+03 -0.60685331457E+03  0.99342395967E+03  0.87465379548E+02 0.  0.
        254    2    1    2    0    0  0.24784747152E+03  0.74131076916E+03 -0.37151184644E+03  0.12482547413E+04  0.89952699884E+03 0.  0.
        -24    2    4    4    0    0  0.44648482950E+03  0.83595274234E+03 -0.33872611546E+03  0.10093998979E+04  0.77376237336E+02 0.  0.
         24    2    4    4    0    0 -0.19863735798E+03 -0.94641973183E+02 -0.32785730987E+02  0.23885484349E+03  0.86964527416E+02 0.  0.
         13    1    3    3    0    0 -0.76037609664E+02 -0.30023441753E+03 -0.19509424947E+03  0.36603850854E+03  0.00000000000E+00 0.  1.
        -13    1    3    3    0    0 -0.17180986186E+03 -0.44107635163E+03 -0.41175906510E+03  0.62738545113E+03  0.00000000000E+00 0. -1.
          4    1    6    6  502    0 -0.16156331415E+03 -0.10454916910E+03 -0.46716687874E+02  0.19802949821E+03  0.00000000000E+00 0. -1.
          3    1    5    5  503    0  0.25469423011E+03  0.44923123402E+03 -0.22291322125E+03  0.56246613825E+03  0.00000000000E+00 0. -1.
         -4    1    5    5    0  503  0.19179059939E+03  0.38672150833E+03 -0.11581289420E+03  0.44693375961E+03  0.00000000000E+00 0.  1.
         -3    1    6    6    0  502 -0.37074043832E+02  0.99071959147E+01  0.13930956887E+02  0.40825345274E+02  0.00000000000E+00 0.  1.
<mgrwt>
<rscale>  0 0.20169098E+04</rscale>
<asrwt>0</asrwt>
<pdfrwt beam="1">  1        1 0.24769568E+00 0.20169098E+04</pdfrwt>
<pdfrwt beam="2">  1       -1 0.97177963E-01 0.20169098E+04</pdfrwt>
<totfact> 0.51753910E+00</totfact>
</mgrwt>
</event>
<event>
12    1  0.1980523E-007  0.1012069E+04  0.7818608E-02  0.9295406E-01
         -2   -1    0    0    0  501 -0.00000000000E+00  0.00000000000E+00  0.88508654240E+02  0.88508654240E+02  0.00000000000E+00 0.  1.
          2   -1    0    0  501    0  0.00000000000E+00 -0.00000000000E+00 -0.28931742669E+04  0.28931742669E+04  0.00000000000E+00 0. -1.
         23    2    1    2    0    0 -0.15048124752E+02 -0.46080004020E+02 -0.21995192761E+03  0.24436505247E+03  0.94792486929E+02 0.  0.
        254    2    1    2    0    0  0.15048124752E+02  0.46080004020E+02 -0.25847136851E+04  0.27373178687E+04  0.89989692057E+03 0.  0.
        -24    2    4    4    0    0  0.59288702750E+02  0.35303052741E+03 -0.45831328995E+03  0.58697153172E+03  0.79616604735E+02 0.  0.
         24    2    4    4    0    0 -0.44240577998E+02 -0.30695052339E+03 -0.21264003951E+04  0.21503463370E+04  0.78961231082E+02 0.  0.
         13    1    3    3    0    0 -0.49903770235E+02 -0.25755828227E+02 -0.17580924561E+03  0.18456066702E+03  0.00000000000E+00 0. -1.
        -13    1    3    3    0    0  0.34855645483E+02 -0.20324175793E+02 -0.44142682004E+02  0.59804385443E+02  0.00000000000E+00 0.  1.
          2    1    6    6  502    0 -0.57273926902E+02 -0.12990364918E+03 -0.88428055305E+03  0.89560446474E+03  0.00000000000E+00 0. -1.
          3    1    5    5  503    0  0.23916724670E+02  0.18767794496E+03 -0.30390815412E+03  0.35798769097E+03  0.00000000000E+00 0. -1.
         -4    1    5    5    0  503  0.35371978080E+02  0.16535258245E+03 -0.15440513583E+03  0.22898384075E+03  0.00000000000E+00 0.  1.
         -1    1    6    6    0  502  0.13033348904E+02 -0.17704687421E+03 -0.12421198421E+04  0.12547418722E+04  0.00000000000E+00 0.  1.
<mgrwt>
<rscale>  0 0.10120691E+04</rscale>
<asrwt>0</asrwt>
<pdfrwt beam="1">  1        2 0.44510376E+00 0.10120691E+04</pdfrwt>
<pdfrwt beam="2">  1       -2 0.13616715E-01 0.10120691E+04</pdfrwt>
<totfact> 0.85422864E+01</totfact>
</mgrwt>
</event>
<event>
12    1  0.1980523E-007  0.1981642E+04  0.7818608E-02  0.8615252E-01
         -2   -1    0    0    0  501 -0.00000000000E+00  0.00000000000E+00  0.90829831206E+03  0.90829831206E+03  0.00000000000E+00 0.  1.
          2   -1    0    0  501    0  0.00000000000E+00 -0.00000000000E+00 -0.10808408045E+04  0.10808408045E+04  0.00000000000E+00 0. -1.
         23    2    1    2    0    0  0.32772813613E+03  0.96897840643E+02 -0.77548796340E+03  0.85228904235E+03  0.90664809105E+02 0.  0.
        254    2    1    2    0    0 -0.32772813613E+03 -0.96897840643E+02  0.60294547097E+03  0.11368500742E+04  0.90116032286E+03 0.  0.
        -24    2    4    4    0    0  0.16901370843E+03  0.17447710739E+03 -0.57710967051E+02  0.26313453498E+03  0.83074262788E+02 0.  0.
         24    2    4    4    0    0 -0.49674184456E+03 -0.27137494804E+03  0.66065643802E+03  0.87371553922E+03  0.80716118716E+02 0.  0.
         13    1    3    3    0    0  0.27625925035E+03  0.10466329167E+03 -0.70721133416E+03  0.76643424323E+03  0.00000000000E+00 0. -1.
        -13    1    3    3    0    0  0.51468885783E+02 -0.77654510216E+01 -0.68276629235E+02  0.85854799126E+02  0.00000000000E+00 0.  1.
          2    1    6    6  502    0 -0.35905669632E+03 -0.21826154002E+03  0.44139885763E+03  0.60942002145E+03  0.00000000000E+00 0. -1.
          1    1    5    5  503    0  0.14437376812E+03  0.17603802772E+03 -0.36482213764E+02  0.23057346778E+03  0.00000000000E+00 0. -1.
         -2    1    5    5    0  503  0.24639940307E+02 -0.15609203244E+01 -0.21228753287E+02  0.32561067193E+02  0.00000000000E+00 0.  1.
         -1    1    6    6    0  502 -0.13768514824E+03 -0.53113408017E+02  0.21925758038E+03  0.26429551777E+03  0.00000000000E+00 0.  1.
<mgrwt>
<rscale>  0 0.19816416E+04</rscale>
<asrwt>0</asrwt>
<pdfrwt beam="1">  1        2 0.16628320E+00 0.19816416E+04</pdfrwt>
<pdfrwt beam="2">  1       -2 0.13973820E+00 0.19816416E+04</pdfrwt>
<totfact> 0.75190626E+00</totfact>
</mgrwt>
</event>
<event>
12    1  0.1980523E-007  0.4034060E+04  0.7818608E-02  0.7997711E-01
          2   -1    0    0  501    0  0.00000000000E+00  0.00000000000E+00  0.42336047379E+04  0.42336047379E+04  0.00000000000E+00 0. -1.
         -2   -1    0    0    0  501 -0.00000000000E+00 -0.00000000000E+00 -0.96098009163E+03  0.96098009163E+03  0.00000000000E+00 0.  1.
         23    2    1    2    0    0 -0.10714214483E+04  0.99965283529E+03 -0.32093101400E+02  0.14686606278E+04  0.93189922323E+02 0.  0.
        254    2    1    2    0    0  0.10714214483E+04 -0.99965283529E+03  0.33047177477E+04  0.37259242017E+04  0.90227604094E+03 0.  0.
        -24    2    4    4    0    0  0.10179912727E+04 -0.11207063357E+04  0.31920877351E+04  0.35338326418E+04  0.79120857335E+02 0.  0.
         24    2    4    4    0    0  0.53430175602E+02  0.12105350040E+03  0.11263001265E+03  0.19209155989E+03  0.81883539290E+02 0.  0.
         13    1    3    3    0    0 -0.48782460146E+03  0.43242529128E+03  0.28958226147E+02  0.65253586353E+03  0.00000000000E+00 0. -1.
        -13    1    3    3    0    0 -0.58359684684E+03  0.56722754400E+03 -0.61051327546E+02  0.81612476431E+03  0.00000000000E+00 0.  1.
          2    1    6    6  502    0  0.39865720202E+02  0.40457927838E+02  0.91465771545E+02  0.10766664728E+03  0.00000000000E+00 0. -1.
          3    1    5    5  503    0  0.42637109839E+03 -0.43254370047E+03  0.12107883166E+04  0.13545828560E+04  0.00000000000E+00 0. -1.
         -4    1    5    5    0  503  0.59162017431E+03 -0.68816263522E+03  0.19812994185E+04  0.21792497858E+04  0.00000000000E+00 0.  1.
         -1    1    6    6    0  502  0.13564455401E+02  0.80595572566E+02  0.21164241101E+02  0.84424912609E+02  0.00000000000E+00 0.  1.
<mgrwt>
<rscale>  0 0.40340599E+04</rscale>
<asrwt>0</asrwt>
<pdfrwt beam="1">  1        2 0.65132380E+00 0.40340599E+04</pdfrwt>
<pdfrwt beam="2">  1       -2 0.14784309E+00 0.40340599E+04</pdfrwt>
<totfact> 0.52959068E-02</totfact>
</mgrwt>
</event>
<event>
12    1  0.1980523E-007  0.1426006E+04  0.7818608E-02  0.8935206E-01
         -2   -1    0    0    0  501 -0.00000000000E+00  0.00000000000E+00  0.19577088581E+03  0.19577088581E+03  0.00000000000E+00 0.  1.
          2   -1    0    0  501    0  0.00000000000E+00 -0.00000000000E+00 -0.25967768969E+04  0.25967768969E+04  0.00000000000E+00 0. -1.
         23    2    1    2    0    0  0.40081536311E+03 -0.47427573085E+02 -0.50484854091E+03  0.65222451440E+03  0.87306574360E+02 0.  0.
        254    2    1    2    0    0 -0.40081536311E+03  0.47427573085E+02 -0.18961574702E+04  0.21403232684E+04  0.90701059047E+03 0.  0.
        -24    2    4    4    0    0 -0.19754187431E+02  0.25743483929E+03 -0.15653756204E+04  0.15885637919E+04  0.80443544053E+02 0.  0.
         24    2    4    4    0    0 -0.38106117568E+03 -0.21000726620E+03 -0.33078184985E+03  0.55175947643E+03  0.75572588769E+02 0.  0.
         13    1    3    3    0    0  0.18166877006E+03  0.20151189849E+02 -0.24460956092E+03  0.30535790437E+03  0.00000000000E+00 0. -1.
        -13    1    3    3    0    0  0.21914659305E+03 -0.67578762934E+02 -0.26023897999E+03  0.34686661002E+03  0.00000000000E+00 0.  1.
          2    1    6    6  502    0 -0.28945450540E+03 -0.17710672541E+03 -0.22059596445E+03  0.40473853586E+03  0.00000000000E+00 0. -1.
          3    1    5    5  503    0 -0.46196188021E+02  0.19802576070E+03 -0.12640816331E+04  0.12803322478E+04  0.00000000000E+00 0. -1.
         -4    1    5    5    0  503  0.26442000589E+02  0.59409078593E+02 -0.30129398729E+03  0.30823154412E+03  0.00000000000E+00 0.  1.
         -1    1    6    6    0  502 -0.91606670283E+02 -0.32900540794E+02 -0.11018588540E+03  0.14702094057E+03  0.00000000000E+00 0.  1.
<mgrwt>
<rscale>  0 0.14260060E+04</rscale>
<asrwt>0</asrwt>
<pdfrwt beam="1">  1        2 0.39950417E+00 0.14260060E+04</pdfrwt>
<pdfrwt beam="2">  1       -2 0.30118596E-01 0.14260060E+04</pdfrwt>
<totfact> 0.30354394E+01</totfact>
</mgrwt>
</event>
<event>
12    1  0.1980523E-007  0.3493010E+04  0.7818608E-02  0.8115448E-01
         -2   -1    0    0    0  501 -0.00000000000E+00  0.00000000000E+00  0.17751504034E+04  0.17751504034E+04  0.00000000000E+00 0.  1.
          2   -1    0    0  501    0  0.00000000000E+00 -0.00000000000E+00 -0.17183218832E+04  0.17183218832E+04  0.00000000000E+00 0. -1.
         23    2    1    2    0    0  0.83094248729E+03 -0.63016637747E+03  0.12787230638E+04  0.16527016507E+04  0.93354120529E+02 0.  0.
        254    2    1    2    0    0 -0.83094248729E+03  0.63016637747E+03 -0.12218945436E+04  0.18407706359E+04  0.89879651641E+03 0.  0.
        -24    2    4    4    0    0 -0.61301498818E+03  0.12126038924E+03 -0.17519171705E+03  0.65391531413E+03  0.80135152094E+02 0.  0.
         24    2    4    4    0    0 -0.21792749912E+03  0.50890598823E+03 -0.10467028266E+04  0.11868553218E+04  0.81000296359E+02 0.  0.
         11    1    3    3    0    0  0.51190619543E+03 -0.43166139621E+03  0.77364726083E+03  0.10231860037E+04  0.00000000000E+00 0. -1.
        -11    1    3    3    0    0  0.31903629187E+03 -0.19850498127E+03  0.50507580297E+03  0.62951564703E+03  0.00000000000E+00 0.  1.
          4    1    6    6  502    0 -0.47387574131E+02  0.14332215409E+03 -0.36100512249E+03  0.39129467221E+03  0.00000000000E+00 0. -1.
          3    1    5    5  503    0 -0.34192889755E+03  0.10781024698E+03 -0.94937545425E+02  0.37087943845E+03  0.00000000000E+00 0. -1.
         -4    1    5    5    0  503 -0.27108609063E+03  0.13450142262E+02 -0.80254171624E+02  0.28303587568E+03  0.00000000000E+00 0.  1.
         -3    1    6    6    0  502 -0.17053992499E+03  0.36558383414E+03 -0.68569770409E+03  0.79556064961E+03  0.00000000000E+00 0.  1.
<mgrwt>
<rscale>  0 0.34930100E+04</rscale>
<asrwt>0</asrwt>
<pdfrwt beam="1">  1        2 0.26435721E+00 0.34930100E+04</pdfrwt>
<pdfrwt beam="2">  1       -2 0.27310006E+00 0.34930100E+04</pdfrwt>
<totfact> 0.36544328E-01</totfact>
</mgrwt>
</event>
<event>
12    1  0.1980523E-007  0.2016093E+04  0.7818608E-02  0.8599134E-01
          2   -1    0    0  501    0  0.00000000000E+00  0.00000000000E+00  0.15242330500E+04  0.15242330500E+04  0.00000000000E+00 0.  1.
         -2   -1    0    0    0  501 -0.00000000000E+00 -0.00000000000E+00 -0.66666808520E+03  0.66666808520E+03  0.00000000000E+00 0. -1.
         23    2    1    2    0    0 -0.18940459966E+02 -0.66605943806E+03  0.83187956343E+03  0.10685711090E+04  0.76332764871E+02 0.  0.
        254    2    1    2    0    0  0.18940459966E+02  0.66605943806E+03  0.25685401375E+02  0.11223300262E+04  0.90275746007E+03 0.  0.
        -24    2    4    4    0    0 -0.28257181408E+03  0.19821532536E+03 -0.30662116599E+03  0.46851688210E+03  0.79720662682E+02 0.  0.
         24    2    4    4    0    0  0.30151227404E+03  0.46784411270E+03  0.33230656737E+03  0.65381314406E+03  0.85183375383E+02 0.  0.
         11    1    3    3    0    0 -0.42879705428E+02 -0.23159637758E+03  0.28717669527E+03  0.37141083123E+03  0.00000000000E+00 0. -1.
        -11    1    3    3    0    0  0.23939245462E+02 -0.43446306048E+03  0.54470286816E+03  0.69716027782E+03  0.00000000000E+00 0.  1.
          2    1    6    6  502    0  0.10874979353E+03  0.10706728770E+03  0.11126991928E+03  0.18886745783E+03  0.00000000000E+00 0. -1.
          1    1    5    5  503    0 -0.52990843006E+02  0.52079636754E+02 -0.11013543961E+03  0.13285380335E+03  0.00000000000E+00 0. -1.
         -2    1    5    5    0  503 -0.22958097107E+03  0.14613568860E+03 -0.19648572638E+03  0.33566307875E+03  0.00000000000E+00 0.  1.
         -1    1    6    6    0  502  0.19276248051E+03  0.36077682500E+03  0.22103664809E+03  0.46494568623E+03  0.00000000000E+00 0.  1.
<mgrwt>
<rscale>  0 0.20160928E+04</rscale>
<asrwt>0</asrwt>
<pdfrwt beam="1">  1        2 0.23449739E+00 0.20160928E+04</pdfrwt>
<pdfrwt beam="2">  1       -2 0.10256432E+00 0.20160928E+04</pdfrwt>
<totfact> 0.88758259E+00</totfact>
</mgrwt>
</event>
<event>
12    1  0.1980523E-007  0.1364516E+04  0.7818608E-02  0.8979912E-01
         -2   -1    0    0    0  501 -0.00000000000E+00  0.00000000000E+00  0.21039050550E+03  0.21039050550E+03  0.00000000000E+00 0.  1.
          2   -1    0    0  501    0  0.00000000000E+00 -0.00000000000E+00 -0.22124378239E+04  0.22124378239E+04  0.00000000000E+00 0. -1.
         23    2    1    2    0    0  0.33917860915E+03 -0.13809439539E+03 -0.75880639446E+03  0.84751356686E+03  0.91541852664E+02 0.  0.
        254    2    1    2    0    0 -0.33917860915E+03  0.13809439539E+03 -0.12432409240E+04  0.15753147626E+04  0.89546435731E+03 0.  0.
        -24    2    4    4    0    0  0.18742130140E+02  0.31218667456E+03 -0.65719399020E+02  0.32973391424E+03  0.81201155008E+02 0.  0.
         24    2    4    4    0    0 -0.35792073929E+03 -0.17409227917E+03 -0.11775215250E+04  0.12455808483E+04  0.80618426807E+02 0.  0.
         13    1    3    3    0    0  0.24834472742E+03 -0.14289299195E+03 -0.57509674280E+03  0.64251830664E+03  0.00000000000E+00 0.  1.
        -13    1    3    3    0    0  0.90833881729E+02  0.47985965586E+01 -0.18370965166E+03  0.20499526021E+03  0.00000000000E+00 0. -1.
          4    1    6    6  502    0 -0.27473732529E+03 -0.93342088805E+02 -0.84406179377E+03  0.89254336318E+03  0.00000000000E+00 0. -1.
          3    1    5    5  503    0  0.92504387157E+01  0.12289841780E+03  0.14170679311E+02  0.12405805039E+03  0.00000000000E+00 0. -1.
         -4    1    5    5    0  503  0.94916914239E+01  0.18928825676E+03 -0.79890078331E+02  0.20567586385E+03  0.00000000000E+00 0.  1.
         -3    1    6    6    0  502 -0.83183414006E+02 -0.80750190367E+02 -0.33345973119E+03  0.35303748517E+03  0.00000000000E+00 0.  1.
<mgrwt>
<rscale>  0 0.13645159E+04</rscale>
<asrwt>0</asrwt>
<pdfrwt beam="1">  1        2 0.34037505E+00 0.13645159E+04</pdfrwt>
<pdfrwt beam="2">  1       -2 0.32367770E-01 0.13645159E+04</pdfrwt>
<totfact> 0.44157289E+01</totfact>
</mgrwt>
</event>
<event>
12    1  0.1980523E-007  0.2305341E+04  0.7818608E-02  0.8475818E-01
          1   -1    0    0  501    0  0.00000000000E+00  0.00000000000E+00  0.21908013087E+04  0.21908013087E+04  0.00000000000E+00 0. -1.
         -1   -1    0    0    0  501 -0.00000000000E+00 -0.00000000000E+00 -0.60646716646E+03  0.60646716646E+03  0.00000000000E+00 0.  1.
         23    2    1    2    0    0 -0.46378867830E+03 -0.84202796904E+03  0.47431313058E+03  0.10758233760E+04  0.91169906099E+02 0.  0.
        254    2    1    2    0    0  0.46378867830E+03  0.84202796904E+03  0.11100210117E+04  0.17214450992E+04  0.89839609542E+03 0.  0.
        -24    2    4    4    0    0  0.73585948308E+01  0.42143424939E+03  0.99828411875E+03  0.10869637790E+04  0.85194481063E+02 0.  0.
         24    2    4    4    0    0  0.45643008347E+03  0.42059371965E+03  0.11173689292E+03  0.63448132017E+03  0.69670038719E+02 0.  0.
         11    1    3    3    0    0 -0.24472225573E+03 -0.37490658245E+03  0.25471165653E+03  0.51509412343E+03  0.00000000000E+00 0. -1.
        -11    1    3    3    0    0 -0.21906642257E+03 -0.46712138659E+03  0.21960147404E+03  0.56072925259E+03  0.00000000000E+00 0.  1.
          2    1    6    6  502    0  0.11502752748E+03  0.92130020482E+02 -0.14950052427E+01  0.14738218275E+03  0.00000000000E+00 0. -1.
          1    1    5    5  503    0  0.30969145954E+02  0.31186840755E+03  0.66076418748E+03  0.73132093029E+03  0.00000000000E+00 0. -1.
         -2    1    5    5    0  503 -0.23610551123E+02  0.10956584184E+03  0.33751993127E+03  0.35564284870E+03  0.00000000000E+00 0.  1.
         -1    1    6    6    0  502  0.34140255599E+03  0.32846369917E+03  0.11323189817E+03  0.48709913741E+03  0.00000000000E+00 0.  1.
<mgrwt>
<rscale>  0 0.23053408E+04</rscale>
<asrwt>0</asrwt>
<pdfrwt beam="1">  1        1 0.33704635E+00 0.23053408E+04</pdfrwt>
<pdfrwt beam="2">  1       -1 0.93302642E-01 0.23053408E+04</pdfrwt>
<totfact> 0.22259399E+00</totfact>
</mgrwt>
</event>
<event>
12    1  0.1980523E-007  0.2184982E+04  0.7818608E-02  0.8524705E-01
          1   -1    0    0  501    0  0.00000000000E+00  0.00000000000E+00  0.20749504876E+04  0.20749504876E+04  0.00000000000E+00 0. -1.
         -1   -1    0    0    0  501 -0.00000000000E+00 -0.00000000000E+00 -0.57521210716E+03  0.57521210716E+03  0.00000000000E+00 0.  1.
         23    2    1    2    0    0  0.89709090584E+03 -0.96660452723E+02  0.54491174302E+03  0.10577972934E+04  0.88831130986E+02 0.  0.
        254    2    1    2    0    0 -0.89709090584E+03  0.96660452723E+02  0.95482663744E+03  0.15923653014E+04  0.89989888817E+03 0.  0.
        -24    2    4    4    0    0 -0.27387364577E+03  0.13896020649E+03 -0.12603881648E+03  0.34144669857E+03  0.79895881440E+02 0.  0.
         24    2    4    4    0    0 -0.62321726008E+03 -0.42299753772E+02  0.10808654539E+04  0.12509186028E+04  0.79612806101E+02 0.  0.
         11    1    3    3    0    0  0.23492650212E+03 -0.22035347280E+02  0.18918475389E+03  0.30243493355E+03  0.00000000000E+00 0. -1.
        -11    1    3    3    0    0  0.66216440373E+03 -0.74625105443E+02  0.35572698914E+03  0.75536235988E+03  0.00000000000E+00 0.  1.
          4    1    6    6  502    0 -0.34792857594E+02  0.15580260871E+02  0.56451628524E+02  0.68118087402E+02  0.00000000000E+00 0. -1.
          3    1    5    5  503    0 -0.22313502045E+03  0.81515245678E+02 -0.74043662469E+02  0.24883013600E+03  0.00000000000E+00 0. -1.
         -4    1    5    5    0  503 -0.50738625314E+02  0.57444960816E+02 -0.51995154006E+02  0.92616562569E+02  0.00000000000E+00 0.  1.
         -3    1    6    6    0  502 -0.58842440248E+03 -0.57880014643E+02  0.10244138254E+04  0.11828005154E+04  0.00000000000E+00 0.  1.
<mgrwt>
<rscale>  0 0.21849821E+04</rscale>
<asrwt>0</asrwt>
<pdfrwt beam="1">  1        1 0.31922315E+00 0.21849821E+04</pdfrwt>
<pdfrwt beam="2">  1       -1 0.88494171E-01 0.21849821E+04</pdfrwt>
<totfact> 0.30329629E+00</totfact>
</mgrwt>
</event>
<event>
12    1  0.1980523E-007  0.4806368E+04  0.7818608E-02  0.7859091E-01
          1   -1    0    0  501    0  0.00000000000E+00  0.00000000000E+00  0.26037463225E+04  0.26037463225E+04  0.00000000000E+00 0. -1.
         -1   -1    0    0    0  501 -0.00000000000E+00 -0.00000000000E+00 -0.22180709476E+04  0.22180709476E+04  0.00000000000E+00 0.  1.
         23    2    1    2    0    0  0.38058688982E+03  0.22820349772E+04  0.45558052877E+02  0.23160212363E+04  0.96689259235E+02 0.  0.
        254    2    1    2    0    0 -0.38058688982E+03 -0.22820349772E+04  0.34011732197E+03  0.25057960339E+04  0.90044652979E+03 0.  0.
        -24    2    4    4    0    0 -0.82425316986E+02 -0.11913261840E+04  0.60595435126E+03  0.13414887277E+04  0.79745351877E+02 0.  0.
         24    2    4    4    0    0 -0.29816157284E+03 -0.10907087931E+04 -0.26583702929E+03  0.11643073062E+04  0.79976134645E+02 0.  0.
         11    1    3    3    0    0  0.16824770105E+03  0.11353191503E+04  0.66241467173E+02  0.11496281111E+04  0.00000000000E+00 0. -1.
        -11    1    3    3    0    0  0.21233918877E+03  0.11467158269E+04 -0.20683414296E+02  0.11663931251E+04  0.00000000000E+00 0.  1.
          2    1    6    6  502    0 -0.16390627247E+02 -0.64899941924E+02  0.31886438201E+01  0.67013599909E+02  0.00000000000E+00 0. -1.
          3    1    5    5  503    0  0.12682082601E+02 -0.16159658787E+03  0.97223294295E+02  0.18901497661E+03  0.00000000000E+00 0. -1.
         -4    1    5    5    0  503 -0.95107399587E+02 -0.10297295962E+04  0.50873105696E+03  0.11524737511E+04  0.00000000000E+00 0.  1.
         -1    1    6    6    0  502 -0.28177094559E+03 -0.10258088512E+04 -0.26902567311E+03  0.10972937063E+04  0.00000000000E+00 0.  1.
<mgrwt>
<rscale>  0 0.48063683E+04</rscale>
<asrwt>0</asrwt>
<pdfrwt beam="1">  1        1 0.40057636E+00 0.48063683E+04</pdfrwt>
<pdfrwt beam="2">  1       -1 0.34124168E+00 0.48063683E+04</pdfrwt>
<totfact> 0.14930333E-02</totfact>
</mgrwt>
</event>
<event>
12    1  0.1980523E-007  0.2639966E+04  0.7818608E-02  0.8354751E-01
         -2   -1    0    0    0  501 -0.00000000000E+00  0.00000000000E+00  0.12370117829E+04  0.12370117829E+04  0.00000000000E+00 0.  1.
          2   -1    0    0  501    0  0.00000000000E+00 -0.00000000000E+00 -0.14085196468E+04  0.14085196468E+04  0.00000000000E+00 0. -1.
         23    2    1    2    0    0  0.62516394435E+03 -0.40493052053E+03  0.82160359956E+03  0.11126750088E+04  0.90633970446E+02 0.  0.
        254    2    1    2    0    0 -0.62516394435E+03  0.40493052053E+03 -0.99311146344E+03  0.15328564210E+04  0.89921062309E+03 0.  0.
        -24    2    4    4    0    0 -0.28550929940E+03 -0.11901514340E+03  0.41454240769E+02  0.32192992909E+03  0.78995321153E+02 0.  0.
         24    2    4    4    0    0 -0.33965464494E+03  0.52394566393E+03 -0.10345657042E+04  0.12109264919E+04  0.78309870206E+02 0.  0.
         13    1    3    3    0    0  0.55354244064E+03 -0.34348368803E+03  0.67310672683E+03  0.93672992011E+03  0.00000000000E+00 0. -1.
        -13    1    3    3    0    0  0.71621503708E+02 -0.61446832501E+02  0.14849687273E+03  0.17594508867E+03  0.00000000000E+00 0.  1.
          4    1    6    6  502    0 -0.18591516312E+03  0.21544934749E+03 -0.46095124204E+03  0.54171848478E+03  0.00000000000E+00 0. -1.
          3    1    5    5  503    0 -0.75028947507E+02 -0.54226847261E+02  0.42114003233E+02  0.10170291636E+03  0.00000000000E+00 0. -1.
         -4    1    5    5    0  503 -0.21048035190E+03 -0.64788296143E+02 -0.65976246381E+00  0.22022701273E+03  0.00000000000E+00 0.  1.
         -3    1    6    6    0  502 -0.15373948182E+03  0.30849631644E+03 -0.57361446217E+03  0.66920800708E+03  0.00000000000E+00 0.  1.
<mgrwt>
<rscale>  0 0.26399662E+04</rscale>
<asrwt>0</asrwt>
<pdfrwt beam="1">  1        2 0.21669533E+00 0.26399662E+04</pdfrwt>
<pdfrwt beam="2">  1       -2 0.19030950E+00 0.26399662E+04</pdfrwt>
<totfact> 0.19462701E+00</totfact>
</mgrwt>
</event>
<event>
12    1  0.1980523E-007  0.1374005E+04  0.7818608E-02  0.8972853E-01
          1   -1    0    0  501    0  0.00000000000E+00  0.00000000000E+00  0.30182014104E+04  0.30182014104E+04  0.00000000000E+00 0. -1.
         -1   -1    0    0    0  501 -0.00000000000E+00 -0.00000000000E+00 -0.15637532731E+03  0.15637532731E+03  0.00000000000E+00 0.  1.
         23    2    1    2    0    0 -0.57632626258E+02 -0.30045981677E+03  0.28582127257E+03  0.42828528156E+03  0.90204553347E+02 0.  0.
        254    2    1    2    0    0  0.57632626258E+02  0.30045981677E+03  0.25760048105E+04  0.27462914561E+04  0.90150893350E+03 0.  0.
        -24    2    4    4    0    0  0.24958043106E+03  0.54202564062E+03  0.13284084721E+04  0.14584006034E+04  0.78619746384E+02 0.  0.
         24    2    4    4    0    0 -0.19194780480E+03 -0.24156582385E+03  0.12475963384E+04  0.12878908527E+04  0.83475852770E+02 0.  0.
         13    1    3    3    0    0  0.14686292879E+02 -0.16210916361E+03  0.15048932480E+03  0.22168018631E+03  0.00000000000E+00 0. -1.
        -13    1    3    3    0    0 -0.72318919137E+02 -0.13835065317E+03  0.13533194776E+03  0.20660509525E+03  0.00000000000E+00 0.  1.
          2    1    6    6  502    0 -0.12713667712E+03 -0.10817531028E+03  0.55332491298E+03  0.57795682516E+03  0.00000000000E+00 0. -1.
          1    1    5    5  503    0  0.17846967854E+01  0.81813258196E+00 -0.70533793798E+00  0.20861412091E+01  0.00000000000E+00 0. -1.
         -2    1    5    5    0  503  0.24779573427E+03  0.54120750804E+03  0.13291138100E+04  0.14563144622E+04  0.00000000000E+00 0.  1.
         -1    1    6    6    0  502 -0.64811127680E+02 -0.13339051357E+03  0.69427142542E+03  0.70993402759E+03  0.00000000000E+00 0.  1.
<mgrwt>
<rscale>  0 0.13740047E+04</rscale>
<asrwt>0</asrwt>
<pdfrwt beam="1">  1        1 0.46433864E+00 0.13740047E+04</pdfrwt>
<pdfrwt beam="2">  1       -1 0.24057745E-01 0.13740047E+04</pdfrwt>
<totfact> 0.85471862E+00</totfact>
</mgrwt>
</event>
<event>
12    1  0.1980523E-007  0.2855574E+04  0.7818608E-02  0.8286220E-01
          2   -1    0    0  501    0  0.00000000000E+00  0.00000000000E+00  0.15649295002E+04  0.15649295002E+04  0.00000000000E+00 0. -1.
         -2   -1    0    0    0  501 -0.00000000000E+00 -0.00000000000E+00 -0.13026629813E+04  0.13026629813E+04  0.00000000000E+00 0.  1.
         23    2    1    2    0    0 -0.95655941479E+03  0.85151484065E+03  0.38367451405E+02  0.12854742547E+04  0.10434826506E+03 0.  0.
        254    2    1    2    0    0  0.95655941479E+03 -0.85151484065E+03  0.22389906750E+03  0.15821182267E+04  0.90160071709E+03 0.  0.
        -24    2    4    4    0    0  0.96715671743E+03 -0.91966849840E+03  0.26553591859E+01  0.13371334853E+04  0.82077057932E+02 0.  0.
         24    2    4    4    0    0 -0.10597302642E+02  0.68153657753E+02  0.22124370831E+03  0.24498474147E+03  0.79445082900E+02 0.  0.
         11    1    3    3    0    0 -0.59634554218E+03  0.59702556045E+03  0.21991227789E+02  0.84412744276E+03  0.00000000000E+00 0. -1.
        -11    1    3    3    0    0 -0.36021387261E+03  0.25448928020E+03  0.16376223616E+02  0.44134681199E+03  0.00000000000E+00 0.  1.
          2    1    6    6  502    0  0.16698057299E+02  0.52760975897E+01  0.12834593211E+03  0.12953509414E+03  0.00000000000E+00 0. -1.
          3    1    5    5  503    0  0.41734217508E+03 -0.35674639607E+03 -0.26946788753E+02  0.54969865530E+03  0.00000000000E+00 0. -1.
         -4    1    5    5    0  503  0.54981454235E+03 -0.56292210233E+03  0.29602147939E+02  0.78743482996E+03  0.00000000000E+00 0.  1.
         -1    1    6    6    0  502 -0.27295359941E+02  0.62877560163E+02  0.92897776201E+02  0.11544964733E+03  0.00000000000E+00 0.  1.
<mgrwt>
<rscale>  0 0.28555740E+04</rscale>
<asrwt>0</asrwt>
<pdfrwt beam="1">  1        2 0.24075839E+00 0.28555740E+04</pdfrwt>
<pdfrwt beam="2">  1       -2 0.20040969E+00 0.28555740E+04</pdfrwt>
<totfact> 0.13361227E+00</totfact>
</mgrwt>
</event>
<event>
12    1  0.1980523E-007  0.1598646E+04  0.7818608E-02  0.8821380E-01
         -3   -1    0    0    0  501 -0.00000000000E+00  0.00000000000E+00  0.49825688676E+03  0.49825688676E+03  0.00000000000E+00 0.  1.
          3   -1    0    0  501    0  0.00000000000E+00 -0.00000000000E+00 -0.12823055085E+04  0.12823055085E+04  0.00000000000E+00 0. -1.
         23    2    1    2    0    0 -0.25215885228E+03 -0.47669641391E+03 -0.23569226158E+03  0.59535724887E+03  0.89865754315E+02 0.  0.
        254    2    1    2    0    0  0.25215885228E+03  0.47669641391E+03 -0.54835636012E+03  0.11852051463E+04  0.90177213497E+03 0.  0.
        -24    2    4    4    0    0  0.57850231914E+03  0.20729105628E+03 -0.30622499063E+03  0.69108367511E+03  0.78666294230E+02 0.  0.
         24    2    4    4    0    0 -0.32634346687E+03  0.26940535763E+03 -0.24213136949E+03  0.49412147123E+03  0.80306432826E+02 0.  0.
         11    1    3    3    0    0 -0.12503258656E+03 -0.31857661203E+03 -0.12581519209E+03  0.36462812288E+03  0.00000000000E+00 0. -1.
        -11    1    3    3    0    0 -0.12712626571E+03 -0.15811980188E+03 -0.10987706949E+03  0.23072912599E+03  0.00000000000E+00 0.  1.
          4    1    6    6  502    0 -0.21912427625E+03  0.14559737936E+03 -0.11660184234E+03  0.28776732781E+03  0.00000000000E+00 0. -1.
          1    1    5    5  503    0  0.11319302793E+03  0.74964786445E+02 -0.68676999843E+02  0.15214766211E+03  0.00000000000E+00 0. -1.
         -2    1    5    5    0  503  0.46530929122E+03  0.13232626983E+03 -0.23754799079E+03  0.53893601300E+03  0.00000000000E+00 0.  1.
         -3    1    6    6    0  502 -0.10721919062E+03  0.12380797827E+03 -0.12552952715E+03  0.20635414342E+03  0.00000000000E+00 0.  1.
<mgrwt>
<rscale>  0 0.15986464E+04</rscale>
<asrwt>0</asrwt>
<pdfrwt beam="1">  1        3 0.19727777E+00 0.15986464E+04</pdfrwt>
<pdfrwt beam="2">  1       -3 0.76654907E-01 0.15986464E+04</pdfrwt>
<totfact> 0.61547234E-01</totfact>
</mgrwt>
</event>
<event>
12    1  0.1980523E-007  0.1542963E+04  0.7818608E-02  0.8856375E-01
         -2   -1    0    0    0  501 -0.00000000000E+00  0.00000000000E+00  0.41705866300E+03  0.41705866300E+03  0.00000000000E+00 0.  1.
          2   -1    0    0  501    0  0.00000000000E+00 -0.00000000000E+00 -0.14270990117E+04  0.14270990117E+04  0.00000000000E+00 0. -1.
         23    2    1    2    0    0 -0.11401425329E+03 -0.46404416452E+03 -0.14445792500E+03  0.50750519969E+03  0.91417717325E+02 0.  0.
        254    2    1    2    0    0  0.11401425329E+03  0.46404416452E+03 -0.86558242372E+03  0.13366524750E+04  0.89948355747E+03 0.  0.
        -24    2    4    4    0    0 -0.23399816159E+03  0.55553997917E+03 -0.71464852565E+03  0.93829875748E+03  0.79386617233E+02 0.  0.
         24    2    4    4    0    0  0.34801241488E+03 -0.91495814649E+02 -0.15093389807E+03  0.39835371754E+03  0.80128132903E+02 0.  0.
         13    1    3    3    0    0 -0.30179129915E+02 -0.25292841004E+02 -0.58726892663E+01  0.39812010345E+02  0.00000000000E+00 0. -1.
        -13    1    3    3    0    0 -0.83835123374E+02 -0.43875132352E+03 -0.13858523573E+03  0.46769318935E+03  0.00000000000E+00 0.  1.
          4    1    6    6  502    0  0.11744922719E+03 -0.17841866102E+02 -0.12328135060E+02  0.11943465187E+03  0.00000000000E+00 0. -1.
          3    1    5    5  503    0 -0.54951125313E+02  0.61209778487E+02 -0.97192602526E+02  0.12732896427E+03  0.00000000000E+00 0. -1.
         -4    1    5    5    0  503 -0.17904703628E+03  0.49433020068E+03 -0.61745592312E+03  0.81096979322E+03  0.00000000000E+00 0.  1.
         -3    1    6    6    0  502  0.23056318769E+03 -0.73653948546E+02 -0.13860576301E+03  0.27891906567E+03  0.00000000000E+00 0.  1.
<mgrwt>
<rscale>  0 0.15429634E+04</rscale>
<asrwt>0</asrwt>
<pdfrwt beam="1">  1        2 0.21955369E+00 0.15429634E+04</pdfrwt>
<pdfrwt beam="2">  1       -2 0.64162872E-01 0.15429634E+04</pdfrwt>
<totfact> 0.30185889E+01</totfact>
</mgrwt>
</event>
<event>
12    1  0.1980523E-007  0.3398842E+04  0.7818608E-02  0.8138190E-01
         -2   -1    0    0    0  501 -0.00000000000E+00  0.00000000000E+00  0.22285810572E+04  0.22285810572E+04  0.00000000000E+00 0.  1.
          2   -1    0    0  501    0  0.00000000000E+00 -0.00000000000E+00 -0.12959063474E+04  0.12959063474E+04  0.00000000000E+00 0. -1.
         23    2    1    2    0    0 -0.78865944940E+03 -0.13677281943E+04  0.44439779359E+03  0.16425886141E+04  0.89128084652E+02 0.  0.
        254    2    1    2    0    0  0.78865944940E+03  0.13677281943E+04  0.48827691624E+03  0.18818987905E+04  0.90025805760E+03 0.  0.
        -24    2    4    4    0    0  0.81825194429E+03  0.62623617050E+03  0.47107780883E+03  0.11353012859E+04  0.72709849423E+02 0.  0.
         24    2    4    4    0    0 -0.29592494888E+02  0.74149202379E+03  0.17199107414E+02  0.74659750463E+03  0.80161633832E+02 0.  0.
         11    1    3    3    0    0 -0.20115963934E+03 -0.35335731788E+03  0.15522514411E+03  0.43522573449E+03  0.00000000000E+00 0. -1.
        -11    1    3    3    0    0 -0.58749981006E+03 -0.10143708764E+04  0.28917264948E+03  0.12073628796E+04  0.00000000000E+00 0.  1.
          4    1    6    6  502    0 -0.55030540119E+02  0.37413843661E+03  0.96192670294E+01  0.37828621491E+03  0.00000000000E+00 0. -1.
          3    1    5    5  503    0  0.76649373568E+03  0.60328189740E+03  0.43400783386E+03  0.10676256340E+04  0.00000000000E+00 0. -1.
         -4    1    5    5    0  503  0.51758208610E+02  0.22954273102E+02  0.37069974975E+02  0.67675651876E+02  0.00000000000E+00 0.  1.
         -3    1    6    6    0  502  0.25438045231E+02  0.36735358718E+03  0.75798403851E+01  0.36831128973E+03  0.00000000000E+00 0.  1.
<mgrwt>
<rscale>  0 0.33988424E+04</rscale>
<asrwt>0</asrwt>
<pdfrwt beam="1">  1        2 0.19937021E+00 0.33988424E+04</pdfrwt>
<pdfrwt beam="2">  1       -2 0.34285863E+00 0.33988424E+04</pdfrwt>
<totfact> 0.23753514E-01</totfact>
</mgrwt>
</event>
<event>
12    1  0.2145756E-007  0.2322966E+04  0.7818608E-02  0.8468921E-01
         -2   -1    0    0    0  501 -0.00000000000E+00  0.00000000000E+00  0.99462528589E+03  0.99462528589E+03  0.00000000000E+00 0. -1.
          2   -1    0    0  501    0  0.00000000000E+00 -0.00000000000E+00 -0.13563322135E+04  0.13563322135E+04  0.00000000000E+00 0.  1.
         23    2    1    2    0    0 -0.96849584995E+03 -0.16493033595E+03 -0.84995221092E+02  0.98910859682E+03  0.76976630309E+02 0.  0.
        254    2    1    2    0    0  0.96849584995E+03  0.16493033595E+03 -0.27671170651E+03  0.13618489026E+04  0.90159682664E+03 0.  0.
        -24    2    4    4    0    0  0.10510392385E+04 -0.66171895621E+02 -0.12960897100E+03  0.10642307018E+04  0.82014027086E+02 0.  0.
         24    2    4    4    0    0 -0.82543388528E+02  0.23110223157E+03 -0.14710273552E+03  0.29761820079E+03  0.81949534602E+02 0.  0.
         13    1    3    3    0    0 -0.51747336420E+03 -0.57057062896E+02 -0.68238705767E+02  0.52506257918E+03  0.00000000000E+00 0. -1.
        -13    1    3    3    0    0 -0.45102248575E+03 -0.10787327305E+03 -0.16756515326E+02  0.46404601765E+03  0.00000000000E+00 0.  1.
          2    1    6    6  502    0 -0.18502074436E+02  0.16445925551E+03 -0.83044452718E+02  0.18516358878E+03  0.00000000000E+00 0. -1.
          3    1    5    5  503    0  0.55898668194E+03 -0.76142709131E+02 -0.71094577164E+02  0.56861081738E+03  0.00000000000E+00 0. -1.
         -2    1    5    5    0  503  0.49205255654E+03  0.99708135097E+01 -0.58514393833E+02  0.49561988440E+03  0.00000000000E+00 0.  1.
         -1    1    6    6    0  502 -0.64041314092E+02  0.66642976054E+02 -0.64058282798E+02  0.11245461201E+03  0.00000000000E+00 0.  1.
<mgrwt>
<rscale>  0 0.23229656E+04</rscale>
<asrwt>0</asrwt>
<pdfrwt beam="1">  1        2 0.20866650E+00 0.23229656E+04</pdfrwt>
<pdfrwt beam="2">  1       -2 0.15301927E+00 0.23229656E+04</pdfrwt>
<totfact> 0.39427874E+00</totfact>
</mgrwt>
</event>
<event>
12    1  0.1980523E-007  0.2267151E+04  0.7818608E-02  0.8490987E-01
         -1   -1    0    0    0  501 -0.00000000000E+00  0.00000000000E+00  0.48722386411E+03  0.48722386411E+03  0.00000000000E+00 0.  1.
          1   -1    0    0  501    0  0.00000000000E+00 -0.00000000000E+00 -0.26373775258E+04  0.26373775258E+04  0.00000000000E+00 0. -1.
         23    2    1    2    0    0  0.66728739877E+03  0.35175657198E+03 -0.17084625276E+04  0.18698174336E+04  0.91476054283E+02 0.  0.
        254    2    1    2    0    0 -0.66728739877E+03 -0.35175657198E+03 -0.44169113413E+03  0.12547839563E+04  0.90021473023E+03 0.  0.
        -24    2    4    4    0    0  0.18879519498E+03 -0.37997594891E+02  0.51943719450E+02  0.21489780624E+03  0.79971709177E+02 0.  0.
         24    2    4    4    0    0 -0.85608259376E+03 -0.31375897709E+03 -0.49363485358E+03  0.10398861501E+04  0.79785546192E+02 0.  0.
         11    1    3    3    0    0  0.49562183384E+03  0.30341143262E+03 -0.13321426044E+04  0.14533765576E+04  0.00000000000E+00 0. -1.
        -11    1    3    3    0    0  0.17166556494E+03  0.48345139358E+02 -0.37631992321E+03  0.41644087610E+03  0.00000000000E+00 0.  1.
          2    1    6    6  502    0 -0.22244371298E+03 -0.90060047910E+02 -0.91838314518E+02  0.25695582049E+03  0.00000000000E+00 0. -1.
          1    1    5    5  503    0  0.19007080953E+03 -0.35254253372E+02  0.33483149452E+02  0.19619096899E+03  0.00000000000E+00 0. -1.
         -2    1    5    5    0  503 -0.12756145447E+01 -0.27433415189E+01  0.18460569999E+02  0.18706837248E+02  0.00000000000E+00 0.  1.
         -1    1    6    6    0  502 -0.63363888078E+03 -0.22369892918E+03 -0.40179653906E+03  0.78293032957E+03  0.00000000000E+00 0.  1.
<mgrwt>
<rscale>  0 0.22671509E+04</rscale>
<asrwt>0</asrwt>
<pdfrwt beam="1">  1        1 0.40575039E+00 0.22671509E+04</pdfrwt>
<pdfrwt beam="2">  1       -1 0.74957518E-01 0.22671509E+04</pdfrwt>
<totfact> 0.17626653E+00</totfact>
</mgrwt>
</event>
<event>
12    1  0.1980523E-007  0.2298766E+04  0.7818608E-02  0.8478408E-01
         -2   -1    0    0    0  501 -0.00000000000E+00  0.00000000000E+00  0.21928549962E+04  0.21928549962E+04  0.00000000000E+00 0.  1.
          2   -1    0    0  501    0  0.00000000000E+00 -0.00000000000E+00 -0.60244791955E+03  0.60244791955E+03  0.00000000000E+00 0. -1.
         23    2    1    2    0    0  0.68978148560E+03 -0.66456973807E+03  0.86508122406E+03  0.12938717964E+04  0.91034425272E+02 0.  0.
        254    2    1    2    0    0 -0.68978148560E+03  0.66456973807E+03  0.72532585263E+03  0.15014311194E+04  0.90041455964E+03 0.  0.
        -24    2    4    4    0    0 -0.34417361233E+03  0.74256757541E+02 -0.14709536926E+03  0.39008667027E+03  0.81000130883E+02 0.  0.
         24    2    4    4    0    0 -0.34560787327E+03  0.59031298053E+03  0.87242122189E+03  0.11113444491E+04  0.77804107719E+02 0.  0.
         13    1    3    3    0    0  0.38374151504E+03 -0.30897951437E+03  0.45998587426E+03  0.67402736976E+03  0.00000000000E+00 0. -1.
        -13    1    3    3    0    0  0.30603997056E+03 -0.35559022370E+03  0.40509534980E+03  0.61984442661E+03  0.00000000000E+00 0.  1.
          2    1    6    6  502    0 -0.11123008538E+03  0.12566159422E+03  0.20086572386E+03  0.26174416360E+03  0.00000000000E+00 0. -1.
          1    1    5    5  503    0 -0.17517030905E+03  0.71228702876E+02 -0.10330320685E+03  0.21547556203E+03  0.00000000000E+00 0. -1.
         -2    1    5    5    0  503 -0.16900330328E+03  0.30280546647E+01 -0.43792162412E+02  0.17461110824E+03  0.00000000000E+00 0.  1.
         -1    1    6    6    0  502 -0.23437778789E+03  0.46465138631E+03  0.67155549803E+03  0.84960028554E+03  0.00000000000E+00 0.  1.
<mgrwt>
<rscale>  0 0.22987657E+04</rscale>
<asrwt>0</asrwt>
<pdfrwt beam="1">  1        2 0.92684296E-01 0.22987657E+04</pdfrwt>
<pdfrwt beam="2">  1       -2 0.33736230E+00 0.22987657E+04</pdfrwt>
<totfact> 0.83652892E-01</totfact>
</mgrwt>
</event>
<event>
12    1  0.1980523E-007  0.1357722E+04  0.7818608E-02  0.8985003E-01
         -2   -1    0    0    0  501 -0.00000000000E+00  0.00000000000E+00  0.44808201227E+03  0.44808201227E+03  0.00000000000E+00 0. -1.
          2   -1    0    0  501    0  0.00000000000E+00 -0.00000000000E+00 -0.10285000806E+04  0.10285000806E+04  0.00000000000E+00 0.  1.
         23    2    1    2    0    0 -0.12800640057E+03 -0.22767656574E+03 -0.45394806111E+03  0.53160061229E+03  0.91148843290E+02 0.  0.
        254    2    1    2    0    0  0.12800640057E+03  0.22767656574E+03 -0.12647000720E+03  0.94498148056E+03  0.89931811875E+03 0.  0.
        -24    2    4    4    0    0  0.14848816439E+03 -0.20981938367E+03 -0.35409704920E+03  0.44473994554E+03  0.79598933287E+02 0.  0.
         24    2    4    4    0    0 -0.20481763816E+02  0.43749594941E+03  0.22762704200E+03  0.50024153501E+03  0.81273087219E+02 0.  0.
         11    1    3    3    0    0 -0.60404681163E+02 -0.18003814314E+03 -0.35536368421E+03  0.40292158858E+03  0.00000000000E+00 0.  1.
        -11    1    3    3    0    0 -0.67601719407E+02 -0.47638422599E+02 -0.98584376902E+02  0.12867902371E+03  0.00000000000E+00 0. -1.
          4    1    6    6  502    0 -0.12773480100E+02  0.10597850935E+03  0.95671531179E+02  0.14334450849E+03  0.00000000000E+00 0. -1.
          1    1    5    5  503    0  0.19834799286E+02  0.33304537764E+01 -0.25489634402E+02  0.32468948967E+02  0.00000000000E+00 0. -1.
         -2    1    5    5    0  503  0.12865336510E+03 -0.21314983745E+03 -0.32860741480E+03  0.41227099658E+03  0.00000000000E+00 0.  1.
         -3    1    6    6    0  502 -0.77082837162E+01  0.33151744006E+03  0.13195551082E+03  0.35689702652E+03  0.00000000000E+00 0.  1.
<mgrwt>
<rscale>  0 0.13577222E+04</rscale>
<asrwt>0</asrwt>
<pdfrwt beam="1">  1        2 0.15823078E+00 0.13577222E+04</pdfrwt>
<pdfrwt beam="2">  1       -2 0.68935695E-01 0.13577222E+04</pdfrwt>
<totfact> 0.45332446E+01</totfact>
</mgrwt>
</event>
<event>
12    1  0.1980523E-007  0.1222901E+04  0.7818608E-02  0.9093044E-01
          1   -1    0    0  501    0  0.00000000000E+00  0.00000000000E+00  0.11476030074E+04  0.11476030074E+04  0.00000000000E+00 0. -1.
         -1   -1    0    0    0  501 -0.00000000000E+00 -0.00000000000E+00 -0.32578474404E+03  0.32578474404E+03  0.00000000000E+00 0.  1.
         23    2    1    2    0    0  0.55625378841E+02 -0.17972995224E+03 -0.29172527809E+02  0.21070925751E+03  0.90279102320E+02 0.  0.
        254    2    1    2    0    0 -0.55625378841E+02  0.17972995224E+03  0.85099079120E+03  0.12626784940E+04  0.91366001002E+03 0.  0.
        -24    2    4    4    0    0  0.30030679939E+03 -0.42858385790E+02  0.44392615495E+01  0.31444649261E+03  0.82679348586E+02 0.  0.
         24    2    4    4    0    0 -0.35593217823E+03  0.22258833803E+03  0.84655152965E+03  0.94823200135E+03  0.79127443394E+02 0.  0.
         11    1    3    3    0    0  0.28198865445E+02 -0.10078863597E+03  0.29336950247E+02  0.10869306235E+03  0.00000000000E+00 0. -1.
        -11    1    3    3    0    0  0.27426513396E+02 -0.78941316275E+02 -0.58509478056E+02  0.10201619516E+03  0.00000000000E+00 0.  1.
          2    1    6    6  502    0 -0.38352484262E+02  0.44181803969E+00  0.57222087732E+02  0.68887412324E+02  0.00000000000E+00 0. -1.
          1    1    5    5  503    0  0.35764693341E+02 -0.34526435377E+02  0.23088620919E+01  0.49764634770E+02  0.00000000000E+00 0. -1.
         -2    1    5    5    0  503  0.26454210605E+03 -0.83319504127E+01  0.21303994576E+01  0.26468185784E+03  0.00000000000E+00 0.  1.
         -1    1    6    6    0  502 -0.31757969397E+03  0.22214651999E+03  0.78932944192E+03  0.87934458903E+03  0.00000000000E+00 0.  1.
<mgrwt>
<rscale>  0 0.12229007E+04</rscale>
<asrwt>0</asrwt>
<pdfrwt beam="1">  1        1 0.17655431E+00 0.12229007E+04</pdfrwt>
<pdfrwt beam="2">  1       -1 0.50120730E-01 0.12229007E+04</pdfrwt>
<totfact> 0.46099555E+01</totfact>
</mgrwt>
</event>
<event>
12    1  0.1980523E-007  0.2239128E+04  0.7818608E-02  0.8502316E-01
         -1   -1    0    0    0  501 -0.00000000000E+00  0.00000000000E+00  0.56997746258E+03  0.56997746258E+03  0.00000000000E+00 0.  1.
          1   -1    0    0  501    0  0.00000000000E+00 -0.00000000000E+00 -0.21990764043E+04  0.21990764043E+04  0.00000000000E+00 0. -1.
         23    2    1    2    0    0 -0.82752595633E+03  0.43231077004E+03 -0.75848559663E+03  0.12069430776E+04  0.98586926151E+02 0.  0.
        254    2    1    2    0    0  0.82752595633E+03 -0.43231077004E+03 -0.87061334513E+03  0.15621107893E+04  0.90029479118E+03 0.  0.
        -24    2    4    4    0    0  0.88906941532E+03 -0.31560795526E+03 -0.98787246498E+03  0.13684006205E+04  0.81089113773E+02 0.  0.
         24    2    4    4    0    0 -0.61543458986E+02 -0.11670281478E+03  0.11725911985E+03  0.19371016882E+03  0.79792129902E+02 0.  0.
         13    1    3    3    0    0 -0.63135137206E+03  0.32744003045E+03 -0.52155406023E+03  0.88195247394E+03  0.00000000000E+00 0.  1.
        -13    1    3    3    0    0 -0.19617458427E+03  0.10487073960E+03 -0.23693153640E+03  0.32499060368E+03  0.00000000000E+00 0. -1.
          2    1    6    6  502    0 -0.45284906533E+02 -0.89634162133E+02  0.36253053149E+02  0.10676745592E+03  0.00000000000E+00 0. -1.
          1    1    5    5  503    0  0.67868969204E+03 -0.20823769894E+03 -0.76506943649E+03  0.10437020073E+04  0.00000000000E+00 0. -1.
         -2    1    5    5    0  503  0.21037972328E+03 -0.10737025632E+03 -0.22280302849E+03  0.32469861320E+03  0.00000000000E+00 0.  1.
         -1    1    6    6    0  502 -0.16258552453E+02 -0.27068652652E+02  0.81006066703E+02  0.86942712904E+02  0.00000000000E+00 0.  1.
<mgrwt>
<rscale>  0 0.22391284E+04</rscale>
<asrwt>0</asrwt>
<pdfrwt beam="1">  1        1 0.33831944E+00 0.22391284E+04</pdfrwt>
<pdfrwt beam="2">  1       -1 0.87688841E-01 0.22391284E+04</pdfrwt>
<totfact> 0.25352673E+00</totfact>
</mgrwt>
</event>
<event>
12    1  0.1980523E-007  0.2262373E+04  0.7818608E-02  0.8492907E-01
          2   -1    0    0  501    0  0.00000000000E+00  0.00000000000E+00  0.12144463419E+04  0.12144463419E+04  0.00000000000E+00 0. -1.
         -2   -1    0    0    0  501 -0.00000000000E+00 -0.00000000000E+00 -0.10536343780E+04  0.10536343780E+04  0.00000000000E+00 0.  1.
         23    2    1    2    0    0  0.32037254116E+03 -0.88862037151E+03  0.68495343020E+00  0.95049508192E+03  0.10562055580E+03 0.  0.
        254    2    1    2    0    0 -0.32037254116E+03  0.88862037151E+03  0.16012701055E+03  0.13175856380E+04  0.90449241243E+03 0.  0.
        -24    2    4    4    0    0  0.88170975556E+02 -0.33275193284E+02 -0.20743213822E+03  0.24150483063E+03  0.80094518123E+02 0.  0.
         24    2    4    4    0    0 -0.40854351671E+03  0.92189556480E+03  0.36755914878E+03  0.10760808074E+04  0.77787779731E+02 0.  0.
         13    1    3    3    0    0  0.26391090236E+03 -0.59440163753E+03  0.15520013988E+02  0.65054065355E+03  0.00000000000E+00 0. -1.
        -13    1    3    3    0    0  0.56461638796E+02 -0.29421873398E+03 -0.14835060557E+02  0.29995442837E+03  0.00000000000E+00 0.  1.
          4    1    6    6  502    0 -0.19254285514E+03  0.52979456590E+03  0.20614740318E+03  0.60020978412E+03  0.00000000000E+00 0. -1.
          1    1    5    5  503    0  0.88049068810E+02 -0.28798140491E+02 -0.21420846945E+03  0.23338217541E+03  0.00000000000E+00 0. -1.
         -2    1    5    5    0  503  0.12190674600E+00 -0.44770527927E+01  0.67763312292E+01  0.81226552242E+01  0.00000000000E+00 0.  1.
         -1    1    6    6    0  502 -0.21600066157E+03  0.39210099890E+03  0.16141174560E+03  0.47587102324E+03  0.00000000000E+00 0.  1.
<mgrwt>
<rscale>  0 0.22623726E+04</rscale>
<asrwt>0</asrwt>
<pdfrwt beam="1">  1        2 0.18683790E+00 0.22623726E+04</pdfrwt>
<pdfrwt beam="2">  1       -2 0.16209760E+00 0.22623726E+04</pdfrwt>
<totfact> 0.41049534E+00</totfact>
</mgrwt>
</event>
<event>
12    1  0.1980523E-007  0.3590310E+04  0.7818608E-02  0.8092715E-01
         -2   -1    0    0    0  501 -0.00000000000E+00  0.00000000000E+00  0.97101072667E+03  0.97101072667E+03  0.00000000000E+00 0.  1.
          2   -1    0    0  501    0  0.00000000000E+00 -0.00000000000E+00 -0.33187917195E+04  0.33187917195E+04  0.00000000000E+00 0. -1.
         23    2    1    2    0    0  0.14007743876E+04 -0.91237055980E+03 -0.89715410773E+03  0.18993881007E+04  0.90557940974E+02 0.  0.
        254    2    1    2    0    0 -0.14007743876E+04  0.91237055980E+03 -0.14506268851E+04  0.23904143455E+04  0.90286956968E+03 0.  0.
        -24    2    4    4    0    0 -0.18163549172E+03 -0.17216925259E+03 -0.16789361076E+03  0.31326265340E+03  0.85507438799E+02 0.  0.
         24    2    4    4    0    0 -0.12191388959E+04  0.10845398124E+04 -0.12827332743E+04  0.20771516921E+04  0.81414044398E+02 0.  0.
         13    1    3    3    0    0  0.47238371705E+03 -0.35933543719E+03 -0.31624396086E+03  0.67251659856E+03  0.00000000000E+00 0.  1.
        -13    1    3    3    0    0  0.92839067057E+03 -0.55303512261E+03 -0.58091014687E+03  0.12268715021E+04  0.00000000000E+00 0. -1.
          4    1    6    6  502    0 -0.62518262334E+03  0.60450748025E+03 -0.70657445631E+03  0.11205043813E+04  0.00000000000E+00 0. -1.
          3    1    5    5  503    0 -0.71099337734E+02 -0.19330722775E+02 -0.29727557526E+02  0.79451370949E+02  0.00000000000E+00 0. -1.
         -4    1    5    5    0  503 -0.11053615398E+03 -0.15283852981E+03 -0.13816605323E+03  0.23381128245E+03  0.00000000000E+00 0.  1.
         -3    1    6    6    0  502 -0.59395627256E+03  0.48003233214E+03 -0.57615881803E+03  0.95664731078E+03  0.00000000000E+00 0.  1.
<mgrwt>
<rscale>  0 0.35903105E+04</rscale>
<asrwt>0</asrwt>
<pdfrwt beam="1">  1        2 0.51058334E+00 0.35903105E+04</pdfrwt>
<pdfrwt beam="2">  1       -2 0.14938627E+00 0.35903105E+04</pdfrwt>
<totfact> 0.26699609E-01</totfact>
</mgrwt>
</event>
<event>
12    1  0.1980523E-007  0.2110045E+04  0.7818608E-02  0.8556831E-01
          2   -1    0    0  501    0  0.00000000000E+00  0.00000000000E+00  0.31693394519E+04  0.31693394519E+04  0.00000000000E+00 0. -1.
         -2   -1    0    0    0  501 -0.00000000000E+00 -0.00000000000E+00 -0.35120008792E+03  0.35120008792E+03  0.00000000000E+00 0.  1.
         23    2    1    2    0    0  0.80083883452E+03  0.31194566967E+03  0.12063561407E+04  0.14839930520E+04  0.91034610760E+02 0.  0.
        254    2    1    2    0    0 -0.80083883452E+03 -0.31194566967E+03  0.16117832233E+04  0.20365464879E+04  0.90056843089E+03 0.  0.
        -24    2    4    4    0    0 -0.46263844068E+03 -0.15923066164E+03  0.13758730929E+03  0.51458456463E+03  0.80487738689E+02 0.  0.
         24    2    4    4    0    0 -0.33820039385E+03 -0.15271500803E+03  0.14741959140E+04  0.15219619232E+04  0.73573928122E+02 0.  0.
         11    1    3    3    0    0  0.17920688585E+03  0.77059271959E+02  0.21272131734E+03  0.28862362720E+03  0.00000000000E+00 0.  1.
        -11    1    3    3    0    0  0.62163194867E+03  0.23488639771E+03  0.99363482339E+03  0.11953694248E+04  0.00000000000E+00 0. -1.
          2    1    6    6  502    0 -0.10530909294E+03 -0.83695945959E+02  0.57621784045E+03  0.59171109173E+03  0.00000000000E+00 0. -1.
          3    1    5    5  503    0 -0.59002491476E+02 -0.82735849315E+01  0.42754118732E+02  0.73332536275E+02  0.00000000000E+00 0. -1.
         -4    1    5    5    0  503 -0.40363594920E+03 -0.15095707671E+03  0.94833190557E+02  0.44125202836E+03  0.00000000000E+00 0.  1.
         -1    1    6    6    0  502 -0.23289130090E+03 -0.69019062066E+02  0.89797807352E+03  0.93025083149E+03  0.00000000000E+00 0.  1.
<mgrwt>
<rscale>  0 0.21100448E+04</rscale>
<asrwt>0</asrwt>
<pdfrwt beam="1">  1        2 0.48759067E+00 0.21100448E+04</pdfrwt>
<pdfrwt beam="2">  1       -2 0.54030785E-01 0.21100448E+04</pdfrwt>
<totfact> 0.40432375E+00</totfact>
</mgrwt>
</event>
<event>
12    1  0.1980523E-007  0.1728597E+04  0.7818608E-02  0.8745220E-01
          1   -1    0    0  501    0  0.00000000000E+00  0.00000000000E+00  0.17030731332E+04  0.17030731332E+04  0.00000000000E+00 0. -1.
         -1   -1    0    0    0  501 -0.00000000000E+00 -0.00000000000E+00 -0.43862603458E+03  0.43862603458E+03  0.00000000000E+00 0.  1.
         23    2    1    2    0    0 -0.37632224967E+03  0.19586367853E+03 -0.10631241033E+03  0.44637093310E+03  0.89239370020E+02 0.  0.
        254    2    1    2    0    0  0.37632224967E+03 -0.19586367853E+03  0.13707595090E+04  0.16953282347E+04  0.90287051995E+03 0.  0.
        -24    2    4    4    0    0  0.53464065936E+03 -0.20311435417E+03  0.38588433541E+03  0.69461569998E+03  0.80549207504E+02 0.  0.
         24    2    4    4    0    0 -0.15831840970E+03  0.72506756314E+01  0.98487517354E+03  0.10007125347E+04  0.79556134430E+02 0.  0.
         11    1    3    3    0    0 -0.41378162584E+02  0.44611332482E+02  0.82818211620E+01  0.61407751029E+02  0.00000000000E+00 0. -1.
        -11    1    3    3    0    0 -0.33494408708E+03  0.15125234605E+03 -0.11459423149E+03  0.38496318207E+03  0.00000000000E+00 0.  1.
          2    1    6    6  502    0 -0.73799194863E+02 -0.11702817982E+02  0.25519745544E+03  0.26591167401E+03  0.00000000000E+00 0. -1.
          1    1    5    5  503    0  0.32153941695E+03 -0.13754086805E+03  0.19095664438E+03  0.39845894025E+03  0.00000000000E+00 0. -1.
         -2    1    5    5    0  503  0.21310124242E+03 -0.65573486115E+02  0.19492769103E+03  0.29615675973E+03  0.00000000000E+00 0.  1.
         -1    1    6    6    0  502 -0.84519214834E+02  0.18953493614E+02  0.72967771810E+03  0.73480086070E+03  0.00000000000E+00 0.  1.
<mgrwt>
<rscale>  0 0.17285974E+04</rscale>
<asrwt>0</asrwt>
<pdfrwt beam="1">  1        1 0.26201125E+00 0.17285974E+04</pdfrwt>
<pdfrwt beam="2">  1       -1 0.67480929E-01 0.17285974E+04</pdfrwt>
<totfact> 0.10013869E+01</totfact>
</mgrwt>
</event>
<event>
12    1  0.1980523E-007  0.2015957E+04  0.7818608E-02  0.8599196E-01
          1   -1    0    0  501    0  0.00000000000E+00  0.00000000000E+00  0.16410486331E+04  0.16410486331E+04  0.00000000000E+00 0. -1.
         -1   -1    0    0    0  501 -0.00000000000E+00 -0.00000000000E+00 -0.61912906120E+03  0.61912906120E+03  0.00000000000E+00 0.  1.
         23    2    1    2    0    0  0.17519976358E+03  0.75046330489E+03  0.66939972396E+03  0.10248135487E+04  0.90866330946E+02 0.  0.
        254    2    1    2    0    0 -0.17519976358E+03 -0.75046330489E+03  0.35251984793E+03  0.12353641456E+04  0.89886828834E+03 0.  0.
        -24    2    4    4    0    0 -0.43161735799E+03 -0.10753421522E+03 -0.37043276819E+01  0.45270583925E+03  0.84093422419E+02 0.  0.
         24    2    4    4    0    0  0.25641759440E+03 -0.64292908967E+03  0.35622417561E+03  0.78265830630E+03  0.80935554984E+02 0.  0.
         11    1    3    3    0    0  0.97633293197E+02  0.58269259354E+03  0.49696550410E+03  0.77203473418E+03  0.00000000000E+00 0. -1.
        -11    1    3    3    0    0  0.77566470384E+02  0.16777071135E+03  0.17243421986E+03  0.25277881457E+03  0.00000000000E+00 0.  1.
          4    1    6    6  502    0  0.73932008115E+02 -0.22499458891E+03  0.16227312186E+03  0.28709070507E+03  0.00000000000E+00 0. -1.
          3    1    5    5  503    0 -0.31587171458E+02 -0.32363840239E+02 -0.63394116093E+01  0.45665694951E+02  0.00000000000E+00 0. -1.
         -4    1    5    5    0  503 -0.40003018653E+03 -0.75170374984E+02  0.26350839274E+01  0.40704014430E+03  0.00000000000E+00 0.  1.
         -3    1    6    6    0  502  0.18248558629E+03 -0.41793450076E+03  0.19395105375E+03  0.49556760122E+03  0.00000000000E+00 0.  1.
<mgrwt>
<rscale>  0 0.20159572E+04</rscale>
<asrwt>0</asrwt>
<pdfrwt beam="1">  1        1 0.25246902E+00 0.20159572E+04</pdfrwt>
<pdfrwt beam="2">  1       -1 0.95250625E-01 0.20159572E+04</pdfrwt>
<totfact> 0.51563457E+00</totfact>
</mgrwt>
</event>
<event>
12    1  0.1980523E-007  0.2742859E+04  0.7818608E-02  0.8321231E-01
         -2   -1    0    0    0  501 -0.00000000000E+00  0.00000000000E+00  0.58786791565E+03  0.58786791565E+03  0.00000000000E+00 0.  1.
          2   -1    0    0  501    0  0.00000000000E+00 -0.00000000000E+00 -0.31993910055E+04  0.31993910055E+04  0.00000000000E+00 0. -1.
         23    2    1    2    0    0  0.83103462799E+03  0.34905757603E+03 -0.27854820151E+02  0.90676622645E+03  0.94812204541E+02 0.  0.
        254    2    1    2    0    0 -0.83103462799E+03 -0.34905757603E+03 -0.25836682697E+04  0.28804926947E+04  0.89968699676E+03 0.  0.
        -24    2    4    4    0    0 -0.70678619424E+03 -0.53143542088E+03 -0.12918297951E+04  0.15674747047E+04  0.78628235769E+02 0.  0.
         24    2    4    4    0    0 -0.12424843375E+03  0.18237784486E+03 -0.12918384746E+04  0.13130179900E+04  0.80437839537E+02 0.  0.
         11    1    3    3    0    0  0.37989956008E+03  0.12969066402E+03 -0.50633456727E+02  0.40460732942E+03  0.00000000000E+00 0. -1.
        -11    1    3    3    0    0  0.45113506791E+03  0.21936691201E+03  0.22778636576E+02  0.50215889703E+03  0.00000000000E+00 0.  1.
          2    1    6    6  502    0 -0.80417839173E+01  0.74822128407E+02 -0.35448578588E+03  0.36238542132E+03  0.00000000000E+00 0. -1.
          3    1    5    5  503    0 -0.12847817878E+03 -0.11024607070E+03 -0.30114378700E+03  0.34546840518E+03  0.00000000000E+00 0. -1.
         -4    1    5    5    0  503 -0.57830801546E+03 -0.42118935018E+03 -0.99068600814E+03  0.12220062996E+04  0.00000000000E+00 0.  1.
         -1    1    6    6    0  502 -0.11620664983E+03  0.10755571645E+03 -0.93735268871E+03  0.95063256868E+03  0.00000000000E+00 0.  1.
<mgrwt>
<rscale>  0 0.27428593E+04</rscale>
<asrwt>0</asrwt>
<pdfrwt beam="1">  1        2 0.49221400E+00 0.27428593E+04</pdfrwt>
<pdfrwt beam="2">  1       -2 0.90441218E-01 0.27428593E+04</pdfrwt>
<totfact> 0.11853869E+00</totfact>
</mgrwt>
</event>
<event>
12    1  0.1980523E-007  0.2501643E+04  0.7818608E-02  0.8402400E-01
         -1   -1    0    0    0  501 -0.00000000000E+00  0.00000000000E+00  0.10596532568E+04  0.10596532568E+04  0.00000000000E+00 0.  1.
          1   -1    0    0  501    0  0.00000000000E+00 -0.00000000000E+00 -0.14764778746E+04  0.14764778746E+04  0.00000000000E+00 0. -1.
         23    2    1    2    0    0 -0.10067181018E+04  0.40413226108E+03 -0.23835874038E+03  0.11145987959E+04  0.93334697585E+02 0.  0.
        254    2    1    2    0    0  0.10067181018E+04 -0.40413226108E+03 -0.17846587738E+03  0.14215323355E+04  0.90116585073E+03 0.  0.
        -24    2    4    4    0    0  0.15932178641E+03 -0.17022098638E+03  0.32387768864E+03  0.40606465702E+03  0.75054198139E+02 0.  0.
         24    2    4    4    0    0  0.84739631537E+03 -0.23391127470E+03 -0.50234356602E+03  0.10154676785E+04  0.77656602539E+02 0.  0.
         11    1    3    3    0    0 -0.50331651072E+03  0.17047218445E+03 -0.79438177889E+02  0.53730689531E+03  0.00000000000E+00 0.  1.
        -11    1    3    3    0    0 -0.50340159105E+03  0.23366007663E+03 -0.15892056249E+03  0.57729190058E+03  0.00000000000E+00 0. -1.
          2    1    6    6  502    0  0.30674040027E+03 -0.12325010937E+03 -0.18198206982E+03  0.37735624595E+03  0.00000000000E+00 0. -1.
          1    1    5    5  503    0  0.23562206736E+02 -0.57682909405E+02  0.12892055697E+03  0.14318870637E+03  0.00000000000E+00 0. -1.
         -2    1    5    5    0  503  0.13575957967E+03 -0.11253807698E+03  0.19495713167E+03  0.26287595065E+03  0.00000000000E+00 0.  1.
         -1    1    6    6    0  502  0.54065591510E+03 -0.11066116533E+03 -0.32036149621E+03  0.63811143251E+03  0.00000000000E+00 0.  1.
<mgrwt>
<rscale>  0 0.25016431E+04</rscale>
<asrwt>0</asrwt>
<pdfrwt beam="1">  1        1 0.22715044E+00 0.25016431E+04</pdfrwt>
<pdfrwt beam="2">  1       -1 0.16302358E+00 0.25016431E+04</pdfrwt>
<totfact> 0.16731012E+00</totfact>
</mgrwt>
</event>
<event>
12    1  0.1980523E-007  0.2190800E+04  0.7818608E-02  0.8522267E-01
          1   -1    0    0  501    0  0.00000000000E+00  0.00000000000E+00  0.27333170052E+04  0.27333170052E+04  0.00000000000E+00 0. -1.
         -1   -1    0    0    0  501 -0.00000000000E+00 -0.00000000000E+00 -0.43899076339E+03  0.43899076339E+03  0.00000000000E+00 0.  1.
         23    2    1    2    0    0  0.42676120909E+03  0.79977708025E+03  0.10444909031E+04  0.13860266437E+04  0.91324162394E+02 0.  0.
        254    2    1    2    0    0 -0.42676120909E+03 -0.79977708025E+03  0.12498353387E+04  0.17862811249E+04  0.89830027036E+03 0.  0.
        -24    2    4    4    0    0 -0.98199093904E+02  0.18286412380E+03  0.12725155881E+03  0.25646318076E+03  0.80610508303E+02 0.  0.
         24    2    4    4    0    0 -0.32856211518E+03 -0.98264120404E+03  0.11225837799E+04  0.15298179442E+04  0.81312975560E+02 0.  0.
         11    1    3    3    0    0  0.22743449038E+03  0.33989780066E+03  0.43855167727E+03  0.59965368000E+03  0.00000000000E+00 0.  1.
        -11    1    3    3    0    0  0.19932671871E+03  0.45987927959E+03  0.60593922587E+03  0.78637296370E+03  0.00000000000E+00 0. -1.
          2    1    6    6  502    0 -0.26179974882E+03 -0.67009520366E+03  0.79366716312E+03  0.10712022481E+04  0.00000000000E+00 0. -1.
          3    1    5    5  503    0 -0.32135297925E+02  0.11705664391E+03  0.10523303299E+03  0.16065156858E+03  0.00000000000E+00 0. -1.
         -4    1    5    5    0  503 -0.66063795979E+02  0.65807479892E+02  0.22018525822E+02  0.95811612179E+02  0.00000000000E+00 0.  1.
         -1    1    6    6    0  502 -0.66762366366E+02 -0.31254600039E+03  0.32891661678E+03  0.45861569610E+03  0.00000000000E+00 0.  1.
<mgrwt>
<rscale>  0 0.21907998E+04</rscale>
<asrwt>0</asrwt>
<pdfrwt beam="1">  1        1 0.42051030E+00 0.21907998E+04</pdfrwt>
<pdfrwt beam="2">  1       -1 0.67537043E-01 0.21907998E+04</pdfrwt>
<totfact> 0.18838548E+00</totfact>
</mgrwt>
</event>
<event>
12    1  0.1980523E-007  0.2792140E+04  0.7818608E-02  0.8305713E-01
          2   -1    0    0  501    0  0.00000000000E+00  0.00000000000E+00  0.23053449284E+04  0.23053449284E+04  0.00000000000E+00 0. -1.
         -2   -1    0    0    0  501 -0.00000000000E+00 -0.00000000000E+00 -0.84543151281E+03  0.84543151281E+03  0.00000000000E+00 0.  1.
         23    2    1    2    0    0 -0.11905119349E+04  0.19930303461E+03  0.10185276269E+04  0.15818931769E+04  0.89146674465E+02 0.  0.
        254    2    1    2    0    0  0.11905119349E+04 -0.19930303461E+03  0.44138578873E+03  0.15688832644E+04  0.89974047150E+03 0.  0.
        -24    2    4    4    0    0  0.56794823995E+03  0.34961441616E+03  0.20886616562E+03  0.70326557340E+03  0.78498078613E+02 0.  0.
         24    2    4    4    0    0  0.62256369493E+03 -0.54891745076E+03  0.23251962311E+03  0.86561769098E+03  0.79578199322E+02 0.  0.
         13    1    3    3    0    0 -0.62875108156E+03  0.14865325181E+03  0.55956283921E+03  0.85471415272E+03  0.00000000000E+00 0. -1.
        -13    1    3    3    0    0 -0.56176085333E+03  0.50649782796E+02  0.45896478769E+03  0.72717902415E+03  0.00000000000E+00 0.  1.
          4    1    6    6  502    0  0.49259198536E+02 -0.51268002232E+02  0.43230099449E+02  0.83208882889E+02  0.00000000000E+00 0. -1.
          1    1    5    5  503    0  0.30812717932E+02  0.16865493586E+02  0.31018270356E+02  0.46861514659E+02  0.00000000000E+00 0. -1.
         -2    1    5    5    0  503  0.53713552202E+03  0.33274892257E+03  0.17784789526E+03  0.65640405874E+03  0.00000000000E+00 0.  1.
         -3    1    6    6    0  502  0.57330449639E+03 -0.49764944853E+03  0.18928952366E+03  0.78240880809E+03  0.00000000000E+00 0.  1.
<mgrwt>
<rscale>  0 0.27921399E+04</rscale>
<asrwt>0</asrwt>
<pdfrwt beam="1">  1        2 0.35466845E+00 0.27921399E+04</pdfrwt>
<pdfrwt beam="2">  1       -2 0.13006639E+00 0.27921399E+04</pdfrwt>
<totfact> 0.17000542E+00</totfact>
</mgrwt>
</event>
<event>
12    1  0.1980523E-007  0.1401781E+04  0.7818608E-02  0.8952530E-01
          1   -1    0    0  501    0  0.00000000000E+00  0.00000000000E+00  0.19107861443E+04  0.19107861443E+04  0.00000000000E+00 0. -1.
         -1   -1    0    0    0  501 -0.00000000000E+00 -0.00000000000E+00 -0.25709189221E+03  0.25709189221E+03  0.00000000000E+00 0.  1.
         23    2    1    2    0    0  0.15560818808E+03  0.28970772865E+03  0.12032702294E+03  0.36169424323E+03  0.90551956907E+02 0.  0.
        254    2    1    2    0    0 -0.15560818808E+03 -0.28970772865E+03  0.15333672292E+04  0.18061837933E+04  0.89606939432E+03 0.  0.
        -24    2    4    4    0    0 -0.15122444627E+03  0.26395897689E+03  0.23657316009E+03  0.39376525176E+03  0.80876688773E+02 0.  0.
         24    2    4    4    0    0 -0.43837418066E+01 -0.55366670554E+03  0.12967940691E+04  0.14124185416E+04  0.81763322145E+02 0.  0.
         11    1    3    3    0    0  0.10955641172E+02  0.75898505177E+01 -0.12200493845E+02  0.18068866994E+02  0.00000000000E+00 0.  1.
        -11    1    3    3    0    0  0.14465254691E+03  0.28211787813E+03  0.13252751678E+03  0.34362537624E+03  0.00000000000E+00 0. -1.
          2    1    6    6  502    0  0.53499423353E+01 -0.11045487671E+03  0.18547200919E+03  0.21593695345E+03  0.00000000000E+00 0. -1.
          1    1    5    5  503    0  0.44851577170E+01 -0.29831553556E+00  0.14257017500E+02  0.14948852126E+02  0.00000000000E+00 0. -1.
         -2    1    5    5    0  503 -0.15570960399E+03  0.26425729243E+03  0.22231614259E+03  0.37881639963E+03  0.00000000000E+00 0.  1.
         -1    1    6    6    0  502 -0.97336841419E+01 -0.44321182883E+03  0.11113220599E+04  0.11964815881E+04  0.00000000000E+00 0.  1.
<mgrwt>
<rscale>  0 0.14017812E+04</rscale>
<asrwt>0</asrwt>
<pdfrwt beam="1">  1        1 0.29396709E+00 0.14017812E+04</pdfrwt>
<pdfrwt beam="2">  1       -1 0.39552600E-01 0.14017812E+04</pdfrwt>
<totfact> 0.20779911E+01</totfact>
</mgrwt>
</event>
<event>
12    1  0.1980523E-007  0.1788478E+04  0.7818608E-02  0.8712451E-01
          2   -1    0    0  501    0  0.00000000000E+00  0.00000000000E+00  0.17392309291E+04  0.17392309291E+04  0.00000000000E+00 0.  1.
         -2   -1    0    0    0  501 -0.00000000000E+00 -0.00000000000E+00 -0.45978002861E+03  0.45978002861E+03  0.00000000000E+00 0. -1.
         23    2    1    2    0    0 -0.28224727281E+03  0.39723529685E+03 -0.77611130118E+02  0.50164796362E+03  0.90375814313E+02 0.  0.
        254    2    1    2    0    0  0.28224727281E+03 -0.39723529685E+03  0.13570620306E+04  0.16973629941E+04  0.89552463658E+03 0.  0.
        -24    2    4    4    0    0  0.14846010370E+03 -0.13904314208E+03  0.13779673483E+04  0.13953245285E+04  0.82238245774E+02 0.  0.
         24    2    4    4    0    0  0.13378716911E+03 -0.25819215477E+03 -0.20905317655E+02  0.30203846564E+03  0.78917723083E+02 0.  0.
         11    1    3    3    0    0 -0.11031356020E+03  0.18791949382E+03 -0.75961420029E+02  0.23076601798E+03  0.00000000000E+00 0. -1.
        -11    1    3    3    0    0 -0.17193371261E+03  0.20931580303E+03 -0.16497100898E+01  0.27088194564E+03  0.00000000000E+00 0.  1.
          4    1    6    6  502    0 -0.40762312367E+01  0.31693315641E+01 -0.30712305822E+01  0.60077267704E+01  0.00000000000E+00 0. -1.
          3    1    5    5  503    0  0.67469873907E+02 -0.19202943714E+02  0.32616110630E+03  0.33361955008E+03  0.00000000000E+00 0. -1.
         -4    1    5    5    0  503  0.80990229789E+02 -0.11984019837E+03  0.10518062420E+04  0.10617049784E+04  0.00000000000E+00 0.  1.
         -3    1    6    6    0  502  0.13786340035E+03 -0.26136148633E+03 -0.17834087073E+02  0.29603073887E+03  0.00000000000E+00 0.  1.
<mgrwt>
<rscale>  0 0.17884783E+04</rscale>
<asrwt>0</asrwt>
<pdfrwt beam="1">  1        2 0.26757399E+00 0.17884783E+04</pdfrwt>
<pdfrwt beam="2">  1       -2 0.70735390E-01 0.17884783E+04</pdfrwt>
<totfact> 0.16009925E+01</totfact>
</mgrwt>
</event>
<event>
12    1  0.1980523E-007  0.1783523E+04  0.7818608E-02  0.8715111E-01
          2   -1    0    0  501    0  0.00000000000E+00  0.00000000000E+00  0.14383104108E+04  0.14383104108E+04  0.00000000000E+00 0. -1.
         -2   -1    0    0    0  501 -0.00000000000E+00 -0.00000000000E+00 -0.55289795963E+03  0.55289795963E+03  0.00000000000E+00 0.  1.
         23    2    1    2    0    0  0.35839497493E+02 -0.39683115888E+03  0.92079499730E+03  0.10062936610E+04  0.77485913492E+02 0.  0.
        254    2    1    2    0    0 -0.35839497493E+02  0.39683115888E+03 -0.35382546099E+02  0.98491470951E+03  0.90002534531E+03 0.  0.
        -24    2    4    4    0    0 -0.12601249355E+03  0.69979452408E+02  0.39678594077E+03  0.42966466478E+03  0.79977303514E+02 0.  0.
         24    2    4    4    0    0  0.90172996054E+02  0.32685170647E+03 -0.43216848687E+03  0.55525004473E+03  0.81054326780E+02 0.  0.
         13    1    3    3    0    0  0.50397531569E+02 -0.14289400438E+03  0.33732321291E+03  0.36979123521E+03  0.00000000000E+00 0. -1.
        -13    1    3    3    0    0 -0.14558034076E+02 -0.25393715450E+03  0.58347178439E+03  0.63650242574E+03  0.00000000000E+00 0.  1.
          4    1    6    6  502    0  0.53147382472E+02  0.21852607305E+03 -0.22248117485E+03  0.31634816584E+03  0.00000000000E+00 0. -1.
          1    1    5    5  503    0 -0.29998326444E+02 -0.26341155068E+00  0.17907334148E+03  0.18156880405E+03  0.00000000000E+00 0. -1.
         -2    1    5    5    0  503 -0.96014167103E+02  0.70242863959E+02  0.21771259929E+03  0.24809586073E+03  0.00000000000E+00 0.  1.
         -3    1    6    6    0  502  0.37025613581E+02  0.10832563343E+03 -0.20968731202E+03  0.23890187890E+03  0.00000000000E+00 0.  1.
<mgrwt>
<rscale>  0 0.17835234E+04</rscale>
<asrwt>0</asrwt>
<pdfrwt beam="1">  1        2 0.22127852E+00 0.17835234E+04</pdfrwt>
<pdfrwt beam="2">  1       -2 0.85061225E-01 0.17835234E+04</pdfrwt>
<totfact> 0.15646981E+01</totfact>
</mgrwt>
</event>
<event>
12    1  0.1980523E-007  0.1846348E+04  0.7818608E-02  0.8682033E-01
         -1   -1    0    0    0  501 -0.00000000000E+00  0.00000000000E+00  0.21679093081E+03  0.21679093081E+03  0.00000000000E+00 0.  1.
          1   -1    0    0  501    0  0.00000000000E+00 -0.00000000000E+00 -0.39312094217E+04  0.39312094217E+04  0.00000000000E+00 0. -1.
         23    2    1    2    0    0 -0.56651793275E+02 -0.59325867763E+03 -0.22487429739E+04  0.23281549965E+04  0.91079308830E+02 0.  0.
        254    2    1    2    0    0  0.56651793275E+02  0.59325867763E+03 -0.14656755170E+04  0.18198453560E+04  0.89914799374E+03 0.  0.
        -24    2    4    4    0    0  0.26806257780E+03  0.75217621161E+03 -0.10987909805E+04  0.13607734711E+04  0.82074489762E+02 0.  0.
         24    2    4    4    0    0 -0.21141078453E+03 -0.15891753398E+03 -0.36688453644E+03  0.45907188494E+03  0.78698348418E+02 0.  0.
         13    1    3    3    0    0 -0.32441649837E+02 -0.23392477567E+03 -0.72799790271E+03  0.76534580920E+03  0.00000000000E+00 0.  1.
        -13    1    3    3    0    0 -0.24210143437E+02 -0.35933390196E+03 -0.15207450712E+04  0.15628091873E+04  0.00000000000E+00 0. -1.
          2    1    6    6  502    0 -0.23213969983E+02  0.69906284081E+01 -0.23187403573E+02  0.33547175326E+02  0.00000000000E+00 0. -1.
          3    1    5    5  503    0  0.14350338856E+03  0.34881742006E+03 -0.45641577902E+03  0.59209980443E+03  0.00000000000E+00 0. -1.
         -4    1    5    5    0  503  0.12455918924E+03  0.40335879155E+03 -0.64237520149E+03  0.76867366667E+03  0.00000000000E+00 0.  1.
         -1    1    6    6    0  502 -0.18819681454E+03 -0.16590816239E+03 -0.34369713287E+03  0.42552470961E+03  0.00000000000E+00 0.  1.
<mgrwt>
<rscale>  0 0.18463483E+04</rscale>
<asrwt>0</asrwt>
<pdfrwt beam="1">  1        1 0.60480148E+00 0.18463483E+04</pdfrwt>
<pdfrwt beam="2">  1       -1 0.33352449E-01 0.18463483E+04</pdfrwt>
<totfact> 0.88474395E-01</totfact>
</mgrwt>
</event>
<event>
12    1  0.1980523E-007  0.1624058E+04  0.7818608E-02  0.8805903E-01
          2   -1    0    0  501    0  0.00000000000E+00  0.00000000000E+00  0.21263985200E+04  0.21263985200E+04  0.00000000000E+00 0. -1.
         -2   -1    0    0    0  501 -0.00000000000E+00 -0.00000000000E+00 -0.31009763120E+03  0.31009763120E+03  0.00000000000E+00 0.  1.
         23    2    1    2    0    0 -0.42157201935E+03  0.35128968823E+03  0.46253810313E+03  0.72045322568E+03  0.63118467918E+02 0.  0.
        254    2    1    2    0    0  0.42157201935E+03 -0.35128968823E+03  0.13537627857E+04  0.17160429255E+04  0.90055662222E+03 0.  0.
        -24    2    4    4    0    0  0.45347585267E+03 -0.23549494612E+03  0.20210329448E+03  0.55528792704E+03  0.80004510340E+02 0.  0.
         24    2    4    4    0    0 -0.31903833325E+02 -0.11579474211E+03  0.11516594912E+04  0.11607549985E+04  0.81279185320E+02 0.  0.
         13    1    3    3    0    0 -0.12937555051E+03  0.86329957865E+02  0.16189050082E+03  0.22449817138E+03  0.00000000000E+00 0. -1.
        -13    1    3    3    0    0 -0.29219646884E+03  0.26495973036E+03  0.30064760231E+03  0.49595505431E+03  0.00000000000E+00 0.  1.
          2    1    6    6  502    0 -0.11281932109E+02 -0.48522852808E+01  0.19904502471E+02  0.23388370682E+02  0.00000000000E+00 0. -1.
          3    1    5    5  503    0  0.13330881223E+03 -0.10285051382E+03  0.41979361397E+02  0.17352733039E+03  0.00000000000E+00 0. -1.
         -4    1    5    5    0  503  0.32016704045E+03 -0.13264443230E+03  0.16012393308E+03  0.38176059665E+03  0.00000000000E+00 0.  1.
         -1    1    6    6    0  502 -0.20621901217E+02 -0.11094245683E+03  0.11317549887E+04  0.11373666278E+04  0.00000000000E+00 0.  1.
<mgrwt>
<rscale>  0 0.16240581E+04</rscale>
<asrwt>0</asrwt>
<pdfrwt beam="1">  1        2 0.32713822E+00 0.16240581E+04</pdfrwt>
<pdfrwt beam="2">  1       -2 0.47707329E-01 0.16240581E+04</pdfrwt>
<totfact> 0.22643340E+01</totfact>
</mgrwt>
</event>
<event>
12    1  0.1980523E-007  0.1335337E+04  0.7818608E-02  0.9002003E-01
         -2   -1    0    0    0  501 -0.00000000000E+00  0.00000000000E+00  0.54384889213E+03  0.54384889213E+03  0.00000000000E+00 0.  1.
          2   -1    0    0  501    0  0.00000000000E+00 -0.00000000000E+00 -0.81967860910E+03  0.81967860910E+03  0.00000000000E+00 0. -1.
         23    2    1    2    0    0  0.21872326211E+03 -0.16104977125E+03 -0.31111224631E+03  0.42230002205E+03  0.88145247253E+02 0.  0.
        254    2    1    2    0    0 -0.21872326211E+03  0.16104977125E+03  0.35282529346E+02  0.94122747918E+03  0.90049287419E+03 0.  0.
        -24    2    4    4    0    0  0.28312357079E+03  0.21463721202E+03  0.18503801992E+03  0.40856425641E+03  0.80359154282E+02 0.  0.
         24    2    4    4    0    0 -0.50184683290E+03 -0.53587440775E+02 -0.14975549057E+03  0.53266322277E+03  0.81126718386E+02 0.  0.
         11    1    3    3    0    0  0.31933990845E+02 -0.65929058986E+01 -0.84152332644E+02  0.90248885139E+02  0.00000000000E+00 0. -1.
        -11    1    3    3    0    0  0.18678927126E+03 -0.15445686535E+03 -0.22695991367E+03  0.33205113691E+03  0.00000000000E+00 0.  1.
          4    1    6    6  502    0 -0.44336861684E+03 -0.57374050659E+02 -0.10581228426E+03  0.45941675153E+03  0.00000000000E+00 0. -1.
          3    1    5    5  503    0  0.14348819277E+03  0.14738010401E+03  0.76986117628E+02  0.21962836526E+03  0.00000000000E+00 0. -1.
         -4    1    5    5    0  503  0.13963537802E+03  0.67257108017E+02  0.10805190229E+03  0.18893589114E+03  0.00000000000E+00 0.  1.
         -3    1    6    6    0  502 -0.58478216061E+02  0.37866098833E+01 -0.43943206315E+02  0.73246471241E+02  0.00000000000E+00 0.  1.
<mgrwt>
<rscale>  0 0.13353371E+04</rscale>
<asrwt>0</asrwt>
<pdfrwt beam="1">  1        2 0.12610440E+00 0.13353371E+04</pdfrwt>
<pdfrwt beam="2">  1       -2 0.83669060E-01 0.13353371E+04</pdfrwt>
<totfact> 0.40733945E+01</totfact>
</mgrwt>
</event>
<event>
12    1  0.2185727E-007  0.2212289E+04  0.7818608E-02  0.8513330E-01
          1   -1    0    0  501    0  0.00000000000E+00  0.00000000000E+00  0.13784862359E+04  0.13784862359E+04  0.00000000000E+00 0. -1.
         -1   -1    0    0    0  501 -0.00000000000E+00 -0.00000000000E+00 -0.88760852813E+03  0.88760852813E+03  0.00000000000E+00 0.  1.
         23    2    1    2    0    0 -0.90773362479E+02  0.83444598996E+03 -0.18071530309E+03  0.86300005888E+03  0.87012455123E+02 0.  0.
        254    2    1    2    0    0  0.90773362479E+02 -0.83444598996E+03  0.67159301090E+03  0.14030947052E+04  0.90171928335E+03 0.  0.
        -24    2    4    4    0    0 -0.33360232179E+03 -0.64553718923E+02  0.17612938064E+03  0.39091188496E+03  0.79579214289E+02 0.  0.
         24    2    4    4    0    0  0.42437568427E+03 -0.76989227104E+03  0.49546363026E+03  0.10121828202E+04  0.78746569985E+02 0.  0.
         11    1    3    3    0    0 -0.20040188438E+02  0.49431538583E+03 -0.13335147231E+03  0.51237869295E+03  0.00000000000E+00 0.  1.
        -11    1    3    3    0    0 -0.70733174041E+02  0.34013060413E+03 -0.47363830780E+02  0.35062136593E+03  0.00000000000E+00 0. -1.
          2    1    6    6  502    0  0.59190941492E+02 -0.69216534147E+02  0.69370713024E+02  0.11448489848E+03  0.00000000000E+00 0. -1.
          1    1    5    5  503    0 -0.15768772863E+01 -0.65654562298E+01  0.16785926451E+02  0.18093067300E+02  0.00000000000E+00 0. -1.
         -4    1    5    5    0  503 -0.33202544450E+03 -0.57988262693E+02  0.15934345419E+03  0.37281881766E+03  0.00000000000E+00 0.  1.
         -1    1    6    6    0  502  0.36518474277E+03 -0.70067573689E+03  0.42609291723E+03  0.89769792177E+03  0.00000000000E+00 0.  1.
<mgrwt>
<rscale>  0 0.22122894E+04</rscale>
<asrwt>0</asrwt>
<pdfrwt beam="1">  1        1 0.21207480E+00 0.22122894E+04</pdfrwt>
<pdfrwt beam="2">  1       -1 0.13655516E+00 0.22122894E+04</pdfrwt>
<totfact> 0.32408556E+00</totfact>
</mgrwt>
</event>
<event>
12    1  0.1980523E-007  0.2488721E+04  0.7818608E-02  0.8407015E-01
         -2   -1    0    0    0  501 -0.00000000000E+00  0.00000000000E+00  0.77670141375E+03  0.77670141375E+03  0.00000000000E+00 0.  1.
          2   -1    0    0  501    0  0.00000000000E+00 -0.00000000000E+00 -0.19936009102E+04  0.19936009102E+04  0.00000000000E+00 0. -1.
         23    2    1    2    0    0  0.10639490029E+04 -0.14082646807E+03 -0.66533248918E+03  0.12659060405E+04  0.89617002879E+02 0.  0.
        254    2    1    2    0    0 -0.10639490029E+04  0.14082646807E+03 -0.55156700726E+03  0.15043962835E+04  0.89842219435E+03 0.  0.
        -24    2    4    4    0    0 -0.38149363973E+03  0.29254614590E+02  0.23303667291E+03  0.45542796309E+03  0.81946989016E+02 0.  0.
         24    2    4    4    0    0 -0.68245536319E+03  0.11157185348E+03 -0.78460368017E+03  0.10489683204E+04  0.80857906252E+02 0.  0.
         13    1    3    3    0    0  0.10548183710E+03  0.11017058838E+02 -0.54429889662E+02  0.11920740930E+03  0.00000000000E+00 0.  1.
        -13    1    3    3    0    0  0.95846716583E+03 -0.15184352691E+03 -0.61090259952E+03  0.11466986312E+04  0.00000000000E+00 0. -1.
          2    1    6    6  502    0 -0.41382847697E+03  0.53278447276E+02 -0.52770614639E+03  0.67273053910E+03  0.00000000000E+00 0. -1.
          1    1    5    5  503    0 -0.23855154071E+03  0.34929727665E+02  0.10325610299E+03  0.26227608785E+03  0.00000000000E+00 0. -1.
         -2    1    5    5    0  503 -0.14294209902E+03 -0.56751130741E+01  0.12978056991E+03  0.19315187524E+03  0.00000000000E+00 0.  1.
         -1    1    6    6    0  502 -0.26862688623E+03  0.58293406206E+02 -0.25689753377E+03  0.37623778129E+03  0.00000000000E+00 0.  1.
<mgrwt>
<rscale>  0 0.24887207E+04</rscale>
<asrwt>0</asrwt>
<pdfrwt beam="1">  1        2 0.30670783E+00 0.24887207E+04</pdfrwt>
<pdfrwt beam="2">  1       -2 0.11949253E+00 0.24887207E+04</pdfrwt>
<totfact> 0.32270142E+00</totfact>
</mgrwt>
</event>
<event>
12    1  0.1980523E-007  0.3025080E+04  0.7818608E-02  0.8236605E-01
          1   -1    0    0  501    0  0.00000000000E+00  0.00000000000E+00  0.28551866489E+04  0.28551866489E+04  0.00000000000E+00 0. -1.
         -1   -1    0    0    0  501 -0.00000000000E+00 -0.00000000000E+00 -0.80127071889E+03  0.80127071889E+03  0.00000000000E+00 0.  1.
         23    2    1    2    0    0 -0.12340156280E+04 -0.54767149764E+03  0.61350885438E+03  0.14855925652E+04  0.88620064990E+02 0.  0.
        254    2    1    2    0    0  0.12340156280E+04  0.54767149764E+03  0.14404070756E+04  0.21708648026E+04  0.90285259490E+03 0.  0.
        -24    2    4    4    0    0  0.88451468414E+03  0.12204208587E+02  0.11777869314E+04  0.14751195426E+04  0.79249226459E+02 0.  0.
         24    2    4    4    0    0  0.34950094387E+03  0.53546728905E+03  0.26262014421E+03  0.69574526002E+03  0.78841608845E+02 0.  0.
         11    1    3    3    0    0 -0.13078076400E+03 -0.43948831875E+02  0.89387508483E+02  0.16439353615E+03  0.00000000000E+00 0. -1.
        -11    1    3    3    0    0 -0.11032348640E+04 -0.50372266576E+03  0.52412134590E+03  0.13211990291E+04  0.00000000000E+00 0.  1.
          4    1    6    6  502    0  0.14561411231E+03  0.29323125331E+03  0.14339988652E+03  0.35742350940E+03  0.00000000000E+00 0. -1.
          1    1    5    5  503    0  0.46422468976E+03  0.28768281931E+02  0.56408727166E+03  0.73111327896E+03  0.00000000000E+00 0. -1.
         -2    1    5    5    0  503  0.42028999438E+03 -0.16564073344E+02  0.61369965977E+03  0.74400626362E+03  0.00000000000E+00 0.  1.
         -3    1    6    6    0  502  0.20388683156E+03  0.24223603574E+03  0.11922025770E+03  0.33832175062E+03  0.00000000000E+00 0.  1.
<mgrwt>
<rscale>  0 0.30250801E+04</rscale>
<asrwt>0</asrwt>
<pdfrwt beam="1">  1        1 0.43925948E+00 0.30250801E+04</pdfrwt>
<pdfrwt beam="2">  1       -1 0.12327242E+00 0.30250801E+04</pdfrwt>
<totfact> 0.37412350E-01</totfact>
</mgrwt>
</event>
<event>
12    1  0.1980523E-007  0.1510892E+04  0.7818608E-02  0.8877242E-01
          2   -1    0    0  501    0  0.00000000000E+00  0.00000000000E+00  0.20856693970E+04  0.20856693970E+04  0.00000000000E+00 0. -1.
         -2   -1    0    0    0  501 -0.00000000000E+00 -0.00000000000E+00 -0.27362857935E+03  0.27362857935E+03  0.00000000000E+00 0.  1.
         23    2    1    2    0    0 -0.10730297972E+03  0.66975282112E+02 -0.13712630823E+03  0.20777369431E+03  0.91469479981E+02 0.  0.
        254    2    1    2    0    0  0.10730297972E+03 -0.66975282112E+02  0.19491671259E+04  0.21515242821E+04  0.90211120917E+03 0.  0.
        -24    2    4    4    0    0  0.26837964881E+03 -0.39889151286E+03  0.14226370378E+04  0.15038622570E+04  0.81015257499E+02 0.  0.
         24    2    4    4    0    0 -0.16107666909E+03  0.33191623075E+03  0.52653008815E+03  0.64766202504E+03  0.78218203740E+02 0.  0.
         13    1    3    3    0    0 -0.21815661134E+02 -0.66382621020E+01  0.78127342856E+01  0.24104530932E+02  0.00000000000E+00 0. -1.
        -13    1    3    3    0    0 -0.85487318587E+02  0.73613544214E+02 -0.14493904252E+03  0.18366916338E+03  0.00000000000E+00 0.  1.
          2    1    6    6  502    0 -0.12630689580E+02  0.78843378271E+02  0.15397325840E+03  0.17344617874E+03  0.00000000000E+00 0. -1.
          1    1    5    5  503    0  0.37979339111E+02 -0.30109418030E+02  0.92135133182E+02  0.10410518729E+03  0.00000000000E+00 0. -1.
         -2    1    5    5    0  503  0.23040030970E+03 -0.36878209483E+03  0.13305019046E+04  0.13997570698E+04  0.00000000000E+00 0.  1.
         -1    1    6    6    0  502 -0.14844597951E+03  0.25307285248E+03  0.37255682975E+03  0.47421584631E+03  0.00000000000E+00 0.  1.
<mgrwt>
<rscale>  0 0.15108921E+04</rscale>
<asrwt>0</asrwt>
<pdfrwt beam="1">  1        2 0.32087221E+00 0.15108921E+04</pdfrwt>
<pdfrwt beam="2">  1       -2 0.42096706E-01 0.15108921E+04</pdfrwt>
<totfact> 0.30921290E+01</totfact>
</mgrwt>
</event>
<event>
12    1  0.1980523E-007  0.2171706E+04  0.7818608E-02  0.8530298E-01
         -1   -1    0    0    0  501 -0.00000000000E+00  0.00000000000E+00  0.74028052169E+03  0.74028052169E+03  0.00000000000E+00 0.  1.
          1   -1    0    0  501    0  0.00000000000E+00 -0.00000000000E+00 -0.15927427054E+04  0.15927427054E+04  0.00000000000E+00 0. -1.
         23    2    1    2    0    0  0.75518589738E+03  0.39846903245E+03 -0.64357471895E+03  0.10728114755E+04  0.87479904383E+02 0.  0.
        254    2    1    2    0    0 -0.75518589738E+03 -0.39846903245E+03 -0.20888746471E+03  0.12602117515E+04  0.90300408437E+03 0.  0.
        -24    2    4    4    0    0 -0.35042483628E+03 -0.21506001495E+03 -0.55157952133E+03  0.69262506719E+03  0.80256709596E+02 0.  0.
         24    2    4    4    0    0 -0.40476106110E+03 -0.18340901750E+03  0.34269205662E+03  0.56758668436E+03  0.85125873311E+02 0.  0.
         11    1    3    3    0    0  0.24815508805E+03  0.15665639497E+03 -0.26502381619E+03  0.39542356652E+03  0.00000000000E+00 0. -1.
        -11    1    3    3    0    0  0.50703080933E+03  0.24181263748E+03 -0.37855090276E+03  0.67738790898E+03  0.00000000000E+00 0.  1.
          4    1    6    6  502    0 -0.24704784828E+03 -0.15022453063E+03  0.19305400322E+03  0.34766348256E+03  0.00000000000E+00 0. -1.
          3    1    5    5  503    0  0.16382839410E+01  0.38567384045E+01 -0.38585119788E+01  0.56961846952E+01  0.00000000000E+00 0. -1.
         -2    1    5    5    0  503 -0.35206312022E+03 -0.21891675335E+03 -0.54772100935E+03  0.68692888249E+03  0.00000000000E+00 0.  1.
         -3    1    6    6    0  502 -0.15771321282E+03 -0.33184486876E+02  0.14963805340E+03  0.21992320180E+03  0.00000000000E+00 0.  1.
<mgrwt>
<rscale>  0 0.21717057E+04</rscale>
<asrwt>0</asrwt>
<pdfrwt beam="1">  1        1 0.24503733E+00 0.21717057E+04</pdfrwt>
<pdfrwt beam="2">  1       -1 0.11388931E+00 0.21717057E+04</pdfrwt>
<totfact> 0.36243893E+00</totfact>
</mgrwt>
</event>
<event>
12    1  0.1980523E-007  0.1548546E+04  0.7818608E-02  0.8852797E-01
          1   -1    0    0  501    0  0.00000000000E+00  0.00000000000E+00  0.17171779222E+04  0.17171779222E+04  0.00000000000E+00 0. -1.
         -1   -1    0    0    0  501 -0.00000000000E+00 -0.00000000000E+00 -0.34911835806E+03  0.34911835806E+03  0.00000000000E+00 0.  1.
         23    2    1    2    0    0 -0.25280160992E+03 -0.35296945892E+03  0.79664904740E+03  0.91182853791E+03  0.91024639032E+02 0.  0.
        254    2    1    2    0    0  0.25280160992E+03  0.35296945892E+03  0.57141051673E+03  0.11544677423E+04  0.90431725439E+03 0.  0.
        -24    2    4    4    0    0 -0.29174634251E+03  0.31173196452E+03  0.15145774809E+03  0.45996004107E+03  0.79567856897E+02 0.  0.
         24    2    4    4    0    0  0.54454795243E+03  0.41237494399E+02  0.41995276864E+03  0.69450770128E+03  0.88020541953E+02 0.  0.
         11    1    3    3    0    0 -0.11415030876E+03 -0.89811770588E+02  0.28927720132E+03  0.32369390839E+03  0.00000000000E+00 0. -1.
        -11    1    3    3    0    0 -0.13865130116E+03 -0.26315768833E+03  0.50737184608E+03  0.58813462952E+03  0.00000000000E+00 0.  1.
          4    1    6    6  502    0  0.11289226185E+03 -0.17378796893E+02  0.11960529054E+03  0.16538473597E+03  0.00000000000E+00 0. -1.
          3    1    5    5  503    0 -0.25036649767E+03  0.29011190674E+03  0.11313809926E+03  0.39956042234E+03  0.00000000000E+00 0. -1.
         -4    1    5    5    0  503 -0.41379844839E+02  0.21620057778E+02  0.38319648825E+02  0.60399618735E+02  0.00000000000E+00 0.  1.
         -3    1    6    6    0  502  0.43165569057E+03  0.58616291292E+02  0.30034747810E+03  0.52912296530E+03  0.00000000000E+00 0.  1.
<mgrwt>
<rscale>  0 0.15485456E+04</rscale>
<asrwt>0</asrwt>
<pdfrwt beam="1">  1        1 0.26418121E+00 0.15485456E+04</pdfrwt>
<pdfrwt beam="2">  1       -1 0.53710518E-01 0.15485456E+04</pdfrwt>
<totfact> 0.15638496E+01</totfact>
</mgrwt>
</event>
<event>
12    1  0.1980523E-007  0.3338956E+04  0.7818608E-02  0.8153053E-01
         -1   -1    0    0    0  501 -0.00000000000E+00  0.00000000000E+00  0.11917578645E+04  0.11917578645E+04  0.00000000000E+00 0.  1.
          1   -1    0    0  501    0  0.00000000000E+00 -0.00000000000E+00 -0.23386936858E+04  0.23386936858E+04  0.00000000000E+00 0. -1.
         23    2    1    2    0    0 -0.43141522147E+03  0.12292391802E+04  0.34887417014E+03  0.13518305184E+04  0.92652622253E+02 0.  0.
        254    2    1    2    0    0  0.43141522147E+03 -0.12292391802E+04 -0.14958099915E+04  0.21786210319E+04  0.90099612346E+03 0.  0.
        -24    2    4    4    0    0 -0.53123023110E+02 -0.10439247082E+04 -0.87396255883E+03  0.13648415185E+04  0.79880938456E+02 0.  0.
         24    2    4    4    0    0  0.48453824458E+03 -0.18531447202E+03 -0.62184743265E+03  0.81377951342E+03  0.80150502029E+02 0.  0.
         13    1    3    3    0    0 -0.35507133932E+03  0.10901950700E+04  0.32227015833E+03  0.11909907647E+04  0.00000000000E+00 0.  1.
        -13    1    3    3    0    0 -0.76343882148E+02  0.13904411025E+03  0.26604011810E+02  0.16083975373E+03  0.00000000000E+00 0. -1.
          2    1    6    6  502    0  0.48093049831E+03 -0.17510081784E+03 -0.61767867637E+03  0.80217291643E+03  0.00000000000E+00 0. -1.
          1    1    5    5  503    0 -0.58009752786E+02 -0.85541932407E+03 -0.75045872122E+03  0.11394277703E+04  0.00000000000E+00 0. -1.
         -2    1    5    5    0  503  0.48867296762E+01 -0.18850538413E+03 -0.12350383762E+03  0.22541374820E+03  0.00000000000E+00 0.  1.
         -1    1    6    6    0  502  0.36077462659E+01 -0.10213654178E+02 -0.41687562793E+01  0.11606596990E+02  0.00000000000E+00 0.  1.
<mgrwt>
<rscale>  0 0.33389559E+04</rscale>
<asrwt>0</asrwt>
<pdfrwt beam="1">  1        1 0.35979903E+00 0.33389559E+04</pdfrwt>
<pdfrwt beam="2">  1       -1 0.18334736E+00 0.33389559E+04</pdfrwt>
<totfact> 0.28508089E-01</totfact>
</mgrwt>
</event>
<event>
12    1  0.1980523E-007  0.3083526E+04  0.7818608E-02  0.8220274E-01
         -2   -1    0    0    0  501 -0.00000000000E+00  0.00000000000E+00  0.10037182996E+04  0.10037182996E+04  0.00000000000E+00 0.  1.
          2   -1    0    0  501    0  0.00000000000E+00 -0.00000000000E+00 -0.23682275461E+04  0.23682275461E+04  0.00000000000E+00 0. -1.
         23    2    1    2    0    0 -0.10208247618E+04 -0.66176174984E+03  0.15250382726E+03  0.12292981012E+04  0.88907797263E+02 0.  0.
        254    2    1    2    0    0  0.10208247618E+04  0.66176174984E+03 -0.15170130738E+04  0.21426477445E+04  0.89977712976E+03 0.  0.
        -24    2    4    4    0    0  0.82253465477E+03  0.44482271188E+02 -0.10627568248E+04  0.13469843537E+04  0.79830131332E+02 0.  0.
         24    2    4    4    0    0  0.19829010707E+03  0.61727947865E+03 -0.45425624900E+03  0.79566339080E+03  0.79865952561E+02 0.  0.
         13    1    3    3    0    0 -0.68433725977E+03 -0.39873474098E+03  0.11868068703E+03  0.80086951762E+03  0.00000000000E+00 0. -1.
        -13    1    3    3    0    0 -0.33648750207E+03 -0.26302700886E+03  0.33823140230E+02  0.42842858361E+03  0.00000000000E+00 0.  1.
          2    1    6    6  502    0  0.16013614006E+02  0.13328092331E+03 -0.70288863764E+02  0.15152809878E+03  0.00000000000E+00 0. -1.
          3    1    5    5  503    0  0.38180761391E+03  0.60431658116E+02 -0.49177610894E+03  0.62551800987E+03  0.00000000000E+00 0. -1.
         -4    1    5    5    0  503  0.44072704086E+03 -0.15949386928E+02 -0.57098071583E+03  0.72146634387E+03  0.00000000000E+00 0.  1.
         -1    1    6    6    0  502  0.18227649307E+03  0.48399855534E+03 -0.38396738523E+03  0.64413529202E+03  0.00000000000E+00 0.  1.
<mgrwt>
<rscale>  0 0.30835261E+04</rscale>
<asrwt>0</asrwt>
<pdfrwt beam="1">  1        2 0.36434270E+00 0.30835261E+04</pdfrwt>
<pdfrwt beam="2">  1       -2 0.15441820E+00 0.30835261E+04</pdfrwt>
<totfact> 0.97722762E-01</totfact>
</mgrwt>
</event>
<event>
12    1  0.1980523E-007  0.2575958E+04  0.7818608E-02  0.8376414E-01
         -1   -1    0    0    0  501 -0.00000000000E+00  0.00000000000E+00  0.49783418798E+03  0.49783418798E+03  0.00000000000E+00 0.  1.
          1   -1    0    0  501    0  0.00000000000E+00 -0.00000000000E+00 -0.33322145287E+04  0.33322145287E+04  0.00000000000E+00 0. -1.
         23    2    1    2    0    0 -0.75542106016E+01  0.10828507826E+04 -0.77091089619E+03  0.13319777382E+04  0.85077620619E+02 0.  0.
        254    2    1    2    0    0  0.75542106016E+01 -0.10828507826E+04 -0.20634694445E+04  0.24980709785E+04  0.89990531819E+03 0.  0.
        -24    2    4    4    0    0 -0.68359930752E+02  0.98704633904E+02 -0.36312812633E+02  0.14911527560E+03  0.80629152114E+02 0.  0.
         24    2    4    4    0    0  0.75914141353E+02 -0.11815554165E+04 -0.20271566319E+04  0.23489557029E+04  0.79954517406E+02 0.  0.
         13    1    3    3    0    0 -0.22190014942E+02  0.80589193275E+03 -0.61343660373E+03  0.10130442591E+04  0.00000000000E+00 0. -1.
        -13    1    3    3    0    0  0.14635804340E+02  0.27695884988E+03 -0.15747429246E+03  0.31893347909E+03  0.00000000000E+00 0.  1.
          2    1    6    6  502    0  0.45895971704E+02 -0.10145911591E+04 -0.17755477076E+04  0.20455002621E+04  0.00000000000E+00 0. -1.
          1    1    5    5  503    0 -0.61838088009E+02  0.87569353994E+02  0.35038937423E+01  0.10725958306E+03  0.00000000000E+00 0. -1.
         -2    1    5    5    0  503 -0.65218427429E+01  0.11135279909E+02 -0.39816706375E+02  0.41855692540E+02  0.00000000000E+00 0.  1.
         -1    1    6    6    0  502  0.30018169650E+02 -0.16696425748E+03 -0.25160892429E+03  0.30345544083E+03  0.00000000000E+00 0.  1.
<mgrwt>
<rscale>  0 0.25759583E+04</rscale>
<asrwt>0</asrwt>
<pdfrwt beam="1">  1        1 0.51264841E+00 0.25759583E+04</pdfrwt>
<pdfrwt beam="2">  1       -1 0.76589873E-01 0.25759583E+04</pdfrwt>
<totfact> 0.50962300E-01</totfact>
</mgrwt>
</event>
<event>
12    1  0.1980523E-007  0.1398468E+04  0.7818608E-02  0.8954928E-01
         -2   -1    0    0    0  501 -0.00000000000E+00  0.00000000000E+00  0.21603391532E+03  0.21603391532E+03  0.00000000000E+00 0.  1.
          2   -1    0    0  501    0  0.00000000000E+00 -0.00000000000E+00 -0.22632015490E+04  0.22632015490E+04  0.00000000000E+00 0. -1.
         23    2    1    2    0    0  0.16489406436E+03  0.22712875185E+02 -0.12565978280E+04  0.12709991924E+04  0.93246546742E+02 0.  0.
        254    2    1    2    0    0 -0.16489406436E+03 -0.22712875185E+02 -0.79056980567E+03  0.12082362719E+04  0.89840321908E+03 0.  0.
        -24    2    4    4    0    0 -0.11150774031E+03 -0.33957574628E+03 -0.79790364087E+03  0.87789994937E+03  0.79450848866E+02 0.  0.
         24    2    4    4    0    0 -0.53386324053E+02  0.31686287109E+03  0.73338352069E+01  0.33033632257E+03  0.76263505012E+02 0.  0.
         11    1    3    3    0    0  0.77931561999E+02 -0.14987025945E+02 -0.32316624394E+03  0.33276772759E+03  0.00000000000E+00 0.  1.
        -11    1    3    3    0    0  0.86962502363E+02  0.37699901130E+02 -0.93343158407E+03  0.93823146478E+03  0.00000000000E+00 0. -1.
          4    1    6    6  502    0 -0.36847941078E+02  0.25988687515E+03  0.35118044367E+02  0.26482491514E+03  0.00000000000E+00 0. -1.
          3    1    5    5  503    0 -0.90393082284E+02 -0.18513661921E+03 -0.51892985783E+03  0.55833204676E+03  0.00000000000E+00 0. -1.
         -4    1    5    5    0  503 -0.21114658025E+02 -0.15443912707E+03 -0.27897378304E+03  0.31956790261E+03  0.00000000000E+00 0.  1.
         -3    1    6    6    0  502 -0.16538382976E+02  0.56975995941E+02 -0.27784209161E+02  0.65511407431E+02  0.00000000000E+00 0.  1.
<mgrwt>
<rscale>  0 0.13984682E+04</rscale>
<asrwt>0</asrwt>
<pdfrwt beam="1">  1        2 0.34818486E+00 0.13984682E+04</pdfrwt>
<pdfrwt beam="2">  1       -2 0.33235987E-01 0.13984682E+04</pdfrwt>
<totfact> 0.39224030E+01</totfact>
</mgrwt>
</event>
<event>
12    1  0.1980523E-007  0.2180514E+04  0.7818608E-02  0.8526583E-01
         -1   -1    0    0    0  501 -0.00000000000E+00  0.00000000000E+00  0.93340492966E+03  0.93340492966E+03  0.00000000000E+00 0.  1.
          1   -1    0    0  501    0  0.00000000000E+00 -0.00000000000E+00 -0.12734669233E+04  0.12734669233E+04  0.00000000000E+00 0. -1.
         23    2    1    2    0    0 -0.63678484165E+03 -0.63892753153E+03 -0.15856809272E+03  0.92059103824E+03  0.92847695455E+02 0.  0.
        254    2    1    2    0    0  0.63678484165E+03  0.63892753153E+03 -0.18149390088E+03  0.12862808147E+04  0.89880752839E+03 0.  0.
        -24    2    4    4    0    0  0.16920139559E+03  0.74561157173E+03 -0.64664265797E+01  0.76952891690E+03  0.86989718413E+02 0.  0.
         24    2    4    4    0    0  0.46758344606E+03 -0.10668404020E+03 -0.17502747430E+03  0.51675189779E+03  0.79888319824E+02 0.  0.
         11    1    3    3    0    0 -0.41752859410E+03 -0.45105659367E+03 -0.14513148492E+03  0.63154202196E+03  0.00000000000E+00 0. -1.
        -11    1    3    3    0    0 -0.21925624755E+03 -0.18787093786E+03 -0.13436607796E+02  0.28904901628E+03  0.00000000000E+00 0.  1.
          2    1    6    6  502    0  0.20390089717E+01 -0.61296576875E+01 -0.11482544281E+02  0.13174941522E+02  0.00000000000E+00 0. -1.
          3    1    5    5  503    0  0.37820266280E+02  0.28435071353E+03 -0.35505846558E+02  0.28904388242E+03  0.00000000000E+00 0. -1.
         -4    1    5    5    0  503  0.13138112931E+03  0.46126085820E+03  0.29039419978E+02  0.48048503448E+03  0.00000000000E+00 0.  1.
         -3    1    6    6    0  502  0.46554443709E+03 -0.10055438251E+03 -0.16354493002E+03  0.50357695627E+03  0.00000000000E+00 0.  1.
<mgrwt>
<rscale>  0 0.21805140E+04</rscale>
<asrwt>0</asrwt>
<pdfrwt beam="1">  1        1 0.19591799E+00 0.21805140E+04</pdfrwt>
<pdfrwt beam="2">  1       -1 0.14360076E+00 0.21805140E+04</pdfrwt>
<totfact> 0.33841240E+00</totfact>
</mgrwt>
</event>
<event>
12    1  0.1980523E-007  0.1578418E+04  0.7818608E-02  0.8833917E-01
          1   -1    0    0  501    0  0.00000000000E+00  0.00000000000E+00  0.31208793051E+04  0.31208793051E+04  0.00000000000E+00 0. -1.
         -1   -1    0    0    0  501 -0.00000000000E+00 -0.00000000000E+00 -0.19957545538E+03  0.19957545538E+03  0.00000000000E+00 0.  1.
         23    2    1    2    0    0 -0.44280540320E+02  0.13229986256E+03 -0.79132896620E+02  0.18514507120E+03  0.92480604335E+02 0.  0.
        254    2    1    2    0    0  0.44280540320E+02 -0.13229986256E+03  0.30004367463E+04  0.31353096893E+04  0.89893390137E+03 0.  0.
        -24    2    4    4    0    0 -0.20256810464E+02  0.31957950414E+03  0.20699160026E+04  0.20960548862E+04  0.79702136724E+02 0.  0.
         24    2    4    4    0    0  0.64537350784E+02 -0.45187936670E+03  0.93052074375E+03  0.10392548030E+04  0.76299799187E+02 0.  0.
         11    1    3    3    0    0 -0.46303948799E+02  0.15734244962E+02 -0.36451741589E+02  0.60994685045E+02  0.00000000000E+00 0. -1.
        -11    1    3    3    0    0  0.20234084791E+01  0.11656561760E+03 -0.42681155032E+02  0.12415038616E+03  0.00000000000E+00 0.  1.
          4    1    6    6  502    0  0.48376821184E+02 -0.43418810671E+03  0.85702831527E+03  0.96195486486E+03  0.00000000000E+00 0. -1.
          3    1    5    5  503    0 -0.44441311810E+02  0.28068144817E+03  0.17880068451E+04  0.18104490006E+04  0.00000000000E+00 0. -1.
         -4    1    5    5    0  503  0.24184501346E+02  0.38898055972E+02  0.28190915748E+03  0.28560588568E+03  0.00000000000E+00 0.  1.
         -3    1    6    6    0  502  0.16160529600E+02 -0.17691259989E+02  0.73492428482E+02  0.77299938170E+02  0.00000000000E+00 0.  1.
<mgrwt>
<rscale>  0 0.15784181E+04</rscale>
<asrwt>0</asrwt>
<pdfrwt beam="1">  1        1 0.48013524E+00 0.15784181E+04</pdfrwt>
<pdfrwt beam="2">  1       -1 0.30703918E-01 0.15784181E+04</pdfrwt>
<totfact> 0.46141011E+00</totfact>
</mgrwt>
</event>
<event>
12    1  0.1980523E-007  0.2631838E+04  0.7818608E-02  0.8357466E-01
          1   -1    0    0  501    0  0.00000000000E+00  0.00000000000E+00  0.13226821246E+04  0.13226821246E+04  0.00000000000E+00 0. -1.
         -1   -1    0    0    0  501 -0.00000000000E+00 -0.00000000000E+00 -0.13091902041E+04  0.13091902041E+04  0.00000000000E+00 0.  1.
         23    2    1    2    0    0 -0.63729940976E+02 -0.10831656571E+04  0.41534426176E+03  0.11655059563E+04  0.92649513309E+02 0.  0.
        254    2    1    2    0    0  0.63729940976E+02  0.10831656571E+04 -0.40185234135E+03  0.14663663724E+04  0.90079725124E+03 0.  0.
        -24    2    4    4    0    0 -0.25896738266E+03  0.63397253730E+03 -0.55714663614E+03  0.88638168539E+03  0.79213854185E+02 0.  0.
         24    2    4    4    0    0  0.32269732363E+03  0.44919311978E+03  0.15529429479E+03  0.57998468703E+03  0.79736426135E+02 0.  0.
         11    1    3    3    0    0 -0.50838242562E+02 -0.27364446643E+03  0.12863939647E+03  0.30661688674E+03  0.00000000000E+00 0.  1.
        -11    1    3    3    0    0 -0.12891698414E+02 -0.80952119065E+03  0.28670486530E+03  0.85888906955E+03  0.00000000000E+00 0. -1.
          2    1    6    6  502    0  0.31072347470E+03  0.40104956242E+03  0.12747082648E+03  0.52310480867E+03  0.00000000000E+00 0. -1.
          1    1    5    5  503    0 -0.16129246852E+03  0.31566817752E+03 -0.32054232175E+03  0.47792158220E+03  0.00000000000E+00 0. -1.
         -4    1    5    5    0  503 -0.97674914143E+02  0.31830435978E+03 -0.23660431439E+03  0.40846010319E+03  0.00000000000E+00 0.  1.
         -1    1    6    6    0  502  0.11973848936E+02  0.48143557359E+02  0.27823468308E+02  0.56879878360E+02  0.00000000000E+00 0.  1.
<mgrwt>
<rscale>  0 0.26318377E+04</rscale>
<asrwt>0</asrwt>
<pdfrwt beam="1">  1        1 0.20348956E+00 0.26318377E+04</pdfrwt>
<pdfrwt beam="2">  1       -1 0.20141388E+00 0.26318377E+04</pdfrwt>
<totfact> 0.11264341E+00</totfact>
</mgrwt>
</event>
<event>
12    1  0.1980523E-007  0.1417502E+04  0.7818608E-02  0.8941246E-01
         -2   -1    0    0    0  501 -0.00000000000E+00  0.00000000000E+00  0.66532933311E+03  0.66532933311E+03  0.00000000000E+00 0.  1.
          2   -1    0    0  501    0  0.00000000000E+00 -0.00000000000E+00 -0.75500666054E+03  0.75500666054E+03  0.00000000000E+00 0. -1.
         23    2    1    2    0    0  0.33649086342E+03  0.23819693350E+03 -0.84058664719E+02  0.43085156541E+03  0.92754148224E+02 0.  0.
        254    2    1    2    0    0 -0.33649086342E+03 -0.23819693350E+03 -0.56186627094E+01  0.98948442823E+03  0.89949095829E+03 0.  0.
        -24    2    4    4    0    0 -0.84576341403E+02  0.91636230130E+01 -0.42103893495E+03  0.43864089559E+03  0.88853368138E+02 0.  0.
         24    2    4    4    0    0 -0.25191452201E+03 -0.24736055651E+03  0.41542027224E+03  0.55084353264E+03  0.78780857725E+02 0.  0.
         11    1    3    3    0    0  0.87275318638E+02  0.35455190058E+02  0.13346176477E+02  0.95142903950E+02  0.00000000000E+00 0.  1.
        -11    1    3    3    0    0  0.24921554478E+03  0.20274174344E+03 -0.97404841196E+02  0.33570866146E+03  0.00000000000E+00 0. -1.
          4    1    6    6  502    0 -0.62267081518E+02 -0.50401034958E+02  0.14853863719E+03  0.16876368242E+03  0.00000000000E+00 0. -1.
          3    1    5    5  503    0  0.11881760100E+01 -0.28842743030E+02 -0.85913391110E+02  0.90633472623E+02  0.00000000000E+00 0. -1.
         -4    1    5    5    0  503 -0.85764517413E+02  0.38006366043E+02 -0.33512554384E+03  0.34800742297E+03  0.00000000000E+00 0.  1.
         -3    1    6    6    0  502 -0.18964744050E+03 -0.19695952155E+03  0.26688163505E+03  0.38207985022E+03  0.00000000000E+00 0.  1.
<mgrwt>
<rscale>  0 0.14175021E+04</rscale>
<asrwt>0</asrwt>
<pdfrwt beam="1">  1        2 0.11615487E+00 0.14175021E+04</pdfrwt>
<pdfrwt beam="2">  1       -2 0.10235836E+00 0.14175021E+04</pdfrwt>
<totfact> 0.28243110E+01</totfact>
</mgrwt>
</event>
<event>
12    1  0.1980523E-007  0.1781043E+04  0.7818608E-02  0.8716446E-01
          2   -1    0    0  501    0  0.00000000000E+00  0.00000000000E+00  0.17707450640E+04  0.17707450640E+04  0.00000000000E+00 0. -1.
         -2   -1    0    0    0  501 -0.00000000000E+00 -0.00000000000E+00 -0.44784998316E+03  0.44784998316E+03  0.00000000000E+00 0.  1.
         23    2    1    2    0    0 -0.38072894164E+03 -0.29069165931E+03 -0.69124584636E+02  0.49280444226E+03  0.92853876127E+02 0.  0.
        254    2    1    2    0    0  0.38072894164E+03  0.29069165931E+03  0.13920196655E+04  0.17257906049E+04  0.90065437051E+03 0.  0.
        -24    2    4    4    0    0 -0.25074529376E+03  0.39579822135E+02  0.14469990456E+03  0.30317570139E+03  0.80855914237E+02 0.  0.
         24    2    4    4    0    0  0.63147423540E+03  0.25111183718E+03  0.12473197609E+04  0.14226149035E+04  0.78801732165E+02 0.  0.
         13    1    3    3    0    0 -0.24010095756E+03 -0.23336833610E+03 -0.31196703937E+02  0.33627739212E+03  0.00000000000E+00 0.  1.
        -13    1    3    3    0    0 -0.14062798408E+03 -0.57323323215E+02 -0.37927880699E+02  0.15652705014E+03  0.00000000000E+00 0. -1.
          4    1    6    6  502    0  0.17325739887E+03  0.62458681637E+02  0.41353454154E+03  0.45269198161E+03  0.00000000000E+00 0. -1.
          1    1    5    5  503    0 -0.58225871274E+01 -0.13432104870E+02  0.19336269823E+01  0.14766952137E+02  0.00000000000E+00 0. -1.
         -2    1    5    5    0  503 -0.24492270664E+03  0.53011927005E+02  0.14276627758E+03  0.28840874925E+03  0.00000000000E+00 0.  1.
         -3    1    6    6    0  502  0.45821683653E+03  0.18865315554E+03  0.83378521940E+03  0.96992292192E+03  0.00000000000E+00 0.  1.
<mgrwt>
<rscale>  0 0.17810426E+04</rscale>
<asrwt>0</asrwt>
<pdfrwt beam="1">  1        2 0.27242231E+00 0.17810426E+04</pdfrwt>
<pdfrwt beam="2">  1       -2 0.68899998E-01 0.17810426E+04</pdfrwt>
<totfact> 0.16296156E+01</totfact>
</mgrwt>
</event>
<event>
12    1  0.1980523E-007  0.1468139E+04  0.7818608E-02  0.8905921E-01
          1   -1    0    0  501    0  0.00000000000E+00  0.00000000000E+00  0.95334641400E+03  0.95334641400E+03  0.00000000000E+00 0. -1.
         -1   -1    0    0    0  501 -0.00000000000E+00 -0.00000000000E+00 -0.56522769899E+03  0.56522769899E+03  0.00000000000E+00 0.  1.
         23    2    1    2    0    0 -0.21604485992E+03 -0.28384062284E+03  0.40847109585E+03  0.55089400228E+03  0.96926182886E+02 0.  0.
        254    2    1    2    0    0  0.21604485992E+03  0.28384062284E+03 -0.20352380849E+02  0.96768011071E+03  0.89930511874E+03 0.  0.
        -24    2    4    4    0    0  0.49622247521E+03  0.12998672837E+03 -0.24015864316E+03  0.57201345386E+03  0.79936994282E+02 0.  0.
         24    2    4    4    0    0 -0.28017761529E+03  0.15385389446E+03  0.21980626231E+03  0.39566665685E+03  0.77889623440E+02 0.  0.
         13    1    3    3    0    0 -0.90794987385E+02 -0.11472465057E+03  0.24104374120E+03  0.28197085018E+03  0.00000000000E+00 0. -1.
        -13    1    3    3    0    0 -0.12524987254E+03 -0.16911597227E+03  0.16742735466E+03  0.26892315210E+03  0.00000000000E+00 0.  1.
          4    1    6    6  502    0 -0.25773528876E+02 -0.85471180342E+01  0.16946035748E+02  0.32007751327E+02  0.00000000000E+00 0. -1.
          3    1    5    5  503    0  0.14624669244E+03  0.65868512428E+02 -0.10339467077E+03  0.19083294769E+03  0.00000000000E+00 0. -1.
         -4    1    5    5    0  503  0.34997578277E+03  0.64118215946E+02 -0.13676397239E+03  0.38118050617E+03  0.00000000000E+00 0.  1.
         -3    1    6    6    0  502 -0.25440408642E+03  0.16240101250E+03  0.20286022656E+03  0.36365890552E+03  0.00000000000E+00 0.  1.
<mgrwt>
<rscale>  0 0.14681387E+04</rscale>
<asrwt>0</asrwt>
<pdfrwt beam="1">  1        1 0.14666868E+00 0.14681387E+04</pdfrwt>
<pdfrwt beam="2">  1       -1 0.86958107E-01 0.14681387E+04</pdfrwt>
<totfact> 0.20819263E+01</totfact>
</mgrwt>
</event>
<event>
12    1  0.1980523E-007  0.2064139E+04  0.7818608E-02  0.8577207E-01
         -1   -1    0    0    0  501 -0.00000000000E+00  0.00000000000E+00  0.85129532140E+03  0.85129532140E+03  0.00000000000E+00 0.  1.
          1   -1    0    0  501    0  0.00000000000E+00 -0.00000000000E+00 -0.12512311788E+04  0.12512311788E+04  0.00000000000E+00 0. -1.
         23    2    1    2    0    0  0.67369670428E+03  0.48272088035E+03 -0.24976712385E+03  0.87053572783E+03  0.92531830127E+02 0.  0.
        254    2    1    2    0    0 -0.67369670428E+03 -0.48272088035E+03 -0.15016873354E+03  0.12319907724E+04  0.89909060553E+03 0.  0.
        -24    2    4    4    0    0 -0.33674105634E+03 -0.72078303204E+03 -0.54964724039E+02  0.80119160373E+03  0.77227888118E+02 0.  0.
         24    2    4    4    0    0 -0.33695564794E+03  0.23806215169E+03 -0.95204009502E+02  0.43079916862E+03  0.79444468113E+02 0.  0.
         11    1    3    3    0    0  0.39471553167E+03  0.23429279183E+03 -0.11292144756E+03  0.47269939345E+03  0.00000000000E+00 0.  1.
        -11    1    3    3    0    0  0.27898117261E+03  0.24842808852E+03 -0.13684567629E+03  0.39783633438E+03  0.00000000000E+00 0. -1.
          4    1    6    6  502    0 -0.19982806701E+02  0.31047156436E+02 -0.27899236970E+02  0.46277488155E+02  0.00000000000E+00 0. -1.
          3    1    5    5  503    0 -0.77330857504E+02 -0.15889254572E+03  0.19770031785E+02  0.17781382613E+03  0.00000000000E+00 0. -1.
         -4    1    5    5    0  503 -0.25941019884E+03 -0.56189048632E+03 -0.74734755824E+02  0.62337777760E+03  0.00000000000E+00 0.  1.
         -3    1    6    6    0  502 -0.31697284124E+03  0.20701499526E+03 -0.67304772532E+02  0.38452168047E+03  0.00000000000E+00 0.  1.
<mgrwt>
<rscale>  0 0.20641388E+04</rscale>
<asrwt>0</asrwt>
<pdfrwt beam="1">  1        1 0.19249710E+00 0.20641388E+04</pdfrwt>
<pdfrwt beam="2">  1       -1 0.13096851E+00 0.20641388E+04</pdfrwt>
<totfact> 0.45030411E+00</totfact>
</mgrwt>
</event>
<event>
12    1  0.1980523E-007  0.2930220E+04  0.7818608E-02  0.8263942E-01
         -1   -1    0    0    0  501 -0.00000000000E+00  0.00000000000E+00  0.14586341273E+04  0.14586341273E+04  0.00000000000E+00 0.  1.
          1   -1    0    0  501    0  0.00000000000E+00 -0.00000000000E+00 -0.14716150624E+04  0.14716150624E+04  0.00000000000E+00 0. -1.
         23    2    1    2    0    0 -0.31405137043E+03  0.12308094145E+04  0.37098194719E+03  0.13263639705E+04  0.89964987637E+02 0.  0.
        254    2    1    2    0    0  0.31405137043E+03 -0.12308094145E+04 -0.38396288234E+03  0.16038852192E+04  0.90083307189E+03 0.  0.
        -24    2    4    4    0    0  0.59208747793E+03 -0.54431917637E+03 -0.14064723106E+03  0.82029839101E+03  0.79100312252E+02 0.  0.
         24    2    4    4    0    0 -0.27803610749E+03 -0.68649023809E+03 -0.24331565127E+03  0.78358682821E+03  0.78948636010E+02 0.  0.
         13    1    3    3    0    0 -0.14027003532E+03  0.56364053280E+03  0.21625585379E+03  0.61978458139E+03  0.00000000000E+00 0.  1.
        -13    1    3    3    0    0 -0.17378133511E+03  0.66716888166E+03  0.15472609341E+03  0.70657938908E+03  0.00000000000E+00 0. -1.
          4    1    6    6  502    0 -0.11209978515E+03 -0.18471553014E+03 -0.60851837677E+02  0.22447524375E+03  0.00000000000E+00 0. -1.
          1    1    5    5  503    0  0.39855934176E+03 -0.40243755120E+03 -0.73720221141E+02  0.57117440640E+03  0.00000000000E+00 0. -1.
         -2    1    5    5    0  503  0.19352813616E+03 -0.14188162517E+03 -0.66927009923E+02  0.24912398460E+03  0.00000000000E+00 0.  1.
         -3    1    6    6    0  502 -0.16593632234E+03 -0.50177470795E+03 -0.18246381359E+03  0.55911158446E+03  0.00000000000E+00 0.  1.
<mgrwt>
<rscale>  0 0.29302204E+04</rscale>
<asrwt>0</asrwt>
<pdfrwt beam="1">  1        1 0.22640232E+00 0.29302204E+04</pdfrwt>
<pdfrwt beam="2">  1       -1 0.22440525E+00 0.29302204E+04</pdfrwt>
<totfact> 0.60272323E-01</totfact>
</mgrwt>
</event>
<event>
12    1  0.1980523E-007  0.1520390E+04  0.7818608E-02  0.8871006E-01
          2   -1    0    0  501    0  0.00000000000E+00  0.00000000000E+00  0.11165329333E+04  0.11165329333E+04  0.00000000000E+00 0.  1.
         -2   -1    0    0    0  501 -0.00000000000E+00 -0.00000000000E+00 -0.51758102020E+03  0.51758102020E+03  0.00000000000E+00 0. -1.
         23    2    1    2    0    0  0.34746579310E+02  0.13253070031E+03 -0.31018399807E+03  0.35089425787E+03  0.90227247812E+02 0.  0.
        254    2    1    2    0    0 -0.34746579310E+02 -0.13253070031E+03  0.90913591117E+03  0.12832196956E+04  0.89518320524E+03 0.  0.
        -24    2    4    4    0    0  0.36253602980E+03  0.14004627940E+03  0.54576815502E+03  0.67453128932E+03  0.78001589475E+02 0.  0.
         24    2    4    4    0    0 -0.39728260911E+03 -0.27257697971E+03  0.36336775615E+03  0.60868840630E+03  0.79584975813E+02 0.  0.
         13    1    3    3    0    0  0.14773503454E+02  0.49057403249E+02 -0.22200623232E+03  0.22784128775E+03  0.00000000000E+00 0. -1.
        -13    1    3    3    0    0  0.19973075856E+02  0.83473297056E+02 -0.88177765759E+02  0.12305297012E+03  0.00000000000E+00 0.  1.
          2    1    6    6  502    0 -0.33713227676E+03 -0.21363973680E+03  0.33082763613E+03  0.51840817316E+03  0.00000000000E+00 0. -1.
          1    1    5    5  503    0  0.21655218448E+03  0.90183624714E+02  0.26296513559E+03  0.35238983712E+03  0.00000000000E+00 0. -1.
         -4    1    5    5    0  503  0.14598384532E+03  0.49862654689E+02  0.28280301943E+03  0.32214145220E+03  0.00000000000E+00 0.  1.
         -1    1    6    6    0  502 -0.60150332359E+02 -0.58937242904E+02  0.32540120028E+02  0.90280233138E+02  0.00000000000E+00 0.  1.
<mgrwt>
<rscale>  0 0.15203898E+04</rscale>
<asrwt>0</asrwt>
<pdfrwt beam="1">  1        2 0.17177430E+00 0.15203898E+04</pdfrwt>
<pdfrwt beam="2">  1       -2 0.79627849E-01 0.15203898E+04</pdfrwt>
<totfact> 0.28683322E+01</totfact>
</mgrwt>
</event>
<event>
12    1  0.1980523E-007  0.2849988E+04  0.7818608E-02  0.8287915E-01
         -2   -1    0    0    0  501 -0.00000000000E+00  0.00000000000E+00  0.71212025432E+03  0.71212025432E+03  0.00000000000E+00 0. -1.
          2   -1    0    0  501    0  0.00000000000E+00 -0.00000000000E+00 -0.28514967414E+04  0.28514967414E+04  0.00000000000E+00 0.  1.
         23    2    1    2    0    0  0.96042321475E+03 -0.78434330087E+03 -0.13555337265E+04  0.18411862170E+04  0.12201572516E+03 0.  0.
        254    2    1    2    0    0 -0.96042321475E+03  0.78434330087E+03 -0.78384276062E+03  0.17224307787E+04  0.90263566787E+03 0.  0.
        -24    2    4    4    0    0 -0.11000710507E+04  0.77616287105E+03 -0.79014940320E+03  0.15632946925E+04  0.83481119459E+02 0.  0.
         24    2    4    4    0    0  0.13964783596E+03  0.81804298147E+01  0.63066425851E+01  0.15913608615E+03  0.75604779308E+02 0.  0.
         11    1    3    3    0    0  0.33335186361E+02 -0.54533629195E+02 -0.47493330937E+02  0.79628938499E+02  0.00000000000E+00 0. -1.
        -11    1    3    3    0    0  0.92708802839E+03 -0.72980967167E+03 -0.13080403955E+04  0.17615572785E+04  0.00000000000E+00 0.  1.
          2    1    6    6  502    0  0.14038847927E+03 -0.26547978575E+01 -0.86183959912E+01  0.14067782275E+03  0.00000000000E+00 0. -1.
          3    1    5    5  503    0 -0.84053908884E+03  0.63018558298E+03 -0.59615512195E+03  0.12079075951E+04  0.00000000000E+00 0. -1.
         -4    1    5    5    0  503 -0.25953196187E+03  0.14597728807E+03 -0.19399428125E+03  0.35538709744E+03  0.00000000000E+00 0.  1.
         -3    1    6    6    0  502 -0.74064331372E+00  0.10835227672E+02  0.14925038576E+02  0.18458263400E+02  0.00000000000E+00 0.  1.
<mgrwt>
<rscale>  0 0.28499885E+04</rscale>
<asrwt>0</asrwt>
<pdfrwt beam="1">  1        2 0.43869180E+00 0.28499885E+04</pdfrwt>
<pdfrwt beam="2">  1       -2 0.10955696E+00 0.28499885E+04</pdfrwt>
<totfact> 0.12365320E+00</totfact>
</mgrwt>
</event>
<event>
12    1  0.1980523E-007  0.1517999E+04  0.7818608E-02  0.8872571E-01
          1   -1    0    0  501    0  0.00000000000E+00  0.00000000000E+00  0.84259216535E+03  0.84259216535E+03  0.00000000000E+00 0. -1.
         -1   -1    0    0    0  501 -0.00000000000E+00 -0.00000000000E+00 -0.68369977139E+03  0.68369977139E+03  0.00000000000E+00 0.  1.
         23    2    1    2    0    0 -0.15503901695E+03  0.18430155268E+03 -0.37233418492E+03  0.45310058826E+03  0.93076520805E+02 0.  0.
        254    2    1    2    0    0  0.15503901695E+03 -0.18430155268E+03  0.53122657888E+03  0.10731913485E+04  0.90085172656E+03 0.  0.
        -24    2    4    4    0    0  0.44568962617E+03  0.92574976160E+02  0.47087292242E+03  0.66024583771E+03  0.83629468887E+02 0.  0.
         24    2    4    4    0    0 -0.29065060922E+03 -0.27687652885E+03  0.60353656463E+02  0.41294551077E+03  0.75782861847E+02 0.  0.
         11    1    3    3    0    0 -0.90732775934E+02  0.11996821235E+03 -0.14796483037E+03  0.21099383790E+03  0.00000000000E+00 0. -1.
        -11    1    3    3    0    0 -0.64306241018E+02  0.64333340330E+02 -0.22436935455E+03  0.24210675036E+03  0.00000000000E+00 0.  1.
          4    1    6    6  502    0 -0.10988587864E+03 -0.14929929923E+03  0.78186670125E+01  0.18554330661E+03  0.00000000000E+00 0. -1.
          1    1    5    5  503    0  0.36967310169E+03  0.99870683063E+02  0.42067799047E+03  0.56886055156E+03  0.00000000000E+00 0. -1.
         -2    1    5    5    0  503  0.76016524477E+02 -0.72957069031E+01  0.50194931941E+02  0.91385286153E+02  0.00000000000E+00 0.  1.
         -3    1    6    6    0  502 -0.18076473058E+03 -0.12757722962E+03  0.52534989451E+02  0.22740220416E+03  0.00000000000E+00 0.  1.
<mgrwt>
<rscale>  0 0.15179988E+04</rscale>
<asrwt>0</asrwt>
<pdfrwt beam="1">  1        1 0.12962956E+00 0.15179988E+04</pdfrwt>
<pdfrwt beam="2">  1       -1 0.10518458E+00 0.15179988E+04</pdfrwt>
<totfact> 0.16647141E+01</totfact>
</mgrwt>
</event>
<event>
12    1  0.1980523E-007  0.1854720E+04  0.7818608E-02  0.8677729E-01
          2   -1    0    0  501    0  0.00000000000E+00  0.00000000000E+00  0.23402618250E+04  0.23402618250E+04  0.00000000000E+00 0. -1.
         -2   -1    0    0    0  501 -0.00000000000E+00 -0.00000000000E+00 -0.36747889091E+03  0.36747889091E+03  0.00000000000E+00 0.  1.
         23    2    1    2    0    0 -0.34862895531E+03 -0.56595247957E+03  0.41061494275E+03  0.78664865499E+03  0.91471949618E+02 0.  0.
        254    2    1    2    0    0  0.34862895531E+03  0.56595247957E+03  0.15621679913E+04  0.19210920609E+04  0.89910039248E+03 0.  0.
        -24    2    4    4    0    0  0.52948563749E+03  0.68005589772E+03  0.10547318181E+04  0.13646279079E+04  0.83180855215E+02 0.  0.
         24    2    4    4    0    0 -0.18085668218E+03 -0.11410341815E+03  0.50743617325E+03  0.55646415299E+03  0.80200711476E+02 0.  0.
         13    1    3    3    0    0 -0.17141432768E+03 -0.34890336245E+03  0.26862336395E+03  0.47251977707E+03  0.00000000000E+00 0. -1.
        -13    1    3    3    0    0 -0.17721462764E+03 -0.21704911712E+03  0.14199157880E+03  0.31412887792E+03  0.00000000000E+00 0.  1.
          2    1    6    6  502    0 -0.80717434606E+02 -0.58995891077E+01  0.18368647872E+03  0.20072576284E+03  0.00000000000E+00 0. -1.
          1    1    5    5  503    0  0.36960924347E+02  0.47450668019E+02  0.43956024417E+02  0.74497032871E+02  0.00000000000E+00 0. -1.
         -2    1    5    5    0  503  0.49252471314E+03  0.63260522970E+03  0.10107757937E+04  0.12901308751E+04  0.00000000000E+00 0.  1.
         -1    1    6    6    0  502 -0.10013924757E+03 -0.10820382904E+03  0.32374969453E+03  0.35573839016E+03  0.00000000000E+00 0.  1.
<mgrwt>
<rscale>  0 0.18547203E+04</rscale>
<asrwt>0</asrwt>
<pdfrwt beam="1">  1        2 0.36004027E+00 0.18547203E+04</pdfrwt>
<pdfrwt beam="2">  1       -2 0.56535215E-01 0.18547203E+04</pdfrwt>
<totfact> 0.11871941E+01</totfact>
</mgrwt>
</event>
<event>
12    1  0.1980523E-007  0.1402884E+04  0.7818608E-02  0.8951734E-01
          1   -1    0    0  501    0  0.00000000000E+00  0.00000000000E+00  0.17253308200E+04  0.17253308200E+04  0.00000000000E+00 0. -1.
         -1   -1    0    0    0  501 -0.00000000000E+00 -0.00000000000E+00 -0.28517466658E+03  0.28517466658E+03  0.00000000000E+00 0.  1.
         23    2    1    2    0    0  0.23144806663E+03 -0.31264820531E+03  0.59658438057E+03  0.71790512306E+03  0.90320179071E+02 0.  0.
        254    2    1    2    0    0 -0.23144806663E+03  0.31264820531E+03  0.84357177282E+03  0.12926003635E+04  0.89882437437E+03 0.  0.
        -24    2    4    4    0    0 -0.14769216032E+03  0.28628781288E+03  0.10241437975E+04  0.10765800983E+04  0.79878058072E+02 0.  0.
         24    2    4    4    0    0 -0.83755906316E+02  0.26360392422E+02 -0.18057202468E+03  0.21602026514E+03  0.79677956307E+02 0.  0.
         11    1    3    3    0    0  0.85879069459E+01 -0.63641291360E+02  0.11538888118E+03  0.13205514005E+03  0.00000000000E+00 0. -1.
        -11    1    3    3    0    0  0.22286015969E+03 -0.24900691395E+03  0.48119549938E+03  0.58584998301E+03  0.00000000000E+00 0.  1.
          2    1    6    6  502    0 -0.63688372607E+02 -0.20875490686E+02 -0.10880118123E+03  0.12778768311E+03  0.00000000000E+00 0. -1.
          3    1    5    5  503    0 -0.15469555881E+03  0.27071148461E+03  0.92930615122E+03  0.98021698950E+03  0.00000000000E+00 0. -1.
         -4    1    5    5    0  503  0.70033984924E+01  0.15576328275E+02  0.94837646290E+02  0.96363108848E+02  0.00000000000E+00 0.  1.
         -1    1    6    6    0  502 -0.20067533709E+02  0.47235883108E+02 -0.71770843450E+02  0.88232582030E+02  0.00000000000E+00 0.  1.
<mgrwt>
<rscale>  0 0.14028837E+04</rscale>
<asrwt>0</asrwt>
<pdfrwt beam="1">  1        1 0.26543550E+00 0.14028837E+04</pdfrwt>
<pdfrwt beam="2">  1       -1 0.43873027E-01 0.14028837E+04</pdfrwt>
<totfact> 0.22929958E+01</totfact>
</mgrwt>
</event>
<event>
12    1  0.1980523E-007  0.2352378E+04  0.7818608E-02  0.8457551E-01
          1   -1    0    0  501    0  0.00000000000E+00  0.00000000000E+00  0.10294377587E+04  0.10294377587E+04  0.00000000000E+00 0. -1.
         -1   -1    0    0    0  501 -0.00000000000E+00 -0.00000000000E+00 -0.13438605068E+04  0.13438605068E+04  0.00000000000E+00 0.  1.
         23    2    1    2    0    0  0.49911200014E+03  0.68991282654E+03  0.39754199300E+03  0.94402931537E+03  0.89773131752E+02 0.  0.
        254    2    1    2    0    0 -0.49911200014E+03 -0.68991282654E+03 -0.71196474109E+03  0.14292689501E+04  0.90045735171E+03 0.  0.
        -24    2    4    4    0    0 -0.28610851167E+01 -0.69435021312E+03 -0.58281564614E+03  0.91011337969E+03  0.80634249798E+02 0.  0.
         24    2    4    4    0    0 -0.49625091502E+03  0.44373865795E+01 -0.12914909494E+03  0.51915557040E+03  0.80983680421E+02 0.  0.
         13    1    3    3    0    0  0.28288529370E+03  0.34531325214E+03  0.24756244129E+03  0.51044342863E+03  0.00000000000E+00 0. -1.
        -13    1    3    3    0    0  0.21622670644E+03  0.34459957440E+03  0.14997955171E+03  0.43358588674E+03  0.00000000000E+00 0.  1.
          4    1    6    6  502    0 -0.16857038370E+03  0.17848263674E+02 -0.85450783895E+01  0.16972787969E+03  0.00000000000E+00 0. -1.
          3    1    5    5  503    0  0.14516100322E+02 -0.23851790156E+03 -0.24698963191E+03  0.34366464003E+03  0.00000000000E+00 0. -1.
         -4    1    5    5    0  503 -0.17377185438E+02 -0.45583231155E+03 -0.33582601423E+03  0.56644873966E+03  0.00000000000E+00 0.  1.
         -3    1    6    6    0  502 -0.32768053132E+03 -0.13410877095E+02 -0.12060401655E+03  0.34942769071E+03  0.00000000000E+00 0.  1.
<mgrwt>
<rscale>  0 0.23523782E+04</rscale>
<asrwt>0</asrwt>
<pdfrwt beam="1">  1        1 0.15837504E+00 0.23523782E+04</pdfrwt>
<pdfrwt beam="2">  1       -1 0.20674777E+00 0.23523782E+04</pdfrwt>
<totfact> 0.17471757E+00</totfact>
</mgrwt>
</event>
<event>
12    1  0.1980523E-007  0.3310471E+04  0.7818608E-02  0.8160236E-01
          2   -1    0    0  501    0  0.00000000000E+00  0.00000000000E+00  0.38615539806E+04  0.38615539806E+04  0.00000000000E+00 0. -1.
         -2   -1    0    0    0  501 -0.00000000000E+00 -0.00000000000E+00 -0.70950831128E+03  0.70950831128E+03  0.00000000000E+00 0.  1.
         23    2    1    2    0    0  0.15169014509E+04  0.11251199050E+03  0.12156631069E+04  0.19482524233E+04  0.64820950488E+02 0.  0.
        254    2    1    2    0    0 -0.15169014509E+04 -0.11251199050E+03  0.19363825623E+04  0.26228098685E+04  0.90327471958E+03 0.  0.
        -24    2    4    4    0    0 -0.14554005207E+04  0.15705589246E+03  0.17372768509E+04  0.22731543575E+04  0.79010426130E+02 0.  0.
         24    2    4    4    0    0 -0.61500930166E+02 -0.26956788296E+03  0.19910571143E+03  0.34965551099E+03  0.78528237642E+02 0.  0.
         13    1    3    3    0    0  0.31427550820E+03  0.49047860143E+02  0.26161041561E+03  0.41184317063E+03  0.00000000000E+00 0. -1.
        -13    1    3    3    0    0  0.12026259427E+04  0.63464130361E+02  0.95405269134E+03  0.15364092527E+04  0.00000000000E+00 0.  1.
          4    1    6    6  502    0 -0.21484581848E+02 -0.32920984099E+02  0.61526566201E+02  0.73012990623E+02  0.00000000000E+00 0. -1.
          3    1    5    5  503    0 -0.15773160236E+03  0.25444929802E+02  0.15533079346E+03  0.22283257893E+03  0.00000000000E+00 0. -1.
         -4    1    5    5    0  503 -0.12976689184E+04  0.13161096265E+03  0.15819460575E+04  0.20503217786E+04  0.00000000000E+00 0.  1.
         -3    1    6    6    0  502 -0.40016348318E+02 -0.23664689886E+03  0.13757914523E+03  0.27664252037E+03  0.00000000000E+00 0.  1.
<mgrwt>
<rscale>  0 0.33104711E+04</rscale>
<asrwt>0</asrwt>
<pdfrwt beam="1">  1        2 0.59408522E+00 0.33104711E+04</pdfrwt>
<pdfrwt beam="2">  1       -2 0.10915513E+00 0.33104711E+04</pdfrwt>
<totfact> 0.24557360E-01</totfact>
</mgrwt>
</event>
<event>
12    1  0.1980523E-007  0.2605089E+04  0.7818608E-02  0.8366475E-01
          1   -1    0    0  501    0  0.00000000000E+00  0.00000000000E+00  0.12369588014E+04  0.12369588014E+04  0.00000000000E+00 0. -1.
         -1   -1    0    0    0  501 -0.00000000000E+00 -0.00000000000E+00 -0.13716079837E+04  0.13716079837E+04  0.00000000000E+00 0.  1.
         23    2    1    2    0    0 -0.76762266133E+03  0.64030017804E+03 -0.64038932725E+03  0.11905850468E+04  0.90362574947E+02 0.  0.
        254    2    1    2    0    0  0.76762266133E+03 -0.64030017804E+03  0.50574014493E+03  0.14179817384E+04  0.86929295866E+03 0.  0.
        -24    2    4    4    0    0  0.64870480921E+03 -0.36300397789E+03 -0.82511035605E+02  0.75214467181E+03  0.79521813797E+02 0.  0.
         24    2    4    4    0    0  0.11891785212E+03 -0.27729620014E+03  0.58825118053E+03  0.66583706656E+03  0.79151182189E+02 0.  0.
         13    1    3    3    0    0 -0.30406251920E+03  0.30991949525E+03 -0.29092636533E+03  0.52263013610E+03  0.00000000000E+00 0. -1.
        -13    1    3    3    0    0 -0.46356014212E+03  0.33038068279E+03 -0.34946296192E+03  0.66795491067E+03  0.00000000000E+00 0.  1.
          4    1    6    6  502    0  0.30005227472E+02 -0.11117746656E+03  0.30129938798E+03  0.32255552072E+03  0.00000000000E+00 0. -1.
          1    1    5    5  503    0  0.55905989448E+03 -0.33679036279E+03 -0.56054117786E+02  0.65507081922E+03  0.00000000000E+00 0. -1.
         -2    1    5    5    0  503  0.89644914733E+02 -0.26213615109E+02 -0.26456917819E+02  0.97073852582E+02  0.00000000000E+00 0.  1.
         -3    1    6    6    0  502  0.88912624643E+02 -0.16611873359E+03  0.28695179255E+03  0.34328154584E+03  0.00000000000E+00 0.  1.
<mgrwt>
<rscale>  0 0.26050893E+04</rscale>
<asrwt>0</asrwt>
<pdfrwt beam="1">  1        1 0.19030135E+00 0.26050893E+04</pdfrwt>
<pdfrwt beam="2">  1       -1 0.21101661E+00 0.26050893E+04</pdfrwt>
<totfact> 0.11187323E+00</totfact>
</mgrwt>
</event>
<event>
12    1  0.1980523E-007  0.1950584E+04  0.7818608E-02  0.8630079E-01
          2   -1    0    0  501    0  0.00000000000E+00  0.00000000000E+00  0.31923176326E+04  0.31923176326E+04  0.00000000000E+00 0. -1.
         -2   -1    0    0    0  501 -0.00000000000E+00 -0.00000000000E+00 -0.29796351665E+03  0.29796351665E+03  0.00000000000E+00 0.  1.
         23    2    1    2    0    0  0.54295658178E+03  0.46683607074E+03  0.66846904520E+03  0.98390819967E+03  0.92123364777E+02 0.  0.
        254    2    1    2    0    0 -0.54295658178E+03 -0.46683607074E+03  0.22258850708E+04  0.25063729496E+04  0.90255373670E+03 0.  0.
        -24    2    4    4    0    0 -0.36922463643E+03 -0.93522208950E+02  0.19900730650E+03  0.43661628626E+03  0.77179256748E+02 0.  0.
         24    2    4    4    0    0 -0.17373194535E+03 -0.37331386179E+03  0.20268777643E+04  0.20697566634E+04  0.78186609913E+02 0.  0.
         13    1    3    3    0    0  0.80516984310E+02  0.91062251389E+02  0.15755352063E+03  0.19899354325E+03  0.00000000000E+00 0. -1.
        -13    1    3    3    0    0  0.46243959747E+03  0.37577381935E+03  0.51091552457E+03  0.78491465642E+03  0.00000000000E+00 0.  1.
          4    1    6    6  502    0  0.51227162791E+01 -0.13257806079E+02  0.12797219493E+03  0.12875905529E+03  0.00000000000E+00 0. -1.
          3    1    5    5  503    0 -0.11182371812E+01 -0.79724765216E+01  0.13275028352E+02  0.15525373233E+02  0.00000000000E+00 0. -1.
         -4    1    5    5    0  503 -0.36810639925E+03 -0.85549732429E+02  0.18573227815E+03  0.42109091302E+03  0.00000000000E+00 0.  1.
         -3    1    6    6    0  502 -0.17885466163E+03 -0.36005605571E+03  0.18989055694E+04  0.19409976081E+04  0.00000000000E+00 0.  1.
<mgrwt>
<rscale>  0 0.19505837E+04</rscale>
<asrwt>0</asrwt>
<pdfrwt beam="1">  1        2 0.49112577E+00 0.19505837E+04</pdfrwt>
<pdfrwt beam="2">  1       -2 0.45840543E-01 0.19505837E+04</pdfrwt>
<totfact> 0.55430633E+00</totfact>
</mgrwt>
</event>
<event>
12    1  0.1980523E-007  0.3031208E+04  0.7818608E-02  0.8234875E-01
          1   -1    0    0  501    0  0.00000000000E+00  0.00000000000E+00  0.16653177542E+04  0.16653177542E+04  0.00000000000E+00 0. -1.
         -1   -1    0    0    0  501 -0.00000000000E+00 -0.00000000000E+00 -0.13793493182E+04  0.13793493182E+04  0.00000000000E+00 0.  1.
         23    2    1    2    0    0  0.82664724568E+03  0.84571119793E+03 -0.58487216050E+03  0.13225071465E+04  0.91523818048E+02 0.  0.
        254    2    1    2    0    0 -0.82664724568E+03 -0.84571119793E+03  0.87084059647E+03  0.17221599260E+04  0.89938777344E+03 0.  0.
        -24    2    4    4    0    0 -0.42117380724E+03 -0.49484484175E+03  0.97089734430E+03  0.11710073997E+04  0.79736337872E+02 0.  0.
         24    2    4    4    0    0 -0.40547343844E+03 -0.35086635618E+03 -0.10005674783E+03  0.55115252630E+03  0.79005349696E+02 0.  0.
         13    1    3    3    0    0  0.47846703199E+03  0.43569456996E+03 -0.34801721824E+03  0.73476284826E+03  0.00000000000E+00 0.  1.
        -13    1    3    3    0    0  0.34818021370E+03  0.41001662797E+03 -0.23685494226E+03  0.58774429822E+03  0.00000000000E+00 0. -1.
          2    1    6    6  502    0 -0.34902021914E+03 -0.27150645230E+03 -0.61664608940E+02  0.44646768193E+03  0.00000000000E+00 0. -1.
          3    1    5    5  503    0 -0.79829647315E+02 -0.14734024078E+03  0.24710135649E+03  0.29856490002E+03  0.00000000000E+00 0. -1.
         -4    1    5    5    0  503 -0.34134415993E+03 -0.34750460097E+03  0.72379598781E+03  0.87244249964E+03  0.00000000000E+00 0.  1.
         -1    1    6    6    0  502 -0.56453219303E+02 -0.79359903879E+02 -0.38392138886E+02  0.10468484437E+03  0.00000000000E+00 0.  1.
<mgrwt>
<rscale>  0 0.30312076E+04</rscale>
<asrwt>0</asrwt>
<pdfrwt beam="1">  1        1 0.25620273E+00 0.30312076E+04</pdfrwt>
<pdfrwt beam="2">  1       -1 0.21220759E+00 0.30312076E+04</pdfrwt>
<totfact> 0.53064624E-01</totfact>
</mgrwt>
</event>
<event>
12    1  0.1980523E-007  0.1972245E+04  0.7818608E-02  0.8619708E-01
         -2   -1    0    0    0  501 -0.00000000000E+00  0.00000000000E+00  0.70163210397E+03  0.70163210397E+03  0.00000000000E+00 0.  1.
          2   -1    0    0  501    0  0.00000000000E+00 -0.00000000000E+00 -0.13859649912E+04  0.13859649912E+04  0.00000000000E+00 0. -1.
         23    2    1    2    0    0 -0.11472570596E+02 -0.65553257220E+03  0.17385093130E+03  0.68417596813E+03  0.89543486483E+02 0.  0.
        254    2    1    2    0    0  0.11472570596E+02  0.65553257220E+03 -0.85818381858E+03  0.14034211271E+04  0.89624595976E+03 0.  0.
        -24    2    4    4    0    0 -0.12227988751E+03  0.59014206871E+03 -0.10093301416E+04  0.11782635969E+04  0.79609904942E+02 0.  0.
         24    2    4    4    0    0  0.13375245811E+03  0.65390503486E+02  0.15114632301E+03  0.22515753016E+03  0.75399366244E+02 0.  0.
         13    1    3    3    0    0  0.31547462720E+02 -0.23644817160E+03  0.38160953044E+02  0.24157656880E+03  0.00000000000E+00 0. -1.
        -13    1    3    3    0    0 -0.43020033316E+02 -0.41908440060E+03  0.13568997825E+03  0.44259939933E+03  0.00000000000E+00 0.  1.
          4    1    6    6  502    0  0.14124843279E+02  0.15400913615E+02 -0.57010300532E+01  0.21661049871E+02  0.00000000000E+00 0. -1.
          1    1    5    5  503    0  0.40337644141E+01  0.84381314227E+02 -0.10896850779E+03  0.13787898004E+03  0.00000000000E+00 0. -1.
         -2    1    5    5    0  503 -0.12631365192E+03  0.50576075448E+03 -0.90036163380E+03  0.10403846169E+04  0.00000000000E+00 0.  1.
         -3    1    6    6    0  502  0.11962761483E+03  0.49989589871E+02  0.15684735307E+03  0.20349648028E+03  0.00000000000E+00 0.  1.
<mgrwt>
<rscale>  0 0.19722449E+04</rscale>
<asrwt>0</asrwt>
<pdfrwt beam="1">  1        2 0.21322538E+00 0.19722449E+04</pdfrwt>
<pdfrwt beam="2">  1       -2 0.10794340E+00 0.19722449E+04</pdfrwt>
<totfact> 0.94414434E+00</totfact>
</mgrwt>
</event>
<event>
12    1  0.1980523E-007  0.1912266E+04  0.7818608E-02  0.8648775E-01
         -1   -1    0    0    0  501 -0.00000000000E+00  0.00000000000E+00  0.65857974521E+03  0.65857974521E+03  0.00000000000E+00 0.  1.
          1   -1    0    0  501    0  0.00000000000E+00 -0.00000000000E+00 -0.13881243483E+04  0.13881243483E+04  0.00000000000E+00 0. -1.
         23    2    1    2    0    0 -0.33469782597E+03  0.23136025841E+03  0.37999342310E+03  0.56247459760E+03  0.80202664931E+02 0.  0.
        254    2    1    2    0    0  0.33469782597E+03 -0.23136025841E+03 -0.11095380262E+04  0.14842294959E+04  0.89794897467E+03 0.  0.
        -24    2    4    4    0    0  0.44244135590E+02 -0.12487333875E+03  0.13183514833E+03  0.20239954138E+03  0.77679944339E+02 0.  0.
         24    2    4    4    0    0  0.29045369038E+03 -0.10648691966E+03 -0.12413731746E+04  0.12818299546E+04  0.79861527598E+02 0.  0.
         13    1    3    3    0    0 -0.38564494959E+01 -0.51099897608E+01  0.80058649935E+00  0.64517545531E+01  0.00000000000E+00 0. -1.
        -13    1    3    3    0    0 -0.33084137648E+03  0.23647024817E+03  0.37919283660E+03  0.55602284305E+03  0.00000000000E+00 0.  1.
          4    1    6    6  502    0  0.22732761513E+03 -0.96287895492E+02 -0.10880462093E+04  0.11157032567E+04  0.00000000000E+00 0. -1.
          1    1    5    5  503    0  0.58561934141E+02 -0.60631186578E+02  0.52460949719E+02  0.99286414789E+02  0.00000000000E+00 0. -1.
         -2    1    5    5    0  503 -0.14317798551E+02 -0.64242152172E+02  0.79374198612E+02  0.10311312660E+03  0.00000000000E+00 0.  1.
         -3    1    6    6    0  502  0.63126075249E+02 -0.10199024169E+02 -0.15332696523E+03  0.16612669785E+03  0.00000000000E+00 0.  1.
<mgrwt>
<rscale>  0 0.19122663E+04</rscale>
<asrwt>0</asrwt>
<pdfrwt beam="1">  1        1 0.21355759E+00 0.19122663E+04</pdfrwt>
<pdfrwt beam="2">  1       -1 0.10131996E+00 0.19122663E+04</pdfrwt>
<totfact> 0.67698780E+00</totfact>
</mgrwt>
</event>
<event>
12    1  0.1980523E-007  0.2090646E+04  0.7818608E-02  0.8565375E-01
         -1   -1    0    0    0  501 -0.00000000000E+00  0.00000000000E+00  0.72319892895E+03  0.72319892895E+03  0.00000000000E+00 0.  1.
          1   -1    0    0  501    0  0.00000000000E+00 -0.00000000000E+00 -0.15109260558E+04  0.15109260558E+04  0.00000000000E+00 0. -1.
         23    2    1    2    0    0  0.26214183372E+03  0.80005783303E+03 -0.44004094150E+03  0.95430237378E+03  0.90808112160E+02 0.  0.
        254    2    1    2    0    0 -0.26214183372E+03 -0.80005783303E+03 -0.34768618539E+03  0.12798226110E+04  0.89902689335E+03 0.  0.
        -24    2    4    4    0    0  0.27039131377E+03 -0.31039181549E+03  0.92004720808E+02  0.42889865759E+03  0.77682997765E+02 0.  0.
         24    2    4    4    0    0 -0.53253314749E+03 -0.48966601753E+03 -0.43969090620E+03  0.85092395342E+03  0.85901802100E+02 0.  0.
         11    1    3    3    0    0  0.17029720838E+03  0.63503509169E+03 -0.35480602085E+03  0.74709973852E+03  0.00000000000E+00 0. -1.
        -11    1    3    3    0    0  0.91844625343E+02  0.16502274134E+03 -0.85234920652E+02  0.20720263527E+03  0.00000000000E+00 0.  1.
          4    1    6    6  502    0 -0.10214144748E+03 -0.13769381687E+03 -0.12375582193E+03  0.21144258313E+03  0.00000000000E+00 0. -1.
          1    1    5    5  503    0  0.40606782011E+02 -0.19127471966E+02  0.26625106980E+02  0.52188765561E+02  0.00000000000E+00 0. -1.
         -2    1    5    5    0  503  0.22978453176E+03 -0.29126434353E+03  0.65379613828E+02  0.37670989203E+03  0.00000000000E+00 0.  1.
         -3    1    6    6    0  502 -0.43039170001E+03 -0.35197220066E+03 -0.31593508427E+03  0.63948137029E+03  0.00000000000E+00 0.  1.
<mgrwt>
<rscale>  0 0.20906459E+04</rscale>
<asrwt>0</asrwt>
<pdfrwt beam="1">  1        1 0.23245016E+00 0.20906459E+04</pdfrwt>
<pdfrwt beam="2">  1       -1 0.11126138E+00 0.20906459E+04</pdfrwt>
<totfact> 0.43950815E+00</totfact>
</mgrwt>
</event>
<event>
12    1  0.1980523E-007  0.2164655E+04  0.7818608E-02  0.8533285E-01
          2   -1    0    0  501    0  0.00000000000E+00  0.00000000000E+00  0.39401100656E+04  0.39401100656E+04  0.00000000000E+00 0. -1.
         -2   -1    0    0    0  501 -0.00000000000E+00 -0.00000000000E+00 -0.29730966861E+03  0.29730966861E+03  0.00000000000E+00 0.  1.
         23    2    1    2    0    0 -0.89130944078E+03  0.30404747900E+02  0.15553661337E+04  0.17953097303E+04  0.92823757839E+02 0.  0.
        254    2    1    2    0    0  0.89130944078E+03 -0.30404747900E+02  0.20874342633E+04  0.24421100039E+04  0.90064560159E+03 0.  0.
        -24    2    4    4    0    0  0.71252062990E+03  0.20658535636E+03  0.70751283310E+03  0.10284051382E+04  0.81728586204E+02 0.  0.
         24    2    4    4    0    0  0.17878881088E+03 -0.23699010426E+03  0.13799214302E+04  0.14137048657E+04  0.79047740897E+02 0.  0.
         13    1    3    3    0    0 -0.53904169238E+03 -0.14549856985E+02  0.87431168889E+03  0.10272285889E+04  0.00000000000E+00 0. -1.
        -13    1    3    3    0    0 -0.35226774840E+03  0.44954604885E+02  0.68105444479E+03  0.76808114144E+03  0.00000000000E+00 0.  1.
          4    1    6    6  502    0  0.89711130384E+02 -0.99583972426E+02  0.79817141078E+03  0.80934705502E+03  0.00000000000E+00 0. -1.
          1    1    5    5  503    0  0.59632679136E+03  0.14252698553E+03  0.59638836600E+03  0.85533541187E+03  0.00000000000E+00 0. -1.
         -2    1    5    5    0  503  0.11619383854E+03  0.64058370824E+02  0.11112446709E+03  0.17306972634E+03  0.00000000000E+00 0.  1.
         -3    1    6    6    0  502  0.89077680495E+02 -0.13740613183E+03  0.58175001946E+03  0.60435781071E+03  0.00000000000E+00 0.  1.
<mgrwt>
<rscale>  0 0.21646550E+04</rscale>
<asrwt>0</asrwt>
<pdfrwt beam="1">  1        2 0.60617074E+00 0.21646550E+04</pdfrwt>
<pdfrwt beam="2">  1       -2 0.45739952E-01 0.21646550E+04</pdfrwt>
<totfact> 0.15992859E+00</totfact>
</mgrwt>
</event>
<event>
12    1  0.1980523E-007  0.2812926E+04  0.7818608E-02  0.8299267E-01
          2   -1    0    0  501    0  0.00000000000E+00  0.00000000000E+00  0.23077012552E+04  0.23077012552E+04  0.00000000000E+00 0. -1.
         -2   -1    0    0    0  501 -0.00000000000E+00 -0.00000000000E+00 -0.85718971845E+03  0.85718971845E+03  0.00000000000E+00 0.  1.
         23    2    1    2    0    0  0.12294134813E+04  0.52849702268E+02  0.95221792504E+03  0.15580965173E+04  0.81824087489E+02 0.  0.
        254    2    1    2    0    0 -0.12294134813E+04 -0.52849702268E+02  0.49829361170E+03  0.16067944564E+04  0.90511949632E+03 0.  0.
        -24    2    4    4    0    0 -0.87067562813E+03  0.29739078489E+03  0.58301892632E+03  0.10921418556E+04  0.79658245270E+02 0.  0.
         24    2    4    4    0    0 -0.35873785316E+03 -0.35024048716E+03 -0.84725314618E+02  0.51465260075E+03  0.79546680561E+02 0.  0.
         13    1    3    3    0    0  0.65418707016E+03 -0.91436830850E+01  0.48413061445E+03  0.81389605083E+03  0.00000000000E+00 0. -1.
        -13    1    3    3    0    0  0.57522641113E+03  0.61993385353E+02  0.46808731059E+03  0.74420046643E+03  0.00000000000E+00 0.  1.
          2    1    6    6  502    0 -0.96740504941E+01  0.37505274702E+01 -0.24331015305E+00  0.10378482986E+02  0.00000000000E+00 0. -1.
          3    1    5    5  503    0 -0.22385619068E+03  0.48414124731E+02  0.17114773869E+03  0.28591444532E+03  0.00000000000E+00 0. -1.
         -4    1    5    5    0  503 -0.64681943744E+03  0.24897666016E+03  0.41187118763E+03  0.80622741032E+03  0.00000000000E+00 0.  1.
         -1    1    6    6    0  502 -0.34906380267E+03 -0.35399101463E+03 -0.84482004465E+02  0.50427411776E+03  0.00000000000E+00 0.  1.
<mgrwt>
<rscale>  0 0.28129257E+04</rscale>
<asrwt>0</asrwt>
<pdfrwt beam="1">  1        2 0.35503096E+00 0.28129257E+04</pdfrwt>
<pdfrwt beam="2">  1       -2 0.13187534E+00 0.28129257E+04</pdfrwt>
<totfact> 0.16336439E+00</totfact>
</mgrwt>
</event>
<event>
12    1  0.1980523E-007  0.2675857E+04  0.7818608E-02  0.8342881E-01
          2   -1    0    0  501    0  0.00000000000E+00  0.00000000000E+00  0.10807204754E+04  0.10807204754E+04  0.00000000000E+00 0. -1.
         -2   -1    0    0    0  501 -0.00000000000E+00 -0.00000000000E+00 -0.16563514235E+04  0.16563514235E+04  0.00000000000E+00 0.  1.
         23    2    1    2    0    0 -0.46830239753E+03  0.10748292142E+04 -0.85703266835E+02  0.11791973001E+04  0.92715950077E+02 0.  0.
        254    2    1    2    0    0  0.46830239753E+03 -0.10748292142E+04 -0.48992768129E+03  0.15578745988E+04  0.90132078500E+03 0.  0.
        -24    2    4    4    0    0  0.30163655670E+03  0.58041022045E+02 -0.19766071816E+03  0.37344933589E+03  0.77725635393E+02 0.  0.
         24    2    4    4    0    0  0.16666584083E+03 -0.11328702362E+04 -0.29226696313E+03  0.11844252629E+04  0.79188073680E+02 0.  0.
         11    1    3    3    0    0 -0.16080745659E+03  0.45005392510E+03 -0.27491089547E+01  0.47792795607E+03  0.00000000000E+00 0. -1.
        -11    1    3    3    0    0 -0.30749494094E+03  0.62477528910E+03 -0.82954157880E+02  0.70126934404E+03  0.00000000000E+00 0.  1.
          4    1    6    6  502    0  0.50854258522E+02 -0.27796043320E+03 -0.38679825121E+02  0.28520919849E+03  0.00000000000E+00 0. -1.
          1    1    5    5  503    0  0.11003098269E+03  0.49928759747E+02 -0.10668531124E+03  0.16118763549E+03  0.00000000000E+00 0. -1.
         -2    1    5    5    0  503  0.19160557401E+03  0.81122622980E+01 -0.90975406914E+02  0.21226170040E+03  0.00000000000E+00 0.  1.
         -3    1    6    6    0  502  0.11581158231E+03 -0.85490980305E+03 -0.25358713801E+03  0.89921606442E+03  0.00000000000E+00 0.  1.
<mgrwt>
<rscale>  0 0.26758572E+04</rscale>
<asrwt>0</asrwt>
<pdfrwt beam="1">  1        2 0.16626469E+00 0.26758572E+04</pdfrwt>
<pdfrwt beam="2">  1       -2 0.25482330E+00 0.26758572E+04</pdfrwt>
<totfact> 0.11814762E+00</totfact>
</mgrwt>
</event>
<event>
12    1  0.1980523E-007  0.1457647E+04  0.7818608E-02  0.8913116E-01
         -2   -1    0    0    0  501 -0.00000000000E+00  0.00000000000E+00  0.46922064936E+03  0.46922064936E+03  0.00000000000E+00 0.  1.
          2   -1    0    0  501    0  0.00000000000E+00 -0.00000000000E+00 -0.11320559564E+04  0.11320559564E+04  0.00000000000E+00 0. -1.
         23    2    1    2    0    0 -0.60474991957E+02 -0.34526876568E+03  0.92630256201E+02  0.37381892562E+03  0.91063052773E+02 0.  0.
        254    2    1    2    0    0  0.60474991957E+02  0.34526876568E+03 -0.75546556328E+03  0.12274576802E+04  0.90169639796E+03 0.  0.
        -24    2    4    4    0    0  0.29305286524E+03  0.87429690657E+02 -0.80768199314E+03  0.86744586464E+03  0.81167686941E+02 0.  0.
         24    2    4    4    0    0 -0.23257787328E+03  0.25783907503E+03  0.52216429866E+02  0.36001181552E+03  0.79426041185E+02 0.  0.
         13    1    3    3    0    0 -0.36388431647E+02 -0.23148622607E+03  0.16699944939E+02  0.23492313419E+03  0.00000000000E+00 0.  1.
        -13    1    3    3    0    0 -0.24086560309E+02 -0.11378253962E+03  0.75930311263E+02  0.13889579143E+03  0.00000000000E+00 0. -1.
          2    1    6    6  502    0 -0.23234605268E+03  0.23584764025E+03  0.36707850184E+02  0.33310098150E+03  0.00000000000E+00 0. -1.
          1    1    5    5  503    0  0.28396620145E+03  0.67867901874E+02 -0.77610321251E+03  0.82920386645E+03  0.00000000000E+00 0. -1.
         -2    1    5    5    0  503  0.90866637849E+01  0.19561788784E+02 -0.31578780632E+02  0.38241998187E+02  0.00000000000E+00 0.  1.
         -1    1    6    6    0  502 -0.23182059848E+00  0.21991434774E+02  0.15508579682E+02  0.26910834026E+02  0.00000000000E+00 0.  1.
<mgrwt>
<rscale>  0 0.14576475E+04</rscale>
<asrwt>0</asrwt>
<pdfrwt beam="1">  1        2 0.17416245E+00 0.14576475E+04</pdfrwt>
<pdfrwt beam="2">  1       -2 0.72187793E-01 0.14576475E+04</pdfrwt>
<totfact> 0.35068006E+01</totfact>
</mgrwt>
</event>
<event>
12    1  0.1980523E-007  0.3301946E+04  0.7818608E-02  0.8162400E-01
          2   -1    0    0  501    0  0.00000000000E+00  0.00000000000E+00  0.17566535719E+04  0.17566535719E+04  0.00000000000E+00 0.  1.
         -2   -1    0    0    0  501 -0.00000000000E+00 -0.00000000000E+00 -0.15516503391E+04  0.15516503391E+04  0.00000000000E+00 0. -1.
         23    2    1    2    0    0 -0.77771196168E+03  0.97029757723E+03  0.98278063344E+03  0.15875866712E+04  0.90886641108E+02 0.  0.
        254    2    1    2    0    0  0.77771196168E+03 -0.97029757723E+03 -0.77777740064E+03  0.17207172397E+04  0.89978711399E+03 0.  0.
        -24    2    4    4    0    0 -0.93431755497E+01 -0.54640502669E+03 -0.58204614282E+03  0.80257452713E+03  0.81868254543E+02 0.  0.
         24    2    4    4    0    0  0.78705513723E+03 -0.42389255053E+03 -0.19573125782E+03  0.91814271261E+03  0.74395107340E+02 0.  0.
         11    1    3    3    0    0 -0.14405406152E+03  0.20881414704E+03  0.24202567827E+03  0.35061567219E+03  0.00000000000E+00 0. -1.
        -11    1    3    3    0    0 -0.63365790017E+03  0.76148343018E+03  0.74075495517E+03  0.12369709991E+04  0.00000000000E+00 0.  1.
          4    1    6    6  502    0  0.59939397911E+03 -0.34058199063E+03 -0.17829995646E+03  0.71208153256E+03  0.00000000000E+00 0. -1.
          3    1    5    5  503    0 -0.35355159439E+02 -0.30253730651E+03 -0.36177529577E+03  0.47292723939E+03  0.00000000000E+00 0. -1.
         -4    1    5    5    0  503  0.26011983889E+02 -0.24386772019E+03 -0.22027084705E+03  0.32964728774E+03  0.00000000000E+00 0.  1.
         -1    1    6    6    0  502  0.18766115812E+03 -0.83310559904E+02 -0.17431301357E+02  0.20606118005E+03  0.00000000000E+00 0.  1.
<mgrwt>
<rscale>  0 0.33019462E+04</rscale>
<asrwt>0</asrwt>
<pdfrwt beam="1">  1        2 0.27025439E+00 0.33019462E+04</pdfrwt>
<pdfrwt beam="2">  1       -2 0.23871544E+00 0.33019462E+04</pdfrwt>
<totfact> 0.57466698E-01</totfact>
</mgrwt>
</event>
<event>
12    1  0.1980523E-007  0.1331560E+04  0.7818608E-02  0.9004906E-01
         -2   -1    0    0    0  501 -0.00000000000E+00  0.00000000000E+00  0.15272281977E+03  0.15272281977E+03  0.00000000000E+00 0.  1.
          2   -1    0    0  501    0  0.00000000000E+00 -0.00000000000E+00 -0.29024016409E+04  0.29024016409E+04  0.00000000000E+00 0. -1.
         23    2    1    2    0    0  0.26414055828E+03 -0.18762175270E+01 -0.12987798603E+04  0.13285676380E+04  0.92136249399E+02 0.  0.
        254    2    1    2    0    0 -0.26414055828E+03  0.18762175270E+01 -0.14508989608E+04  0.17265568226E+04  0.89784013759E+03 0.  0.
        -24    2    4    4    0    0 -0.54249285596E+02 -0.35603621202E+03 -0.22907254839E+03  0.43387409162E+03  0.77895607693E+02 0.  0.
         24    2    4    4    0    0 -0.20989127268E+03  0.35791242954E+03 -0.12218264124E+04  0.12926827310E+04  0.77544874041E+02 0.  0.
         11    1    3    3    0    0  0.57229768439E+02 -0.57467475939E+01 -0.13836265935E+03  0.14984157302E+03  0.00000000000E+00 0.  1.
        -11    1    3    3    0    0  0.20691078984E+03  0.38705300669E+01 -0.11604172010E+04  0.11787260650E+04  0.00000000000E+00 0. -1.
          4    1    6    6  502    0 -0.14405975881E+03  0.30166413861E+03 -0.92872137316E+03  0.98705514314E+03  0.00000000000E+00 0. -1.
          3    1    5    5  503    0 -0.40129685003E+02 -0.19349512674E+03 -0.16896843846E+03  0.26000209400E+03  0.00000000000E+00 0. -1.
         -4    1    5    5    0  503 -0.14119600592E+02 -0.16254108528E+03 -0.60104109927E+02  0.17387199762E+03  0.00000000000E+00 0.  1.
         -3    1    6    6    0  502 -0.65831513871E+02  0.56248290933E+02 -0.29310503922E+03  0.30562758787E+03  0.00000000000E+00 0.  1.
<mgrwt>
<rscale>  0 0.13315599E+04</rscale>
<asrwt>0</asrwt>
<pdfrwt beam="1">  1        2 0.44652329E+00 0.13315599E+04</pdfrwt>
<pdfrwt beam="2">  1       -2 0.23495820E-01 0.13315599E+04</pdfrwt>
<totfact> 0.31718974E+01</totfact>
</mgrwt>
</event>
<event>
12    1  0.1980523E-007  0.3096775E+04  0.7818608E-02  0.8216624E-01
          1   -1    0    0  501    0  0.00000000000E+00  0.00000000000E+00  0.23350650230E+04  0.23350650230E+04  0.00000000000E+00 0. -1.
         -1   -1    0    0    0  501 -0.00000000000E+00 -0.00000000000E+00 -0.10267396488E+04  0.10267396488E+04  0.00000000000E+00 0.  1.
         23    2    1    2    0    0  0.51636058772E+03  0.12925431724E+04  0.88409183615E+03  0.16514867695E+04  0.92163258408E+02 0.  0.
        254    2    1    2    0    0 -0.51636058772E+03 -0.12925431724E+04  0.42423353801E+03  0.17103179022E+04  0.89884210116E+03 0.  0.
        -24    2    4    4    0    0 -0.12839967459E+03 -0.95830449363E+03  0.62529825383E+03  0.11542106201E+04  0.79813973662E+02 0.  0.
         24    2    4    4    0    0 -0.38796091313E+03 -0.33423867875E+03 -0.20106471582E+03  0.55610728209E+03  0.81234997100E+02 0.  0.
         13    1    3    3    0    0  0.21872150494E+03  0.53146164089E+03  0.31209958383E+03  0.65398526183E+03  0.00000000000E+00 0.  1.
        -13    1    3    3    0    0  0.29763908278E+03  0.76108153149E+03  0.57199225232E+03  0.99750150772E+03  0.00000000000E+00 0. -1.
          4    1    6    6  502    0 -0.42169380731E+02 -0.94889526305E+01 -0.26096202776E+02  0.50490679264E+02  0.00000000000E+00 0. -1.
          1    1    5    5  503    0 -0.43792222422E+02 -0.13266413410E+03  0.77458589982E+02  0.15974155497E+03  0.00000000000E+00 0. -1.
         -2    1    5    5    0  503 -0.84607452165E+02 -0.82564035953E+03  0.54783966385E+03  0.99446906514E+03  0.00000000000E+00 0.  1.
         -3    1    6    6    0  502 -0.34579153240E+03 -0.32474972612E+03 -0.17496851305E+03  0.50561660283E+03  0.00000000000E+00 0.  1.
<mgrwt>
<rscale>  0 0.30967750E+04</rscale>
<asrwt>0</asrwt>
<pdfrwt beam="1">  1        1 0.35924077E+00 0.30967750E+04</pdfrwt>
<pdfrwt beam="2">  1       -1 0.15795995E+00 0.30967750E+04</pdfrwt>
<totfact> 0.45005231E-01</totfact>
</mgrwt>
</event>
<event>
12    1  0.1980523E-007  0.2838776E+04  0.7818608E-02  0.8291330E-01
          1   -1    0    0  501    0  0.00000000000E+00  0.00000000000E+00  0.98630202231E+03  0.98630202231E+03  0.00000000000E+00 0. -1.
         -1   -1    0    0    0  501 -0.00000000000E+00 -0.00000000000E+00 -0.20426430276E+04  0.20426430276E+04  0.00000000000E+00 0.  1.
         23    2    1    2    0    0  0.11697637625E+04  0.11137569563E+03  0.49533241027E+02  0.11795895841E+04  0.90698618981E+02 0.  0.
        254    2    1    2    0    0 -0.11697637625E+04 -0.11137569563E+03 -0.11058742463E+04  0.18493554658E+04  0.90355187158E+03 0.  0.
        -24    2    4    4    0    0 -0.40067318559E+03 -0.46768953626E+03 -0.36415359095E+03  0.71993874591E+03  0.80196359543E+02 0.  0.
         24    2    4    4    0    0 -0.76909057686E+03  0.35631384063E+03 -0.74172065536E+03  0.11294167199E+04  0.83502862743E+02 0.  0.
         11    1    3    3    0    0  0.33995305579E+03  0.47030727280E+02 -0.24106919763E+02  0.34403649956E+03  0.00000000000E+00 0.  1.
        -11    1    3    3    0    0  0.82981070667E+03  0.64344968349E+02  0.73640160789E+02  0.83555308457E+03  0.00000000000E+00 0. -1.
          2    1    6    6  502    0 -0.61433096473E+03  0.24897341718E+03 -0.59368489792E+03  0.88986069399E+03  0.00000000000E+00 0. -1.
          1    1    5    5  503    0 -0.28911908208E+03 -0.36049387924E+03 -0.23513908824E+03  0.51849404183E+03  0.00000000000E+00 0. -1.
         -2    1    5    5    0  503 -0.11155410351E+03 -0.10719565702E+03 -0.12901450270E+03  0.20144470408E+03  0.00000000000E+00 0.  1.
         -1    1    6    6    0  502 -0.15475961213E+03  0.10734042345E+03 -0.14803575744E+03  0.23955602587E+03  0.00000000000E+00 0.  1.
<mgrwt>
<rscale>  0 0.28387765E+04</rscale>
<asrwt>0</asrwt>
<pdfrwt beam="1">  1        1 0.15173878E+00 0.28387765E+04</pdfrwt>
<pdfrwt beam="2">  1       -1 0.31425277E+00 0.28387765E+04</pdfrwt>
<totfact> 0.35704376E-01</totfact>
</mgrwt>
</event>
<event>
12    1  0.1980523E-007  0.1441527E+04  0.7818608E-02  0.8924296E-01
          1   -1    0    0  501    0  0.00000000000E+00  0.00000000000E+00  0.20333474938E+04  0.20333474938E+04  0.00000000000E+00 0. -1.
         -1   -1    0    0    0  501 -0.00000000000E+00 -0.00000000000E+00 -0.25549018159E+03  0.25549018159E+03  0.00000000000E+00 0.  1.
         23    2    1    2    0    0 -0.11523653018E+03 -0.40150120789E+03  0.68986364995E+03  0.81152389309E+03  0.90423977494E+02 0.  0.
        254    2    1    2    0    0  0.11523653018E+03  0.40150120789E+03  0.10879936622E+04  0.14773137823E+04  0.90787836432E+03 0.  0.
        -24    2    4    4    0    0 -0.37348884347E+03  0.50022630069E+02  0.33919664038E+03  0.51327426181E+03  0.79999545470E+02 0.  0.
         24    2    4    4    0    0  0.48872537365E+03  0.35147857782E+03  0.74879702184E+03  0.96403952045E+03  0.79281369498E+02 0.  0.
         13    1    3    3    0    0  0.38792687910E+01 -0.29618248200E+02  0.97975177778E+02  0.10242765649E+03  0.00000000000E+00 0. -1.
        -13    1    3    3    0    0 -0.11911579897E+03 -0.37188295969E+03  0.59188847217E+03  0.70909623660E+03  0.00000000000E+00 0.  1.
          2    1    6    6  502    0  0.31576895674E+03  0.19200641216E+03  0.49836575308E+03  0.62043929613E+03  0.00000000000E+00 0. -1.
          1    1    5    5  503    0 -0.54919834794E+02  0.14873642461E+02  0.93420374382E+02  0.10938363609E+03  0.00000000000E+00 0. -1.
         -2    1    5    5    0  503 -0.31856900868E+03  0.35148987608E+02  0.24577626600E+03  0.40389062573E+03  0.00000000000E+00 0.  1.
         -1    1    6    6    0  502  0.17295641691E+03  0.15947216566E+03  0.25043126876E+03  0.34360022431E+03  0.00000000000E+00 0.  1.
<mgrwt>
<rscale>  0 0.14415274E+04</rscale>
<asrwt>0</asrwt>
<pdfrwt beam="1">  1        1 0.31282268E+00 0.14415274E+04</pdfrwt>
<pdfrwt beam="2">  1       -1 0.39306183E-01 0.14415274E+04</pdfrwt>
<totfact> 0.17305098E+01</totfact>
</mgrwt>
</event>
<event>
12    1  0.1980523E-007  0.1118206E+04  0.7818608E-02  0.9187626E-01
         -1   -1    0    0    0  501 -0.00000000000E+00  0.00000000000E+00  0.98124191363E+02  0.98124191363E+02  0.00000000000E+00 0.  1.
          1   -1    0    0  501    0  0.00000000000E+00 -0.00000000000E+00 -0.31857205751E+04  0.31857205751E+04  0.00000000000E+00 0. -1.
         23    2    1    2    0    0  0.92815542130E+02  0.15121772777E+03 -0.49387601798E+03  0.53285966973E+03  0.92435817956E+02 0.  0.
        254    2    1    2    0    0 -0.92815542130E+02 -0.15121772777E+03 -0.25937203657E+04  0.27509850967E+04  0.89947325731E+03 0.  0.
        -24    2    4    4    0    0 -0.15762682952E+03  0.26131690418E+03 -0.19758727671E+04  0.20009184145E+04  0.80427409374E+02 0.  0.
         24    2    4    4    0    0  0.64811287390E+02 -0.41253463195E+03 -0.61784759867E+03  0.75006668218E+03  0.80492527584E+02 0.  0.
         11    1    3    3    0    0  0.44037398547E+02  0.10985487435E+02 -0.18006877530E+03  0.18570066570E+03  0.00000000000E+00 0. -1.
        -11    1    3    3    0    0  0.48778143583E+02  0.14023224034E+03 -0.31380724268E+03  0.34715900403E+03  0.00000000000E+00 0.  1.
          4    1    6    6  502    0  0.83301273323E+02 -0.34227622269E+03 -0.52354723590E+03  0.63102600816E+03  0.00000000000E+00 0. -1.
          3    1    5    5  503    0 -0.11527447053E+02  0.48379136075E+02 -0.18692403479E+03  0.19342703437E+03  0.00000000000E+00 0. -1.
         -4    1    5    5    0  503 -0.14609938247E+03  0.21293776811E+03 -0.17889487323E+04  0.18074913802E+04  0.00000000000E+00 0.  1.
         -3    1    6    6    0  502 -0.18489985933E+02 -0.70258409261E+02 -0.94300362770E+02  0.11904067402E+03  0.00000000000E+00 0.  1.
<mgrwt>
<rscale>  0 0.11182062E+04</rscale>
<asrwt>0</asrwt>
<pdfrwt beam="1">  1        1 0.49011082E+00 0.11182062E+04</pdfrwt>
<pdfrwt beam="2">  1       -1 0.15096031E-01 0.11182062E+04</pdfrwt>
<totfact> 0.14408025E+01</totfact>
</mgrwt>
</event>
<event>
12    1  0.1980523E-007  0.1885203E+04  0.7818608E-02  0.8662257E-01
          2   -1    0    0  501    0  0.00000000000E+00  0.00000000000E+00  0.11409828719E+04  0.11409828719E+04  0.00000000000E+00 0. -1.
         -2   -1    0    0    0  501 -0.00000000000E+00 -0.00000000000E+00 -0.77871256101E+03  0.77871256101E+03  0.00000000000E+00 0.  1.
         23    2    1    2    0    0  0.70069108478E+03  0.17084075160E+03  0.21499679976E+03  0.75786766786E+03  0.89360054738E+02 0.  0.
        254    2    1    2    0    0 -0.70069108478E+03 -0.17084075160E+03  0.14727351109E+03  0.11618277650E+04  0.89888804074E+03 0.  0.
        -24    2    4    4    0    0  0.19909061634E+03  0.52753805012E+02  0.16559159369E+02  0.22204223431E+03  0.81292746285E+02 0.  0.
         24    2    4    4    0    0 -0.89978170113E+03 -0.22359455661E+03  0.13071435172E+03  0.93978553070E+03  0.80678166420E+02 0.  0.
         13    1    3    3    0    0  0.39715464224E+03  0.12253256997E+03  0.85422753024E+02  0.42431484454E+03  0.00000000000E+00 0.  1.
        -13    1    3    3    0    0  0.30353644254E+03  0.48308181627E+02  0.12957404673E+03  0.33355282332E+03  0.00000000000E+00 0. -1.
          2    1    6    6  502    0 -0.19566039521E+03 -0.42903687235E+02 -0.46045339544E+01  0.20036196836E+03  0.00000000000E+00 0. -1.
          1    1    5    5  503    0  0.10511859785E+03  0.13512611404E+02  0.46733432083E+02  0.11582971965E+03  0.00000000000E+00 0. -1.
         -2    1    5    5    0  503  0.93972018498E+02  0.39241193609E+02 -0.30174272713E+02  0.10621251466E+03  0.00000000000E+00 0.  1.
         -1    1    6    6    0  502 -0.70412130591E+03 -0.18069086937E+03  0.13531888568E+03  0.73942356234E+03  0.00000000000E+00 0.  1.
<mgrwt>
<rscale>  0 0.18852031E+04</rscale>
<asrwt>0</asrwt>
<pdfrwt beam="1">  1        2 0.17553583E+00 0.18852031E+04</pdfrwt>
<pdfrwt beam="2">  1       -2 0.11980193E+00 0.18852031E+04</pdfrwt>
<totfact> 0.10280793E+01</totfact>
</mgrwt>
</event>
<event>
12    1  0.1980523E-007  0.1168244E+04  0.7818608E-02  0.9141115E-01
         -1   -1    0    0    0  501 -0.00000000000E+00  0.00000000000E+00  0.46518639229E+03  0.46518639229E+03  0.00000000000E+00 0.  1.
          1   -1    0    0  501    0  0.00000000000E+00 -0.00000000000E+00 -0.73346682027E+03  0.73346682027E+03  0.00000000000E+00 0. -1.
         23    2    1    2    0    0 -0.13787989644E+02  0.22196389122E+03 -0.30681922778E+02  0.24227500253E+03  0.91091815240E+02 0.  0.
        254    2    1    2    0    0  0.13787989644E+02 -0.22196389122E+03 -0.23759850520E+03  0.95637821003E+03  0.89930426069E+03 0.  0.
        -24    2    4    4    0    0 -0.37747538670E+03 -0.26836385585E+03 -0.28709786623E+03  0.55147303925E+03  0.84796825005E+02 0.  0.
         24    2    4    4    0    0  0.39126337635E+03  0.46399964628E+02  0.49499361028E+02  0.40490517079E+03  0.79107674728E+02 0.  0.
         11    1    3    3    0    0 -0.43350020480E+02  0.17298741363E+03 -0.21534420077E+01  0.17834939546E+03  0.00000000000E+00 0.  1.
        -11    1    3    3    0    0  0.29562030836E+02  0.48976477591E+02 -0.28528480770E+02  0.63925607071E+02  0.00000000000E+00 0. -1.
          2    1    6    6  502    0  0.20500686503E+03  0.21815273973E+01 -0.75326593465E+01  0.20515680522E+03  0.00000000000E+00 0. -1.
          1    1    5    5  503    0 -0.16806077548E+03 -0.14469795635E+03 -0.93720823950E+02  0.24076028674E+03  0.00000000000E+00 0. -1.
         -2    1    5    5    0  503 -0.20941461122E+03 -0.12366589949E+03 -0.19337704228E+03  0.31071275251E+03  0.00000000000E+00 0.  1.
         -1    1    6    6    0  502  0.18625651131E+03  0.44218437231E+02  0.57032020375E+02  0.19974836557E+03  0.00000000000E+00 0.  1.
<mgrwt>
<rscale>  0 0.11682445E+04</rscale>
<asrwt>0</asrwt>
<pdfrwt beam="1">  1        1 0.11284105E+00 0.11682445E+04</pdfrwt>
<pdfrwt beam="2">  1       -1 0.71567137E-01 0.11682445E+04</pdfrwt>
<totfact> 0.49597113E+01</totfact>
</mgrwt>
</event>
<event>
12    1  0.1980523E-007  0.1228556E+04  0.7818608E-02  0.9088222E-01
         -1   -1    0    0    0  501 -0.00000000000E+00  0.00000000000E+00  0.64891499352E+03  0.64891499352E+03  0.00000000000E+00 0.  1.
          1   -1    0    0  501    0  0.00000000000E+00 -0.00000000000E+00 -0.58148960092E+03  0.58148960092E+03  0.00000000000E+00 0. -1.
         23    2    1    2    0    0 -0.56830707337E+02  0.72721199085E+02 -0.23976753333E+03  0.27219904553E+03  0.89920788776E+02 0.  0.
        254    2    1    2    0    0  0.56830707337E+02 -0.72721199085E+02  0.30719292593E+03  0.95820554891E+03  0.90292429257E+03 0.  0.
        -24    2    4    4    0    0  0.15953182136E+03  0.92583660663E+02  0.57990110036E+03  0.61361979879E+03  0.78878609404E+02 0.  0.
         24    2    4    4    0    0 -0.10270111403E+03 -0.16530485975E+03 -0.27270817443E+03  0.34458575012E+03  0.80600094943E+02 0.  0.
         11    1    3    3    0    0 -0.62883535604E+02  0.40236390370E+02 -0.22295949416E+03  0.23512601344E+03  0.00000000000E+00 0. -1.
        -11    1    3    3    0    0  0.60528282679E+01  0.32484808714E+02 -0.16808039166E+02  0.37073032083E+02  0.00000000000E+00 0.  1.
          2    1    6    6  502    0 -0.12672144007E+01 -0.14370862039E+02 -0.73311007308E+02  0.74717008108E+02  0.00000000000E+00 0. -1.
          3    1    5    5  503    0  0.10105094641E+03  0.25721558326E+02  0.39433718935E+03  0.40789056282E+03  0.00000000000E+00 0. -1.
         -4    1    5    5    0  503  0.58480874950E+02  0.66862102337E+02  0.18556391101E+03  0.20572923597E+03  0.00000000000E+00 0.  1.
         -1    1    6    6    0  502 -0.10143389963E+03 -0.15093399771E+03 -0.19939716712E+03  0.26986874201E+03  0.00000000000E+00 0.  1.
<mgrwt>
<rscale>  0 0.12285558E+04</rscale>
<asrwt>0</asrwt>
<pdfrwt beam="1">  1        1 0.89459938E-01 0.12285558E+04</pdfrwt>
<pdfrwt beam="2">  1       -1 0.99833076E-01 0.12285558E+04</pdfrwt>
<totfact> 0.33879699E+01</totfact>
</mgrwt>
</event>
<event>
12    1  0.1980523E-007  0.1721555E+04  0.7818608E-02  0.8749166E-01
         -2   -1    0    0    0  501 -0.00000000000E+00  0.00000000000E+00  0.10250819830E+04  0.10250819830E+04  0.00000000000E+00 0.  1.
          2   -1    0    0  501    0  0.00000000000E+00 -0.00000000000E+00 -0.72280803725E+03  0.72280803725E+03  0.00000000000E+00 0. -1.
         23    2    1    2    0    0  0.57920072867E+03 -0.97951519288E+02  0.32695987998E+03  0.67842716576E+03  0.91064108771E+02 0.  0.
        254    2    1    2    0    0 -0.57920072867E+03  0.97951519288E+02 -0.24685934207E+02  0.10694628545E+04  0.89334954952E+03 0.  0.
        -24    2    4    4    0    0 -0.26174523445E+03 -0.35749454718E+03 -0.18236105453E+03  0.48661824419E+03  0.85022599025E+02 0.  0.
         24    2    4    4    0    0 -0.31745549421E+03  0.45544606646E+03  0.15767512033E+03  0.58284461033E+03  0.81469540080E+02 0.  0.
         13    1    3    3    0    0  0.41021022400E+03 -0.61743775766E+02  0.27595227966E+03  0.49823125390E+03  0.00000000000E+00 0. -1.
        -13    1    3    3    0    0  0.16899050467E+03 -0.36207743521E+02  0.51007600323E+02  0.18019591186E+03  0.00000000000E+00 0.  1.
          4    1    6    6  502    0 -0.29404495068E+02  0.14453955815E+02 -0.84387681821E+00  0.32775803529E+02  0.00000000000E+00 0. -1.
          1    1    5    5  503    0 -0.47830513701E+02 -0.84158528085E+02 -0.77590730301E+02  0.12405941044E+03  0.00000000000E+00 0. -1.
         -4    1    5    5    0  503 -0.21391472075E+03 -0.27333601909E+03 -0.10477032423E+03  0.36255883375E+03  0.00000000000E+00 0.  1.
         -3    1    6    6    0  502 -0.28805099914E+03  0.44099211065E+03  0.15851899715E+03  0.55006880680E+03  0.00000000000E+00 0.  1.
<mgrwt>
<rscale>  0 0.17215545E+04</rscale>
<asrwt>0</asrwt>
<pdfrwt beam="1">  1        2 0.11120124E+00 0.17215545E+04</pdfrwt>
<pdfrwt beam="2">  1       -2 0.15770492E+00 0.17215545E+04</pdfrwt>
<totfact> 0.97825886E+00</totfact>
</mgrwt>
</event>
<event>
12    1  0.1980523E-007  0.1948879E+04  0.7818608E-02  0.8630901E-01
         -2   -1    0    0    0  501 -0.00000000000E+00  0.00000000000E+00  0.29080275546E+03  0.29080275546E+03  0.00000000000E+00 0.  1.
          2   -1    0    0  501    0  0.00000000000E+00 -0.00000000000E+00 -0.32652111727E+04  0.32652111727E+04  0.00000000000E+00 0. -1.
         23    2    1    2    0    0 -0.62898091739E+03  0.43011464548E+03 -0.12431663139E+04  0.14611687208E+04  0.94530121986E+02 0.  0.
        254    2    1    2    0    0  0.62898091739E+03 -0.43011464548E+03 -0.17312421034E+04  0.20948452074E+04  0.90031195690E+03 0.  0.
        -24    2    4    4    0    0  0.20997241802E+03  0.42111124490E+02  0.22223770428E+02  0.22975057701E+03  0.80185213906E+02 0.  0.
         24    2    4    4    0    0  0.41900849937E+03 -0.47222576997E+03 -0.17534658738E+04  0.18650946304E+04  0.73281029825E+02 0.  0.
         13    1    3    3    0    0 -0.12534822971E+03  0.58142016643E+02 -0.28250841744E+03  0.31448955263E+03  0.00000000000E+00 0. -1.
        -13    1    3    3    0    0 -0.50363268768E+03  0.37197262883E+03 -0.96065789649E+03  0.11466791682E+04  0.00000000000E+00 0.  1.
          4    1    6    6  502    0  0.25005847763E+03 -0.33333112325E+03 -0.11687200733E+04  0.12407842237E+04  0.00000000000E+00 0. -1.
          3    1    5    5  503    0  0.60178070839E+02  0.50361428063E+02  0.32978582783E+01  0.78540114054E+02  0.00000000000E+00 0. -1.
         -4    1    5    5    0  503  0.14979434718E+03 -0.82503035729E+01  0.18925912150E+02  0.15121046295E+03  0.00000000000E+00 0.  1.
         -3    1    6    6    0  502  0.16895002174E+03 -0.13889464672E+03 -0.58474580048E+03  0.62431040670E+03  0.00000000000E+00 0.  1.
<mgrwt>
<rscale>  0 0.19488791E+04</rscale>
<asrwt>0</asrwt>
<pdfrwt beam="1">  1        2 0.50234022E+00 0.19488791E+04</pdfrwt>
<pdfrwt beam="2">  1       -2 0.44738882E-01 0.19488791E+04</pdfrwt>
<totfact> 0.52156638E+00</totfact>
</mgrwt>
</event>
<event>
12    1  0.1980523E-007  0.3559342E+04  0.7818608E-02  0.8099869E-01
         -1   -1    0    0    0  501 -0.00000000000E+00  0.00000000000E+00  0.13142452619E+04  0.13142452619E+04  0.00000000000E+00 0.  1.
          1   -1    0    0  501    0  0.00000000000E+00 -0.00000000000E+00 -0.24099225754E+04  0.24099225754E+04  0.00000000000E+00 0. -1.
         23    2    1    2    0    0 -0.41706662034E+02  0.16618324047E+04 -0.42608281982E+03  0.17185158328E+04  0.91234375840E+02 0.  0.
        254    2    1    2    0    0  0.41706662034E+02 -0.16618324047E+04 -0.66959449368E+03  0.20056520045E+04  0.90047586878E+03 0.  0.
        -24    2    4    4    0    0  0.43284959453E+03 -0.52847238459E+03 -0.26793624220E+03  0.73860403864E+03  0.84286791650E+02 0.  0.
         24    2    4    4    0    0 -0.39114293250E+03 -0.11333600201E+04 -0.40165825148E+03  0.12670479658E+04  0.81138572933E+02 0.  0.
         13    1    3    3    0    0 -0.45887447987E+02  0.48383566876E+03 -0.14945327144E+03  0.50846719913E+03  0.00000000000E+00 0. -1.
        -13    1    3    3    0    0  0.41807859534E+01  0.11779967359E+04 -0.27662954838E+03  0.12100486336E+04  0.00000000000E+00 0.  1.
          2    1    6    6  502    0 -0.32670186205E+03 -0.84570617630E+03 -0.31522481488E+03  0.95985401349E+03  0.00000000000E+00 0. -1.
          3    1    5    5  503    0  0.40121402901E+03 -0.51386402264E+03 -0.26462437439E+03  0.70360144284E+03  0.00000000000E+00 0. -1.
         -4    1    5    5    0  503  0.31635565516E+02 -0.14608361946E+02 -0.33118678186E+01  0.35002595799E+02  0.00000000000E+00 0.  1.
         -1    1    6    6    0  502 -0.64441070443E+02 -0.28765384377E+03 -0.86433436601E+02  0.30719395234E+03  0.00000000000E+00 0.  1.
<mgrwt>
<rscale>  0 0.35593423E+04</rscale>
<asrwt>0</asrwt>
<pdfrwt beam="1">  1        1 0.37075732E+00 0.35593423E+04</pdfrwt>
<pdfrwt beam="2">  1       -1 0.20219158E+00 0.35593423E+04</pdfrwt>
<totfact> 0.18453040E-01</totfact>
</mgrwt>
</event>
<event>
12    1  0.1980523E-007  0.2214302E+04  0.7818608E-02  0.8512499E-01
         -1   -1    0    0    0  501 -0.00000000000E+00  0.00000000000E+00  0.85083185005E+03  0.85083185005E+03  0.00000000000E+00 0.  1.
          1   -1    0    0  501    0  0.00000000000E+00 -0.00000000000E+00 -0.14406878623E+04  0.14406878623E+04  0.00000000000E+00 0. -1.
         23    2    1    2    0    0  0.71593061430E+03  0.52483174504E+03 -0.61501357408E+01  0.89249708190E+03  0.92239969246E+02 0.  0.
        254    2    1    2    0    0 -0.71593061430E+03 -0.52483174504E+03 -0.58370587647E+03  0.13990226304E+04  0.91024544221E+03 0.  0.
        -24    2    4    4    0    0 -0.37499439288E+03 -0.60393243943E+03 -0.71987843759E+03  0.10148250247E+04  0.79307501728E+02 0.  0.
         24    2    4    4    0    0 -0.34093622142E+03  0.79100694392E+02  0.13617256112E+03  0.38419760567E+03  0.81058046304E+02 0.  0.
         11    1    3    3    0    0  0.43841975659E+03  0.28541837309E+03 -0.38533178435E+02  0.52455727667E+03  0.00000000000E+00 0.  1.
        -11    1    3    3    0    0  0.27751085772E+03  0.23941337195E+03  0.32383042694E+02  0.36793980523E+03  0.00000000000E+00 0. -1.
          4    1    6    6  502    0 -0.23185998029E+03  0.19526003914E+02  0.67851652645E+02  0.24237194981E+03  0.00000000000E+00 0. -1.
          1    1    5    5  503    0 -0.26630071906E+03 -0.44533038054E+03 -0.57184618605E+03  0.77216791004E+03  0.00000000000E+00 0. -1.
         -2    1    5    5    0  503 -0.10869367383E+03 -0.15860205889E+03 -0.14803225154E+03  0.24265711469E+03  0.00000000000E+00 0.  1.
         -3    1    6    6    0  502 -0.10907624113E+03  0.59574690478E+02  0.68320908474E+02  0.14182565586E+03  0.00000000000E+00 0.  1.
<mgrwt>
<rscale>  0 0.22143018E+04</rscale>
<asrwt>0</asrwt>
<pdfrwt beam="1">  1        1 0.22164429E+00 0.22143018E+04</pdfrwt>
<pdfrwt beam="2">  1       -1 0.13089721E+00 0.22143018E+04</pdfrwt>
<totfact> 0.32650956E+00</totfact>
</mgrwt>
</event>
<event>
12    1  0.1980523E-007  0.3827726E+04  0.7818608E-02  0.8040231E-01
         -2   -1    0    0    0  501 -0.00000000000E+00  0.00000000000E+00  0.19654441047E+04  0.19654441047E+04  0.00000000000E+00 0.  1.
          2   -1    0    0  501    0  0.00000000000E+00 -0.00000000000E+00 -0.18636354033E+04  0.18636354033E+04  0.00000000000E+00 0. -1.
         23    2    1    2    0    0  0.11339890566E+04  0.88948265323E+03 -0.10430779813E+04  0.17812911264E+04  0.88745879301E+02 0.  0.
        254    2    1    2    0    0 -0.11339890566E+04 -0.88948265323E+03  0.11448866827E+04  0.20477883817E+04  0.89753059501E+03 0.  0.
        -24    2    4    4    0    0 -0.92477231518E+03 -0.35426744997E+03  0.32829912386E+03  0.10463320530E+04  0.79505907198E+02 0.  0.
         24    2    4    4    0    0 -0.20921674138E+03 -0.53521520325E+03  0.81658755888E+03  0.10014563287E+04  0.76632749669E+02 0.  0.
         13    1    3    3    0    0  0.58646548371E+03  0.40410013649E+03 -0.50740512074E+03  0.87447049146E+03  0.00000000000E+00 0.  1.
        -13    1    3    3    0    0  0.54752357286E+03  0.48538251674E+03 -0.53567286057E+03  0.90682063493E+03  0.00000000000E+00 0. -1.
          4    1    6    6  502    0 -0.63569556561E+02 -0.12712487988E+03  0.15208226725E+03  0.20816061015E+03  0.00000000000E+00 0. -1.
          3    1    5    5  503    0 -0.23456597929E+03 -0.59881029658E+02  0.59694830085E+02  0.24933994685E+03  0.00000000000E+00 0. -1.
         -4    1    5    5    0  503 -0.69020633589E+03 -0.29438642032E+03  0.26860429377E+03  0.79699210611E+03  0.00000000000E+00 0.  1.
         -3    1    6    6    0  502 -0.14564718482E+03 -0.40809032337E+03  0.66450529163E+03  0.79329571856E+03  0.00000000000E+00 0.  1.
<mgrwt>
<rscale>  0 0.38277258E+04</rscale>
<asrwt>0</asrwt>
<pdfrwt beam="1">  1        2 0.28671314E+00 0.38277258E+04</pdfrwt>
<pdfrwt beam="2">  1       -2 0.30237602E+00 0.38277258E+04</pdfrwt>
<totfact> 0.19559340E-01</totfact>
</mgrwt>
</event>
<event>
12    1  0.1980523E-007  0.1437895E+04  0.7818608E-02  0.8926836E-01
         -2   -1    0    0    0  501 -0.00000000000E+00  0.00000000000E+00  0.97678225746E+03  0.97678225746E+03  0.00000000000E+00 0.  1.
          2   -1    0    0  501    0  0.00000000000E+00 -0.00000000000E+00 -0.52917201654E+03  0.52917201654E+03  0.00000000000E+00 0. -1.
         23    2    1    2    0    0 -0.34350954929E+03 -0.21707927803E+02 -0.13290371362E+03  0.39045753078E+03  0.12776400773E+03 0.  0.
        254    2    1    2    0    0  0.34350954929E+03  0.21707927803E+02  0.58051395454E+03  0.11154967432E+04  0.88818156259E+03 0.  0.
        -24    2    4    4    0    0  0.20180876653E+03  0.71464869038E+02  0.80296860114E+03  0.83524139936E+03  0.83878573081E+02 0.  0.
         24    2    4    4    0    0  0.14170078276E+03 -0.49756941234E+02 -0.22245464661E+03  0.28025534386E+03  0.80635742243E+02 0.  0.
         11    1    3    3    0    0 -0.30058443573E+03 -0.77571337205E+01 -0.15709380450E+03  0.33924863970E+03  0.00000000000E+00 0.  1.
        -11    1    3    3    0    0 -0.42925113555E+02 -0.13950794083E+02  0.24190090875E+02  0.51208891082E+02  0.00000000000E+00 0. -1.
          4    1    6    6  502    0  0.81493876998E+02 -0.21916420699E+02 -0.18673195069E+03  0.20491559944E+03  0.00000000000E+00 0. -1.
          3    1    5    5  503    0  0.15259065898E+03  0.12782589601E+02  0.55216969125E+03  0.57300843950E+03  0.00000000000E+00 0. -1.
         -4    1    5    5    0  503  0.49218107549E+02  0.58682279436E+02  0.25079890989E+03  0.26223295985E+03  0.00000000000E+00 0.  1.
         -3    1    6    6    0  502  0.60206905763E+02 -0.27840520535E+02 -0.35722695912E+02  0.75339744415E+02  0.00000000000E+00 0.  1.
<mgrwt>
<rscale>  0 0.14378955E+04</rscale>
<asrwt>0</asrwt>
<pdfrwt beam="1">  1        2 0.81411080E-01 0.14378955E+04</pdfrwt>
<pdfrwt beam="2">  1       -2 0.15027419E+00 0.14378955E+04</pdfrwt>
<totfact> 0.16662690E+01</totfact>
</mgrwt>
</event>
<event>
12    1  0.2244873E-007  0.2514640E+04  0.7818608E-02  0.8397789E-01
          2   -1    0    0  501    0  0.00000000000E+00  0.00000000000E+00  0.15945363898E+04  0.15945363898E+04  0.00000000000E+00 0. -1.
         -2   -1    0    0    0  501 -0.00000000000E+00 -0.00000000000E+00 -0.99141860356E+03  0.99141860356E+03  0.00000000000E+00 0.  1.
         23    2    1    2    0    0  0.93443019564E+03 -0.30684361021E+03 -0.23290306723E+03  0.10148683695E+04  0.91657935141E+02 0.  0.
        254    2    1    2    0    0 -0.93443019564E+03  0.30684361021E+03  0.83602085347E+03  0.15710866238E+04  0.89558334092E+03 0.  0.
        -24    2    4    4    0    0 -0.36639318245E+02 -0.13102665488E+03 -0.11043502722E+03  0.19274446093E+03  0.80275201975E+02 0.  0.
         24    2    4    4    0    0 -0.89779087740E+03  0.43787026509E+03  0.94645588069E+03  0.13783421629E+04  0.79306717291E+02 0.  0.
         13    1    3    3    0    0  0.44458775939E+03 -0.19089512371E+03 -0.96975788500E+02  0.49346076603E+03  0.00000000000E+00 0. -1.
        -13    1    3    3    0    0  0.48984243625E+03 -0.11594848650E+03 -0.13592727873E+03  0.52140760349E+03  0.00000000000E+00 0.  1.
          4    1    6    6  502    0 -0.16392795845E+03  0.10969796027E+03  0.20993277020E+03  0.28805865037E+03  0.00000000000E+00 0. -1.
          3    1    5    5  503    0 -0.59245524336E+02 -0.89699562543E+02 -0.57595236899E+02  0.12195595511E+03  0.00000000000E+00 0. -1.
         -4    1    5    5    0  503  0.22606206091E+02 -0.41327092337E+02 -0.52839790317E+02  0.70788505816E+02  0.00000000000E+00 0.  1.
         -3    1    6    6    0  502 -0.73386291895E+03  0.32817230483E+03  0.73652311048E+03  0.10902835126E+04  0.00000000000E+00 0.  1.
<mgrwt>
<rscale>  0 0.25146396E+04</rscale>
<asrwt>0</asrwt>
<pdfrwt beam="1">  1        2 0.24531329E+00 0.25146396E+04</pdfrwt>
<pdfrwt beam="2">  1       -2 0.15252594E+00 0.25146396E+04</pdfrwt>
<totfact> 0.28677206E+00</totfact>
</mgrwt>
</event>
<event>
12    1  0.1980523E-007  0.1100938E+04  0.7818608E-02  0.9204278E-01
         -1   -1    0    0    0  501 -0.00000000000E+00  0.00000000000E+00  0.17181293387E+03  0.17181293387E+03  0.00000000000E+00 0.  1.
          1   -1    0    0  501    0  0.00000000000E+00 -0.00000000000E+00 -0.17636410299E+04  0.17636410299E+04  0.00000000000E+00 0. -1.
         23    2    1    2    0    0 -0.13714274385E+03 -0.68420489995E+02 -0.16719496234E+03  0.24439610337E+03  0.91026393228E+02 0.  0.
        254    2    1    2    0    0  0.13714274385E+03  0.68420489995E+02 -0.14246331336E+04  0.16910578604E+04  0.89811337034E+03 0.  0.
        -24    2    4    4    0    0 -0.27691209558E+03 -0.67802967700E+02 -0.11073897446E+04  0.11461422893E+04  0.77798134279E+02 0.  0.
         24    2    4    4    0    0  0.41405483944E+03  0.13622345769E+03 -0.31724338903E+03  0.54491557108E+03  0.79318164626E+02 0.  0.
         13    1    3    3    0    0 -0.66196047325E+02 -0.60516818837E+02 -0.14342044336E+03  0.16915562544E+03  0.00000000000E+00 0. -1.
        -13    1    3    3    0    0 -0.70946696529E+02 -0.79036711574E+01 -0.23774518988E+02  0.75240477931E+02  0.00000000000E+00 0.  1.
          4    1    6    6  502    0  0.34791104622E+03  0.13721240198E+03 -0.24571751859E+03  0.44748903705E+03  0.00000000000E+00 0. -1.
          1    1    5    5  503    0 -0.24309827695E+03 -0.36920886037E+02 -0.99146629424E+03  0.10215015109E+04  0.00000000000E+00 0. -1.
         -2    1    5    5    0  503 -0.33813818631E+02 -0.30882081662E+02 -0.11592345036E+03  0.12464077841E+03  0.00000000000E+00 0.  1.
         -3    1    6    6    0  502  0.66143793218E+02 -0.98894428166E+00 -0.71525870435E+02  0.97426534032E+02  0.00000000000E+00 0.  1.
<mgrwt>
<rscale>  0 0.11009384E+04</rscale>
<asrwt>0</asrwt>
<pdfrwt beam="1">  1        1 0.27132940E+00 0.11009384E+04</pdfrwt>
<pdfrwt beam="2">  1       -1 0.26432758E-01 0.11009384E+04</pdfrwt>
<totfact> 0.54739134E+01</totfact>
</mgrwt>
</event>
<event>
12    1  0.1980523E-007  0.1918842E+04  0.7818608E-02  0.8645534E-01
         -2   -1    0    0    0  501 -0.00000000000E+00  0.00000000000E+00  0.73805867873E+03  0.73805867873E+03  0.00000000000E+00 0.  1.
          2   -1    0    0  501    0  0.00000000000E+00 -0.00000000000E+00 -0.12471758591E+04  0.12471758591E+04  0.00000000000E+00 0. -1.
         23    2    1    2    0    0 -0.40221701350E+03 -0.61843474150E+03 -0.25722333704E+03  0.78641204380E+03  0.89666058671E+02 0.  0.
        254    2    1    2    0    0  0.40221701350E+03  0.61843474150E+03 -0.25189384338E+03  0.11988224941E+04  0.91076056597E+03 0.  0.
        -24    2    4    4    0    0 -0.28506690043E+03  0.20685648623E+03 -0.21892002865E+02  0.36162365124E+03  0.78991529453E+02 0.  0.
         24    2    4    4    0    0  0.68728391393E+03  0.41157825527E+03 -0.23000184051E+03  0.83719884284E+03  0.79026686958E+02 0.  0.
         13    1    3    3    0    0 -0.25423908753E+03 -0.44781029024E+03 -0.20728716619E+03  0.55510317864E+03  0.00000000000E+00 0. -1.
        -13    1    3    3    0    0 -0.14797792597E+03 -0.17062445127E+03 -0.49936170848E+02  0.23130886516E+03  0.00000000000E+00 0.  1.
          2    1    6    6  502    0  0.61693924016E+03  0.39497933496E+03 -0.21413048015E+03  0.76320021202E+03  0.00000000000E+00 0. -1.
          3    1    5    5  503    0 -0.23035788041E+03  0.15620404100E+03  0.14412728019E+02  0.27869729497E+03  0.00000000000E+00 0. -1.
         -4    1    5    5    0  503 -0.54709020023E+02  0.50652445233E+02 -0.36304730884E+02  0.82926356272E+02  0.00000000000E+00 0.  1.
         -1    1    6    6    0  502  0.70344673775E+02  0.16598920308E+02 -0.15871360362E+02  0.73998630823E+02  0.00000000000E+00 0.  1.
<mgrwt>
<rscale>  0 0.19188423E+04</rscale>
<asrwt>0</asrwt>
<pdfrwt beam="1">  1        2 0.19187321E+00 0.19188423E+04</pdfrwt>
<pdfrwt beam="2">  1       -2 0.11354749E+00 0.19188423E+04</pdfrwt>
<totfact> 0.10101059E+01</totfact>
</mgrwt>
</event>
<event>
12    1  0.1980523E-007  0.2230017E+04  0.7818608E-02  0.8506037E-01
         -2   -1    0    0    0  501 -0.00000000000E+00  0.00000000000E+00  0.48102589153E+03  0.48102589153E+03  0.00000000000E+00 0.  1.
          2   -1    0    0  501    0  0.00000000000E+00 -0.00000000000E+00 -0.25845668967E+04  0.25845668967E+04  0.00000000000E+00 0. -1.
         23    2    1    2    0    0 -0.25823216344E+02 -0.88286996032E+03 -0.47978301336E+03  0.10092496280E+04  0.90922309167E+02 0.  0.
        254    2    1    2    0    0  0.25823216344E+02  0.88286996032E+03 -0.16237579918E+04  0.20563431603E+04  0.90101663219E+03 0.  0.
        -24    2    4    4    0    0 -0.57747585157E+02  0.85623140444E+03 -0.17079277384E+04  0.19130658300E+04  0.79603446092E+02 0.  0.
         24    2    4    4    0    0  0.83570801501E+02  0.26638555879E+02  0.84169746604E+02  0.14327733029E+03  0.75829780487E+02 0.  0.
         13    1    3    3    0    0 -0.17242559751E+02 -0.68054465709E+03 -0.41185932014E+03  0.79565472144E+03  0.00000000000E+00 0. -1.
        -13    1    3    3    0    0 -0.85806565933E+01 -0.20232530323E+03 -0.67923693223E+02  0.21359490653E+03  0.00000000000E+00 0.  1.
          4    1    6    6  502    0 -0.68369350929E+01  0.35288218197E+00 -0.86728874020E+01  0.11049306910E+02  0.00000000000E+00 0. -1.
          3    1    5    5  503    0 -0.45601707027E+02  0.21119792536E+03 -0.39697440266E+03  0.45196543643E+03  0.00000000000E+00 0. -1.
         -4    1    5    5    0  503 -0.12145878130E+02  0.64503347908E+03 -0.13109533358E+04  0.14611003936E+04  0.00000000000E+00 0.  1.
         -3    1    6    6    0  502  0.90407736594E+02  0.26285673698E+02  0.92842634006E+02  0.13222802338E+03  0.00000000000E+00 0.  1.
<mgrwt>
<rscale>  0 0.22300167E+04</rscale>
<asrwt>0</asrwt>
<pdfrwt beam="1">  1        2 0.39762567E+00 0.22300167E+04</pdfrwt>
<pdfrwt beam="2">  1       -2 0.74003984E-01 0.22300167E+04</pdfrwt>
<totfact> 0.46610283E+00</totfact>
</mgrwt>
</event>
<event>
12    1  0.1980523E-007  0.3888178E+04  0.7818608E-02  0.8027493E-01
          2   -1    0    0  501    0  0.00000000000E+00  0.00000000000E+00  0.40131661163E+04  0.40131661163E+04  0.00000000000E+00 0. -1.
         -2   -1    0    0    0  501 -0.00000000000E+00 -0.00000000000E+00 -0.94177049425E+03  0.94177049425E+03  0.00000000000E+00 0.  1.
         23    2    1    2    0    0  0.16993975516E+04  0.63821394732E+03  0.18266072429E+04  0.25769007927E+04  0.93030073455E+02 0.  0.
        254    2    1    2    0    0 -0.16993975516E+04 -0.63821394732E+03  0.12447883792E+04  0.23780358179E+04  0.90015951991E+03 0.  0.
        -24    2    4    4    0    0 -0.13031469179E+04 -0.86204238858E+03  0.95038343807E+03  0.18303693613E+04  0.75593319962E+02 0.  0.
         24    2    4    4    0    0 -0.39625063371E+03  0.22382844126E+03  0.29440494110E+03  0.54766645661E+03  0.78425394582E+02 0.  0.
         11    1    3    3    0    0  0.39354429878E+03  0.16266592983E+03  0.48183977247E+03  0.64304501099E+03  0.00000000000E+00 0.  1.
        -11    1    3    3    0    0  0.13058532528E+04  0.47554801749E+03  0.13447674704E+04  0.19338557817E+04  0.00000000000E+00 0. -1.
          4    1    6    6  502    0 -0.41868678617E+02  0.41541459303E+02  0.65279879687E+02  0.87978075576E+02  0.00000000000E+00 0. -1.
          1    1    5    5  503    0 -0.58681611839E+03 -0.34329618093E+03  0.41118629838E+03  0.79453105453E+03  0.00000000000E+00 0. -1.
         -2    1    5    5    0  503 -0.71633079950E+03 -0.51874620765E+03  0.53919713970E+03  0.10358383067E+04  0.00000000000E+00 0.  1.
         -3    1    6    6    0  502 -0.35438195509E+03  0.18228698196E+03  0.22912506141E+03  0.45968838103E+03  0.00000000000E+00 0.  1.
<mgrwt>
<rscale>  0 0.38881777E+04</rscale>
<asrwt>0</asrwt>
<pdfrwt beam="1">  1        2 0.61741016E+00 0.38881777E+04</pdfrwt>
<pdfrwt beam="2">  1       -2 0.14488777E+00 0.38881777E+04</pdfrwt>
<totfact> 0.86935419E-02</totfact>
</mgrwt>
</event>
<event>
12    1  0.1980523E-007  0.2320332E+04  0.7818608E-02  0.8469947E-01
          2   -1    0    0  501    0  0.00000000000E+00  0.00000000000E+00  0.29511496495E+04  0.29511496495E+04  0.00000000000E+00 0. -1.
         -2   -1    0    0    0  501 -0.00000000000E+00 -0.00000000000E+00 -0.45608847973E+03  0.45608847973E+03  0.00000000000E+00 0.  1.
         23    2    1    2    0    0  0.11091775612E+03  0.44835616610E+03  0.23343323275E+04  0.23813577743E+04  0.91822837703E+02 0.  0.
        254    2    1    2    0    0 -0.11091775612E+03 -0.44835616610E+03  0.16072884231E+03  0.10258803550E+04  0.90181524812E+03 0.  0.
        -24    2    4    4    0    0  0.30355145959E+03 -0.18794328412E+03  0.33849582965E+03  0.49831984507E+03  0.79227991491E+02 0.  0.
         24    2    4    4    0    0 -0.41446921571E+03 -0.26041288198E+03 -0.17776698735E+03  0.52756050994E+03  0.84376477668E+02 0.  0.
         13    1    3    3    0    0  0.62742079979E+02  0.37953171147E+03  0.19977235082E+04  0.20344237769E+04  0.00000000000E+00 0. -1.
        -13    1    3    3    0    0  0.48175676144E+02  0.68824454632E+02  0.33660881925E+03  0.34693399736E+03  0.00000000000E+00 0.  1.
          2    1    6    6  502    0 -0.24612220394E+03 -0.18597945015E+03 -0.14391415738E+03  0.34040531700E+03  0.00000000000E+00 0. -1.
          3    1    5    5  503    0  0.14045583608E+03 -0.52441813829E+02  0.17583635292E+03  0.23107662958E+03  0.00000000000E+00 0. -1.
         -4    1    5    5    0  503  0.16309562350E+03 -0.13550147030E+03  0.16265947673E+03  0.26724321550E+03  0.00000000000E+00 0.  1.
         -1    1    6    6    0  502 -0.16834701177E+03 -0.74433431834E+02 -0.33852829968E+02  0.18715519293E+03  0.00000000000E+00 0.  1.
<mgrwt>
<rscale>  0 0.23203322E+04</rscale>
<asrwt>0</asrwt>
<pdfrwt beam="1">  1        2 0.45402301E+00 0.23203322E+04</pdfrwt>
<pdfrwt beam="2">  1       -2 0.70167460E-01 0.23203322E+04</pdfrwt>
<totfact> 0.31282663E+00</totfact>
</mgrwt>
</event>
<event>
12    1  0.1980523E-007  0.1955475E+04  0.7818608E-02  0.8627725E-01
         -1   -1    0    0    0  501 -0.00000000000E+00  0.00000000000E+00  0.12036453180E+04  0.12036453180E+04  0.00000000000E+00 0.  1.
          1   -1    0    0  501    0  0.00000000000E+00 -0.00000000000E+00 -0.79422934930E+03  0.79422934930E+03  0.00000000000E+00 0. -1.
         23    2    1    2    0    0 -0.17957847110E+02  0.66233305060E+03 -0.23490100847E+03  0.70856122853E+03  0.88729795468E+02 0.  0.
        254    2    1    2    0    0  0.17957847110E+02 -0.66233305060E+03  0.64431697712E+03  0.12893134387E+04  0.89898677527E+03 0.  0.
        -24    2    4    4    0    0  0.43372814401E+03 -0.19975859799E+03  0.34447641733E+03  0.59419647674E+03  0.79886485091E+02 0.  0.
         24    2    4    4    0    0 -0.41577029690E+03 -0.46257445261E+03  0.29984055980E+03  0.69511696200E+03  0.80269331344E+02 0.  0.
         11    1    3    3    0    0 -0.43945714145E+02  0.19800319140E+03 -0.85376343248E+02  0.22005819590E+03  0.00000000000E+00 0. -1.
        -11    1    3    3    0    0  0.25987867035E+02  0.46432985920E+03 -0.14952466522E+03  0.48850303263E+03  0.00000000000E+00 0.  1.
          2    1    6    6  502    0 -0.33853047569E+03 -0.35208995908E+03  0.20205723247E+03  0.52858050234E+03  0.00000000000E+00 0. -1.
          3    1    5    5  503    0  0.15940877652E+03 -0.11107722690E+03  0.11548949876E+03  0.22602462851E+03  0.00000000000E+00 0. -1.
         -4    1    5    5    0  503  0.27431936749E+03 -0.88681371087E+02  0.22898691856E+03  0.36817184823E+03  0.00000000000E+00 0.  1.
         -1    1    6    6    0  502 -0.77239821214E+02 -0.11048449353E+03  0.97783327328E+02  0.16653645966E+03  0.00000000000E+00 0.  1.
<mgrwt>
<rscale>  0 0.19554748E+04</rscale>
<asrwt>0</asrwt>
<pdfrwt beam="1">  1        1 0.12218913E+00 0.19554748E+04</pdfrwt>
<pdfrwt beam="2">  1       -1 0.18517620E+00 0.19554748E+04</pdfrwt>
<totfact> 0.39805588E+00</totfact>
</mgrwt>
</event>
<event>
12    1  0.1980523E-007  0.1125671E+04  0.7818608E-02  0.9180526E-01
          1   -1    0    0  501    0  0.00000000000E+00  0.00000000000E+00  0.89965157609E+03  0.89965157609E+03  0.00000000000E+00 0. -1.
         -1   -1    0    0    0  501 -0.00000000000E+00 -0.00000000000E+00 -0.35211861076E+03  0.35211861076E+03  0.00000000000E+00 0.  1.
         23    2    1    2    0    0  0.87573389605E+02  0.11944368683E+03 -0.20027990350E+02  0.17632911990E+03  0.93567864343E+02 0.  0.
        254    2    1    2    0    0 -0.87573389605E+02 -0.11944368683E+03  0.56756095567E+03  0.10754410669E+04  0.90139456243E+03 0.  0.
        -24    2    4    4    0    0 -0.10958613801E+03 -0.33386597661E+03 -0.97332481553E+02  0.37261390600E+03  0.76758706349E+02 0.  0.
         24    2    4    4    0    0  0.22012748407E+02  0.21442228978E+03  0.66489343722E+03  0.70282716094E+03  0.73629177990E+02 0.  0.
         13    1    3    3    0    0  0.61528965289E+00  0.79002184911E+02 -0.14020205959E+02  0.80238955484E+02  0.00000000000E+00 0. -1.
        -13    1    3    3    0    0  0.86958099952E+02  0.40441501920E+02 -0.60077843907E+01  0.96090164419E+02  0.00000000000E+00 0.  1.
          2    1    6    6  502    0  0.17632777194E+02  0.21045943870E+02  0.15631593346E+03  0.15870890850E+03  0.00000000000E+00 0. -1.
          1    1    5    5  503    0  0.75354727896E+01 -0.18800581081E+02  0.57099527964E+01  0.21043972061E+02  0.00000000000E+00 0. -1.
         -2    1    5    5    0  503 -0.11712161080E+03 -0.31506539553E+03 -0.10304243435E+03  0.35156993394E+03  0.00000000000E+00 0.  1.
         -1    1    6    6    0  502  0.43799712136E+01  0.19337634591E+03  0.50857750377E+03  0.54411825244E+03  0.00000000000E+00 0.  1.
<mgrwt>
<rscale>  0 0.11256715E+04</rscale>
<asrwt>0</asrwt>
<pdfrwt beam="1">  1        1 0.13840793E+00 0.11256715E+04</pdfrwt>
<pdfrwt beam="2">  1       -1 0.54172094E-01 0.11256715E+04</pdfrwt>
<totfact> 0.62317860E+01</totfact>
</mgrwt>
</event>
<event>
12    1  0.1980523E-007  0.2426776E+04  0.7818608E-02  0.8429546E-01
          2   -1    0    0  501    0  0.00000000000E+00  0.00000000000E+00  0.99026308990E+03  0.99026308990E+03  0.00000000000E+00 0. -1.
         -2   -1    0    0    0  501 -0.00000000000E+00 -0.00000000000E+00 -0.14867874803E+04  0.14867874803E+04  0.00000000000E+00 0.  1.
         23    2    1    2    0    0  0.46058025951E+03  0.93669793208E+03 -0.18855010600E+03  0.10646422237E+04  0.91513554174E+02 0.  0.
        254    2    1    2    0    0 -0.46058025951E+03 -0.93669793208E+03 -0.30797428439E+03  0.14124083465E+04  0.90028439172E+03 0.  0.
        -24    2    4    4    0    0  0.24591389119E+03 -0.12508501660E+03 -0.14192634132E+03  0.32050425623E+03  0.80374054513E+02 0.  0.
         24    2    4    4    0    0 -0.70649415070E+03 -0.81161291548E+03 -0.16604794307E+03  0.10919040903E+04  0.82662648160E+02 0.  0.
         11    1    3    3    0    0  0.45095191380E+02  0.67338198507E+02 -0.37624737771E+02  0.89351162030E+02  0.00000000000E+00 0.  1.
        -11    1    3    3    0    0  0.41548506813E+03  0.86935973357E+03 -0.15092536823E+03  0.97529106167E+03  0.00000000000E+00 0. -1.
          2    1    6    6  502    0 -0.50758587687E+03 -0.63681758667E+03 -0.12086494769E+03  0.82327905152E+03  0.00000000000E+00 0. -1.
          3    1    5    5  503    0  0.18485648683E+03 -0.54780316133E+02 -0.11052395580E+03  0.22223489502E+03  0.00000000000E+00 0. -1.
         -4    1    5    5    0  503  0.61057404363E+02 -0.70304700472E+02 -0.31402385524E+02  0.98269361210E+02  0.00000000000E+00 0.  1.
         -1    1    6    6    0  502 -0.19890827383E+03 -0.17479532881E+03 -0.45182995378E+02  0.26862503875E+03  0.00000000000E+00 0.  1.
<mgrwt>
<rscale>  0 0.24267763E+04</rscale>
<asrwt>0</asrwt>
<pdfrwt beam="1">  1        2 0.15234817E+00 0.24267763E+04</pdfrwt>
<pdfrwt beam="2">  1       -2 0.22873653E+00 0.24267763E+04</pdfrwt>
<totfact> 0.19961807E+00</totfact>
</mgrwt>
</event>
<event>
12    1  0.1980523E-007  0.1374548E+04  0.7818608E-02  0.8972451E-01
          2   -1    0    0  501    0  0.00000000000E+00  0.00000000000E+00  0.21683909336E+04  0.21683909336E+04  0.00000000000E+00 0. -1.
         -2   -1    0    0    0  501 -0.00000000000E+00 -0.00000000000E+00 -0.21783213742E+03  0.21783213742E+03  0.00000000000E+00 0.  1.
         23    2    1    2    0    0 -0.37335136082E+03  0.87711245272E+02  0.51219567150E+03  0.64771441679E+03  0.10052392076E+03 0.  0.
        254    2    1    2    0    0  0.37335136082E+03 -0.87711245272E+02  0.14383631247E+04  0.17385086542E+04  0.89801968865E+03 0.  0.
        -24    2    4    4    0    0  0.34288797615E+03  0.34834127823E+03  0.99331355385E+03  0.11099105312E+04  0.79471760035E+02 0.  0.
         24    2    4    4    0    0  0.30463384667E+02 -0.43605252351E+03  0.44504957084E+03  0.62859812306E+03  0.77438096229E+02 0.  0.
         11    1    3    3    0    0 -0.10863323560E+03  0.62692926269E+02  0.21518443310E+03  0.24907011689E+03  0.00000000000E+00 0.  1.
        -11    1    3    3    0    0 -0.26471812522E+03  0.25018319002E+02  0.29701123840E+03  0.39864429989E+03  0.00000000000E+00 0. -1.
          4    1    6    6  502    0  0.19057794516E+02 -0.21098390991E+02  0.22477361767E+02  0.36243253527E+02  0.00000000000E+00 0. -1.
          3    1    5    5  503    0  0.42194460702E+02  0.82831122494E+02  0.15921153609E+03  0.18436290460E+03  0.00000000000E+00 0. -1.
         -4    1    5    5    0  503  0.30069351545E+03  0.26551015574E+03  0.83410201776E+03  0.92554762658E+03  0.00000000000E+00 0.  1.
         -3    1    6    6    0  502  0.11405590151E+02 -0.41495413251E+03  0.42257220908E+03  0.59235486953E+03  0.00000000000E+00 0.  1.
<mgrwt>
<rscale>  0 0.13745475E+04</rscale>
<asrwt>0</asrwt>
<pdfrwt beam="1">  1        2 0.33359859E+00 0.13745475E+04</pdfrwt>
<pdfrwt beam="2">  1       -2 0.33512638E-01 0.13745475E+04</pdfrwt>
<totfact> 0.43722681E+01</totfact>
</mgrwt>
</event>
<event>
12    1  0.1980523E-007  0.1234843E+04  0.7818608E-02  0.9082894E-01
         -2   -1    0    0    0  501 -0.00000000000E+00  0.00000000000E+00  0.50851406760E+03  0.50851406760E+03  0.00000000000E+00 0.  1.
          2   -1    0    0  501    0  0.00000000000E+00 -0.00000000000E+00 -0.74965349280E+03  0.74965349280E+03  0.00000000000E+00 0. -1.
         23    2    1    2    0    0 -0.24679697422E+03 -0.10003515859E+03 -0.13827435543E+03  0.31439113839E+03  0.93841414575E+02 0.  0.
        254    2    1    2    0    0  0.24679697422E+03  0.10003515859E+03 -0.10286506977E+03  0.94377642201E+03  0.89956485744E+03 0.  0.
        -24    2    4    4    0    0 -0.31949385728E+03 -0.39923382625E+02  0.47690151556E+02  0.33532901032E+03  0.80628737334E+02 0.  0.
         24    2    4    4    0    0  0.56629083150E+03  0.13995854122E+03 -0.15055522132E+03  0.60844741170E+03  0.85250683456E+02 0.  0.
         11    1    3    3    0    0 -0.76985117509E+02 -0.36756373474E+02 -0.95766650546E+02  0.12825361853E+03  0.00000000000E+00 0. -1.
        -11    1    3    3    0    0 -0.16981185671E+03 -0.63278785118E+02 -0.42507704887E+02  0.18613751986E+03  0.00000000000E+00 0.  1.
          4    1    6    6  502    0  0.50140854977E+03  0.13832783262E+03 -0.15676085071E+03  0.54324864231E+03  0.00000000000E+00 0. -1.
          3    1    5    5  503    0 -0.23901480125E+03 -0.31263477815E+02 -0.64563842046E+00  0.24105164822E+03  0.00000000000E+00 0. -1.
         -4    1    5    5    0  503 -0.80479056035E+02 -0.86599048094E+01  0.48335789977E+02  0.94277362098E+02  0.00000000000E+00 0.  1.
         -3    1    6    6    0  502  0.64882281734E+02  0.16307085994E+01  0.62056293828E+01  0.65198769388E+02  0.00000000000E+00 0.  1.
<mgrwt>
<rscale>  0 0.12348431E+04</rscale>
<asrwt>0</asrwt>
<pdfrwt beam="1">  1        2 0.11533131E+00 0.12348431E+04</pdfrwt>
<pdfrwt beam="2">  1       -2 0.78232934E-01 0.12348431E+04</pdfrwt>
<totfact> 0.53715229E+01</totfact>
</mgrwt>
</event>
<event>
12    1  0.1980523E-007  0.4022883E+04  0.7818608E-02  0.7999946E-01
          1   -1    0    0  501    0  0.00000000000E+00  0.00000000000E+00  0.34752100354E+04  0.34752100354E+04  0.00000000000E+00 0. -1.
         -1   -1    0    0    0  501 -0.00000000000E+00 -0.00000000000E+00 -0.11642166610E+04  0.11642166610E+04  0.00000000000E+00 0.  1.
         23    2    1    2    0    0  0.34759784357E+03  0.11295621551E+04 -0.63158572463E+03  0.13431638383E+04  0.91943710116E+02 0.  0.
        254    2    1    2    0    0 -0.34759784357E+03 -0.11295621551E+04  0.29425790990E+04  0.32962628581E+04  0.89991230264E+03 0.  0.
        -24    2    4    4    0    0  0.51993732420E+02 -0.10388763681E+04  0.18090504291E+04  0.20883379458E+04  0.80774159153E+02 0.  0.
         24    2    4    4    0    0 -0.39959157599E+03 -0.90685786980E+02  0.11335286700E+04  0.12079249122E+04  0.79359992256E+02 0.  0.
         13    1    3    3    0    0  0.15980582410E+03  0.48783230271E+03 -0.22397550137E+03  0.56007435417E+03  0.00000000000E+00 0. -1.
        -13    1    3    3    0    0  0.18779201948E+03  0.64172985236E+03 -0.40761022326E+03  0.78308948409E+03  0.00000000000E+00 0.  1.
          4    1    6    6  502    0 -0.19041200399E+03 -0.74586193332E+02  0.48650760386E+03  0.52773997396E+03  0.00000000000E+00 0. -1.
          1    1    5    5  503    0  0.55994266047E+02 -0.10068705170E+04  0.17225785068E+04  0.19960461687E+04  0.00000000000E+00 0. -1.
         -2    1    5    5    0  503 -0.40005336267E+01 -0.32005851102E+02  0.86471922298E+02  0.92291777098E+02  0.00000000000E+00 0.  1.
         -3    1    6    6    0  502 -0.20917957200E+03 -0.16099593648E+02  0.64702106610E+03  0.68018493826E+03  0.00000000000E+00 0.  1.
<mgrwt>
<rscale>  0 0.40228833E+04</rscale>
<asrwt>0</asrwt>
<pdfrwt beam="1">  1        1 0.53464769E+00 0.40228833E+04</pdfrwt>
<pdfrwt beam="2">  1       -1 0.17911026E+00 0.40228833E+04</pdfrwt>
<totfact> 0.43059684E-02</totfact>
</mgrwt>
</event>
<event>
12    1  0.2311124E-007  0.4289703E+04  0.7818608E-02  0.7948525E-01
          2   -1    0    0  501    0  0.00000000000E+00  0.00000000000E+00  0.32979325259E+04  0.32979325259E+04  0.00000000000E+00 0. -1.
         -2   -1    0    0    0  501 -0.00000000000E+00 -0.00000000000E+00 -0.13949308643E+04  0.13949308643E+04  0.00000000000E+00 0.  1.
         23    2    1    2    0    0  0.19247383790E+04  0.64676704352E+03  0.60780648658E+03  0.21214710644E+04  0.91023709747E+02 0.  0.
        254    2    1    2    0    0 -0.19247383790E+04 -0.64676704352E+03  0.12951951750E+04  0.25713923259E+04  0.90088984684E+03 0.  0.
        -24    2    4    4    0    0 -0.61077450312E+02 -0.19410051813E+03 -0.53129044726E+02  0.22565012467E+03  0.81791303304E+02 0.  0.
         24    2    4    4    0    0 -0.18636609286E+04 -0.45266652538E+03  0.13483242197E+04  0.23457422012E+04  0.79932676409E+02 0.  0.
         11    1    3    3    0    0  0.12851541240E+04  0.39490593496E+03  0.37595227380E+03  0.13960343592E+04  0.00000000000E+00 0. -1.
        -11    1    3    3    0    0  0.63958425499E+03  0.25186110855E+03  0.23185421278E+03  0.72543670517E+03  0.00000000000E+00 0.  1.
          2    1    6    6  502    0 -0.13925755384E+04 -0.36759535032E+03  0.98788641716E+03  0.17465143987E+04  0.00000000000E+00 0. -1.
          1    1    5    5  503    0 -0.47167947325E+02 -0.16649101814E+03 -0.74154040624E+02  0.18826283786E+03  0.00000000000E+00 0. -1.
         -4    1    5    5    0  503 -0.13909502987E+02 -0.27609499989E+02  0.21024995898E+02  0.37387286817E+02  0.00000000000E+00 0.  1.
         -1    1    6    6    0  502 -0.47108539029E+03 -0.85071175065E+02  0.36043780256E+03  0.59922780250E+03  0.00000000000E+00 0.  1.
<mgrwt>
<rscale>  0 0.42897030E+04</rscale>
<asrwt>0</asrwt>
<pdfrwt beam="1">  1        2 0.50737423E+00 0.42897030E+04</pdfrwt>
<pdfrwt beam="2">  1       -2 0.21460475E+00 0.42897030E+04</pdfrwt>
<totfact> 0.92003697E-02</totfact>
</mgrwt>
</event>
<event>
12    1  0.1980523E-007  0.1285215E+04  0.7818608E-02  0.9041373E-01
         -2   -1    0    0    0  501 -0.00000000000E+00  0.00000000000E+00  0.52192440531E+03  0.52192440531E+03  0.00000000000E+00 0.  1.
          2   -1    0    0  501    0  0.00000000000E+00 -0.00000000000E+00 -0.79119587551E+03  0.79119587551E+03  0.00000000000E+00 0. -1.
         23    2    1    2    0    0  0.24060457605E+01  0.31580202130E+03 -0.25043279148E+02  0.32923774943E+03  0.89630486488E+02 0.  0.
        254    2    1    2    0    0 -0.24060457605E+01 -0.31580202130E+03 -0.24422819106E+03  0.98388253139E+03  0.89924452768E+03 0.  0.
        -24    2    4    4    0    0  0.34937051115E+03 -0.29407010192E+03  0.11122381056E+03  0.47708664014E+03  0.81877635879E+02 0.  0.
         24    2    4    4    0    0 -0.35177655691E+03 -0.21731919374E+02 -0.35545200162E+03  0.50679589125E+03  0.79227063681E+02 0.  0.
         13    1    3    3    0    0  0.38325504201E+02  0.75857013673E+02 -0.15785397840E+02  0.86442521832E+02  0.00000000000E+00 0.  1.
        -13    1    3    3    0    0 -0.35919458441E+02  0.23994500762E+03 -0.92578813080E+01  0.24279522760E+03  0.00000000000E+00 0. -1.
          4    1    6    6  502    0 -0.17827973239E+03 -0.19049938533E+02 -0.12608551004E+03  0.21918968721E+03  0.00000000000E+00 0. -1.
          1    1    5    5  503    0  0.47687145086E+02 -0.18919374486E+02 -0.75317163305E+01  0.51852996907E+02  0.00000000000E+00 0. -1.
         -2    1    5    5    0  503  0.30168336607E+03 -0.27515072744E+03  0.11875552689E+03  0.42523364323E+03  0.00000000000E+00 0.  1.
         -3    1    6    6    0  502 -0.17349682452E+03 -0.26819808406E+01 -0.22936649158E+03  0.28760620404E+03  0.00000000000E+00 0.  1.
<mgrwt>
<rscale>  0 0.12852151E+04</rscale>
<asrwt>0</asrwt>
<pdfrwt beam="1">  1        2 0.12172244E+00 0.12852151E+04</pdfrwt>
<pdfrwt beam="2">  1       -2 0.80296062E-01 0.12852151E+04</pdfrwt>
<totfact> 0.47038182E+01</totfact>
</mgrwt>
</event>
<event>
12    1  0.1980523E-007  0.4644345E+04  0.7818608E-02  0.7885842E-01
         -1   -1    0    0    0  501 -0.00000000000E+00  0.00000000000E+00  0.21163709918E+04  0.21163709918E+04  0.00000000000E+00 0.  1.
          1   -1    0    0  501    0  0.00000000000E+00 -0.00000000000E+00 -0.25479863731E+04  0.25479863731E+04  0.00000000000E+00 0. -1.
         23    2    1    2    0    0  0.19461252037E+04 -0.16785465617E+03  0.88070981204E+03  0.21447148942E+04  0.92594332556E+02 0.  0.
        254    2    1    2    0    0 -0.19461252037E+04  0.16785465617E+03 -0.13123251933E+04  0.25196424707E+04  0.90045670247E+03 0.  0.
        -24    2    4    4    0    0 -0.93731265851E+02 -0.17485974679E+03  0.13894980413E+02  0.21436569540E+03  0.79988121843E+02 0.  0.
         24    2    4    4    0    0 -0.18523939378E+04  0.34271440296E+03 -0.13262201737E+04  0.23052767753E+04  0.81391636694E+02 0.  0.
         11    1    3    3    0    0  0.15281303444E+04 -0.16899965732E+03  0.70133949397E+03  0.16898580767E+04  0.00000000000E+00 0. -1.
        -11    1    3    3    0    0  0.41799485932E+03  0.11450011477E+01  0.17937031806E+03  0.45485681752E+03  0.00000000000E+00 0.  1.
          2    1    6    6  502    0 -0.57999270025E+03  0.14165629957E+03 -0.44100344302E+03  0.74225472468E+03  0.00000000000E+00 0. -1.
          1    1    5    5  503    0  0.11383961414E+02 -0.28079421298E+02  0.15035817902E+02  0.33824906473E+02  0.00000000000E+00 0. -1.
         -2    1    5    5    0  503 -0.10511522727E+03 -0.14678032550E+03 -0.11408374891E+01  0.18054078893E+03  0.00000000000E+00 0.  1.
         -1    1    6    6    0  502 -0.12724012376E+04  0.20105810339E+03 -0.88521673069E+03  0.15630220506E+04  0.00000000000E+00 0.  1.
<mgrwt>
<rscale>  0 0.46443447E+04</rscale>
<asrwt>0</asrwt>
<pdfrwt beam="1">  1        1 0.39199790E+00 0.46443447E+04</pdfrwt>
<pdfrwt beam="2">  1       -1 0.32559554E+00 0.46443447E+04</pdfrwt>
<totfact> 0.20962932E-02</totfact>
</mgrwt>
</event>
<event>
12    1  0.1980523E-007  0.2072410E+04  0.7818608E-02  0.8573495E-01
         -2   -1    0    0    0  501 -0.00000000000E+00  0.00000000000E+00  0.63327451956E+03  0.63327451956E+03  0.00000000000E+00 0. -1.
          2   -1    0    0  501    0  0.00000000000E+00 -0.00000000000E+00 -0.16955065676E+04  0.16955065676E+04  0.00000000000E+00 0.  1.
         23    2    1    2    0    0 -0.13753940276E+03  0.66744452928E+03  0.11881313394E+03  0.69766334008E+03  0.90654775485E+02 0.  0.
        254    2    1    2    0    0  0.13753940276E+03 -0.66744452928E+03 -0.11810451819E+04  0.16311177470E+04  0.89514138323E+03 0.  0.
        -24    2    4    4    0    0 -0.35801610783E+03 -0.15463686106E+03 -0.52247176740E+03  0.65700322497E+03  0.81168944970E+02 0.  0.
         24    2    4    4    0    0  0.49555551059E+03 -0.51280766823E+03 -0.65857341454E+03  0.97411452208E+03  0.81444405019E+02 0.  0.
         13    1    3    3    0    0 -0.28192207093E+02  0.14006380237E+03  0.63117718089E+02  0.15619383987E+03  0.00000000000E+00 0. -1.
        -13    1    3    3    0    0 -0.10934719567E+03  0.52738072691E+03  0.55695415850E+02  0.54146950021E+03  0.00000000000E+00 0.  1.
          4    1    6    6  502    0  0.26461586403E+02 -0.55297091891E+02 -0.73049028809E+02  0.95363224235E+02  0.00000000000E+00 0. -1.
          3    1    5    5  503    0 -0.37642490073E+02  0.27475700667E+01 -0.80384098471E+02  0.88803769554E+02  0.00000000000E+00 0. -1.
         -4    1    5    5    0  503 -0.32037361776E+03 -0.15738443112E+03 -0.44208766893E+03  0.56819945542E+03  0.00000000000E+00 0.  1.
         -3    1    6    6    0  502  0.46909392419E+03 -0.45751057633E+03 -0.58552438573E+03  0.87875129784E+03  0.00000000000E+00 0.  1.
<mgrwt>
<rscale>  0 0.20724103E+04</rscale>
<asrwt>0</asrwt>
<pdfrwt beam="1">  1        2 0.26084716E+00 0.20724103E+04</pdfrwt>
<pdfrwt beam="2">  1       -2 0.97426850E-01 0.20724103E+04</pdfrwt>
<totfact> 0.80031143E+00</totfact>
</mgrwt>
</event>
<event>
12    1  0.1980523E-007  0.3879539E+04  0.7818608E-02  0.8029298E-01
          1   -1    0    0  501    0  0.00000000000E+00  0.00000000000E+00  0.30246370149E+04  0.30246370149E+04  0.00000000000E+00 0. -1.
         -1   -1    0    0    0  501 -0.00000000000E+00 -0.00000000000E+00 -0.12440188656E+04  0.12440188656E+04  0.00000000000E+00 0.  1.
         23    2    1    2    0    0  0.88680165087E+02 -0.16097389492E+04  0.18044696375E+04  0.24214394185E+04  0.90191622004E+02 0.  0.
        254    2    1    2    0    0 -0.88680165087E+02  0.16097389492E+04 -0.23851488191E+02  0.18472164620E+04  0.90139675386E+03 0.  0.
        -24    2    4    4    0    0  0.24353789735E+03  0.64581524895E+02 -0.92795536004E+01  0.26465586943E+03  0.80468244068E+02 0.  0.
         24    2    4    4    0    0 -0.33221806244E+03  0.15451574243E+04 -0.14571934590E+02  0.15825605926E+04  0.80033624838E+02 0.  0.
         11    1    3    3    0    0 -0.17187810129E+02 -0.33824204618E+03  0.36630195853E+03  0.49887897074E+03  0.00000000000E+00 0.  1.
        -11    1    3    3    0    0  0.10586797522E+03 -0.12714969030E+04  0.14381676790E+04  0.19225604478E+04  0.00000000000E+00 0. -1.
          4    1    6    6  502    0 -0.42400712227E+02  0.12767557331E+03  0.15644611821E+02  0.13543864403E+03  0.00000000000E+00 0. -1.
          3    1    5    5  503    0  0.64007890443E+02 -0.14784909615E+02  0.13442177605E+02  0.67054423642E+02  0.00000000000E+00 0. -1.
         -4    1    5    5    0  503  0.17953000691E+03  0.79366434510E+02 -0.22721731206E+02  0.19760144579E+03  0.00000000000E+00 0.  1.
         -3    1    6    6    0  502 -0.28981735021E+03  0.14174818510E+04 -0.30216546411E+02  0.14471219486E+04  0.00000000000E+00 0.  1.
<mgrwt>
<rscale>  0 0.38795389E+04</rscale>
<asrwt>0</asrwt>
<pdfrwt beam="1">  1        1 0.46532877E+00 0.38795389E+04</pdfrwt>
<pdfrwt beam="2">  1       -1 0.19138752E+00 0.38795389E+04</pdfrwt>
<totfact> 0.78267110E-02</totfact>
</mgrwt>
</event>
<event>
12    1  0.1980523E-007  0.1388950E+04  0.7818608E-02  0.8961856E-01
          1   -1    0    0  501    0  0.00000000000E+00  0.00000000000E+00  0.15961351291E+04  0.15961351291E+04  0.00000000000E+00 0. -1.
         -1   -1    0    0    0  501 -0.00000000000E+00 -0.00000000000E+00 -0.30216466692E+03  0.30216466692E+03  0.00000000000E+00 0.  1.
         23    2    1    2    0    0 -0.32303927252E+03 -0.22597930059E+03  0.33514548315E+03  0.52516207047E+03  0.89731206939E+02 0.  0.
        254    2    1    2    0    0  0.32303927252E+03  0.22597930059E+03  0.95882497901E+03  0.13731377255E+04  0.90041149314E+03 0.  0.
        -24    2    4    4    0    0  0.62411482398E+03  0.81346208082E+02  0.68775982544E+03  0.93568380333E+03  0.79712503651E+02 0.  0.
         24    2    4    4    0    0 -0.30107555146E+03  0.14463309251E+03  0.27106515357E+03  0.43745392219E+03  0.79526080163E+02 0.  0.
         13    1    3    3    0    0 -0.14960030385E+03 -0.11006176450E+03  0.10042614278E+03  0.21113799533E+03  0.00000000000E+00 0. -1.
        -13    1    3    3    0    0 -0.17343896868E+03 -0.11591753609E+03  0.23471934037E+03  0.31402407515E+03  0.00000000000E+00 0.  1.
          2    1    6    6  502    0 -0.67919178398E+02  0.45479290950E+02  0.11068405579E+03  0.13759484331E+03  0.00000000000E+00 0. -1.
          1    1    5    5  503    0  0.11800051382E+03 -0.48061808189E+01  0.16572329441E+03  0.20349798757E+03  0.00000000000E+00 0. -1.
         -2    1    5    5    0  503  0.50611431016E+03  0.86152388901E+02  0.52203653103E+03  0.73218581575E+03  0.00000000000E+00 0.  1.
         -1    1    6    6    0  502 -0.23315637306E+03  0.99153801562E+02  0.16038109778E+03  0.29985907888E+03  0.00000000000E+00 0.  1.
<mgrwt>
<rscale>  0 0.13889502E+04</rscale>
<asrwt>0</asrwt>
<pdfrwt beam="1">  1        1 0.24555925E+00 0.13889502E+04</pdfrwt>
<pdfrwt beam="2">  1       -1 0.46486873E-01 0.13889502E+04</pdfrwt>
<totfact> 0.25245804E+01</totfact>
</mgrwt>
</event>
<event>
12    1  0.1980523E-007  0.1984123E+04  0.7818608E-02  0.8614080E-01
         -2   -1    0    0    0  501 -0.00000000000E+00  0.00000000000E+00  0.34581435968E+03  0.34581435968E+03  0.00000000000E+00 0.  1.
          2   -1    0    0  501    0  0.00000000000E+00 -0.00000000000E+00 -0.28459947405E+04  0.28459947405E+04  0.00000000000E+00 0. -1.
         23    2    1    2    0    0 -0.22093718175E+03 -0.74506104054E+03 -0.80198665854E+03  0.11191908497E+04  0.74002467427E+02 0.  0.
        254    2    1    2    0    0  0.22093718175E+03  0.74506104054E+03 -0.16981937223E+04  0.20726182505E+04  0.89886333855E+03 0.  0.
        -24    2    4    4    0    0  0.71148066755E+01  0.72019211338E+03 -0.57184240966E+03  0.92303393508E+03  0.79123973452E+02 0.  0.
         24    2    4    4    0    0  0.21382237507E+03  0.24868927163E+02 -0.11263513127E+04  0.11495843154E+04  0.80860046569E+02 0.  0.
         11    1    3    3    0    0 -0.20854461155E+03 -0.73132592360E+03 -0.79266890023E+03  0.10984773311E+04  0.00000000000E+00 0. -1.
        -11    1    3    3    0    0 -0.12392570194E+02 -0.13735116938E+02 -0.93177583060E+01  0.20713518609E+02  0.00000000000E+00 0.  1.
          2    1    6    6  502    0  0.11550203640E+03  0.20274705193E+02 -0.40790404742E+03  0.42442607835E+03  0.00000000000E+00 0. -1.
          1    1    5    5  503    0 -0.19059651005E+02  0.47278905809E+03 -0.41131808752E+03  0.62695720178E+03  0.00000000000E+00 0. -1.
         -2    1    5    5    0  503  0.26174457680E+02  0.24740305529E+03 -0.16052432214E+03  0.29607673330E+03  0.00000000000E+00 0.  1.
         -1    1    6    6    0  502  0.98320338675E+02  0.45942219694E+01 -0.71844726524E+03  0.72515823708E+03  0.00000000000E+00 0.  1.
<mgrwt>
<rscale>  0 0.19841228E+04</rscale>
<asrwt>0</asrwt>
<pdfrwt beam="1">  1        2 0.43784534E+00 0.19841228E+04</pdfrwt>
<pdfrwt beam="2">  1       -2 0.53202210E-01 0.19841228E+04</pdfrwt>
<totfact> 0.67303703E+00</totfact>
</mgrwt>
</event>
<event>
12    1  0.1980523E-007  0.1711398E+04  0.7818608E-02  0.8754890E-01
         -1   -1    0    0    0  501 -0.00000000000E+00  0.00000000000E+00  0.27181672266E+03  0.27181672266E+03  0.00000000000E+00 0.  1.
          1   -1    0    0  501    0  0.00000000000E+00 -0.00000000000E+00 -0.26938044793E+04  0.26938044793E+04  0.00000000000E+00 0. -1.
         23    2    1    2    0    0  0.14742851370E+03  0.58823826839E+03 -0.67586797838E+03  0.91212541412E+03  0.86115154545E+02 0.  0.
        254    2    1    2    0    0 -0.14742851370E+03 -0.58823826839E+03 -0.17461197783E+04  0.20534957879E+04  0.89451173475E+03 0.  0.
        -24    2    4    4    0    0  0.11690380927E+03 -0.74794778297E+03 -0.12536597136E+04  0.14667038926E+04  0.80406744276E+02 0.  0.
         24    2    4    4    0    0 -0.26433232297E+03  0.15970951458E+03 -0.49246006468E+03  0.58679189521E+03  0.80181712170E+02 0.  0.
         13    1    3    3    0    0  0.28930300719E+02  0.27108629992E+03 -0.33142223821E+03  0.42914501545E+03  0.00000000000E+00 0. -1.
        -13    1    3    3    0    0  0.11849821298E+03  0.31715196847E+03 -0.34444574017E+03  0.48298039867E+03  0.00000000000E+00 0.  1.
          4    1    6    6  502    0 -0.10014087953E+03  0.74434005503E+02 -0.13209922486E+03  0.18171082008E+03  0.00000000000E+00 0. -1.
          3    1    5    5  503    0 -0.56918785274E+01 -0.44540444275E+01 -0.18139802409E+02  0.19526608112E+02  0.00000000000E+00 0. -1.
         -4    1    5    5    0  503  0.12259568780E+03 -0.74349373854E+03 -0.12355199112E+04  0.14471772845E+04  0.00000000000E+00 0.  1.
         -3    1    6    6    0  502 -0.16419144344E+03  0.85275509081E+02 -0.36036083983E+03  0.40508107513E+03  0.00000000000E+00 0.  1.
<mgrwt>
<rscale>  0 0.17113984E+04</rscale>
<asrwt>0</asrwt>
<pdfrwt beam="1">  1        1 0.41443146E+00 0.17113984E+04</pdfrwt>
<pdfrwt beam="2">  1       -1 0.41817957E-01 0.17113984E+04</pdfrwt>
<totfact> 0.53015624E+00</totfact>
</mgrwt>
</event>
<event>
12    1  0.1980523E-007  0.2120733E+04  0.7818608E-02  0.8552165E-01
         -2   -1    0    0    0  501 -0.00000000000E+00  0.00000000000E+00  0.13402858245E+04  0.13402858245E+04  0.00000000000E+00 0.  1.
          2   -1    0    0  501    0  0.00000000000E+00 -0.00000000000E+00 -0.83890825749E+03  0.83890825749E+03  0.00000000000E+00 0. -1.
         23    2    1    2    0    0  0.66016699211E+03  0.37918897678E+03  0.63128943317E+03  0.99320170292E+03  0.91206012211E+02 0.  0.
        254    2    1    2    0    0 -0.66016699211E+03 -0.37918897678E+03 -0.12991186614E+03  0.11859923791E+04  0.90005338327E+03 0.  0.
        -24    2    4    4    0    0 -0.77650626450E+03 -0.16846672809E+03  0.14480033543E+03  0.81168058402E+03  0.80716888261E+02 0.  0.
         24    2    4    4    0    0  0.11633927239E+03 -0.21072224869E+03 -0.27471220158E+03  0.37431179508E+03  0.81876943323E+02 0.  0.
         11    1    3    3    0    0  0.42294471126E+03  0.26262402116E+03  0.46293238128E+03  0.67982350277E+03  0.00000000000E+00 0.  1.
        -11    1    3    3    0    0  0.23722228085E+03  0.11656495562E+03  0.16835705189E+03  0.31337820015E+03  0.00000000000E+00 0. -1.
          2    1    6    6  502    0  0.67199591829E+02 -0.17676062975E+03 -0.17269378615E+03  0.25609226686E+03  0.00000000000E+00 0. -1.
          3    1    5    5  503    0 -0.28001249523E+03 -0.26702508124E+02  0.31321203158E+02  0.28302126986E+03  0.00000000000E+00 0. -1.
         -4    1    5    5    0  503 -0.49649376927E+03 -0.14176421997E+03  0.11347913228E+03  0.52865931416E+03  0.00000000000E+00 0.  1.
         -1    1    6    6    0  502  0.49139680559E+02 -0.33961618948E+02 -0.10201841543E+03  0.11821952822E+03  0.00000000000E+00 0.  1.
<mgrwt>
<rscale>  0 0.21207327E+04</rscale>
<asrwt>0</asrwt>
<pdfrwt beam="1">  1        2 0.12906281E+00 0.21207327E+04</pdfrwt>
<pdfrwt beam="2">  1       -2 0.20619782E+00 0.21207327E+04</pdfrwt>
<totfact> 0.36005351E+00</totfact>
</mgrwt>
</event>
<event>
12    1  0.1980523E-007  0.1498647E+04  0.7818608E-02  0.8885353E-01
         -2   -1    0    0    0  501 -0.00000000000E+00  0.00000000000E+00  0.17662516428E+03  0.17662516428E+03  0.00000000000E+00 0.  1.
          2   -1    0    0  501    0  0.00000000000E+00 -0.00000000000E+00 -0.31789681027E+04  0.31789681027E+04  0.00000000000E+00 0. -1.
         23    2    1    2    0    0 -0.44627322126E+03  0.15364871103E+03 -0.85295449014E+03  0.97843282860E+03  0.83855372057E+02 0.  0.
        254    2    1    2    0    0  0.44627322126E+03 -0.15364871103E+03 -0.21493884483E+04  0.23771604384E+04  0.89902910620E+03 0.  0.
        -24    2    4    4    0    0 -0.96080672001E+02 -0.32265263408E+03 -0.36513007054E+03  0.50292776457E+03  0.79247398367E+02 0.  0.
         24    2    4    4    0    0  0.54235389326E+03  0.16900392306E+03 -0.17842583778E+04  0.18742326739E+04  0.80374657122E+02 0.  0.
         13    1    3    3    0    0 -0.15159112665E+03  0.74574360794E+02 -0.23695833249E+03  0.29101624749E+03  0.00000000000E+00 0.  1.
        -13    1    3    3    0    0 -0.29468209461E+03  0.79074350232E+02 -0.61599615765E+03  0.68741658111E+03  0.00000000000E+00 0. -1.
          4    1    6    6  502    0  0.12960635100E+03  0.17473138807E+02 -0.49873281902E+03  0.51559435758E+03  0.00000000000E+00 0. -1.
          3    1    5    5  503    0  0.31567532489E+01 -0.10037221227E+03 -0.82883888575E+02  0.13020862134E+03  0.00000000000E+00 0. -1.
         -4    1    5    5    0  503 -0.99237425250E+02 -0.22228042181E+03 -0.28224618196E+03  0.37271914322E+03  0.00000000000E+00 0.  1.
         -3    1    6    6    0  502  0.41274754226E+03  0.15153078425E+03 -0.12855255588E+04  0.13586383163E+04  0.00000000000E+00 0.  1.
<mgrwt>
<rscale>  0 0.14986471E+04</rscale>
<asrwt>0</asrwt>
<pdfrwt beam="1">  1        2 0.48907203E+00 0.14986471E+04</pdfrwt>
<pdfrwt beam="2">  1       -2 0.27173102E-01 0.14986471E+04</pdfrwt>
<totfact> 0.16084772E+01</totfact>
</mgrwt>
</event>
<event>
12    1  0.1980523E-007  0.2152727E+04  0.7818608E-02  0.8538366E-01
          1   -1    0    0  501    0  0.00000000000E+00  0.00000000000E+00  0.16811334705E+04  0.16811334705E+04  0.00000000000E+00 0. -1.
         -1   -1    0    0    0  501 -0.00000000000E+00 -0.00000000000E+00 -0.68915305373E+03  0.68915305373E+03  0.00000000000E+00 0.  1.
         23    2    1    2    0    0  0.24421269263E+02 -0.83661986892E+03  0.10477120188E+03  0.84883392527E+03  0.94935896710E+02 0.  0.
        254    2    1    2    0    0 -0.24421269263E+02  0.83661986892E+03  0.88720921493E+03  0.15214525990E+04  0.90947711158E+03 0.  0.
        -24    2    4    4    0    0  0.10666108435E+03  0.91769545227E+03  0.40649831870E+03  0.10117853316E+04  0.70193617970E+02 0.  0.
         24    2    4    4    0    0 -0.13108235362E+03 -0.81075583355E+02  0.48071089622E+03  0.50966726745E+03  0.70156426024E+02 0.  0.
         11    1    3    3    0    0  0.13435083545E+02 -0.82322034028E+03  0.11020851191E+03  0.83067330896E+03  0.00000000000E+00 0. -1.
        -11    1    3    3    0    0  0.10986185718E+02 -0.13399528636E+02 -0.54373100310E+01  0.18160616308E+02  0.00000000000E+00 0.  1.
          2    1    6    6  502    0 -0.12710323443E+01 -0.26252738906E+02  0.10950706206E+03  0.11261713220E+03  0.00000000000E+00 0. -1.
          1    1    5    5  503    0  0.41210117912E+02  0.37724306553E+03  0.20478176928E+03  0.43121476938E+03  0.00000000000E+00 0. -1.
         -2    1    5    5    0  503  0.65450966441E+02  0.54045238675E+03  0.20171654943E+03  0.58057056217E+03  0.00000000000E+00 0.  1.
         -1    1    6    6    0  502 -0.12981132127E+03 -0.54822844449E+02  0.37120383416E+03  0.39705013525E+03  0.00000000000E+00 0.  1.
<mgrwt>
<rscale>  0 0.21527269E+04</rscale>
<asrwt>0</asrwt>
<pdfrwt beam="1">  1        1 0.25863592E+00 0.21527269E+04</pdfrwt>
<pdfrwt beam="2">  1       -1 0.10602355E+00 0.21527269E+04</pdfrwt>
<totfact> 0.37404255E+00</totfact>
</mgrwt>
</event>
<event>
12    1  0.1980523E-007  0.1696178E+04  0.7818608E-02  0.8763547E-01
         -1   -1    0    0    0  501 -0.00000000000E+00  0.00000000000E+00  0.61557616638E+03  0.61557616638E+03  0.00000000000E+00 0.  1.
          1   -1    0    0  501    0  0.00000000000E+00 -0.00000000000E+00 -0.11684258076E+04  0.11684258076E+04  0.00000000000E+00 0. -1.
         23    2    1    2    0    0  0.42736242831E+02 -0.59886641987E+03 -0.26611863602E+03  0.66272494894E+03  0.88982325273E+02 0.  0.
        254    2    1    2    0    0 -0.42736242831E+02  0.59886641987E+03 -0.28673100518E+03  0.11212770250E+04  0.90254092549E+03 0.  0.
        -24    2    4    4    0    0 -0.77936027118E+02  0.68772130657E+02 -0.51900076816E+03  0.53535352322E+03  0.80236944050E+02 0.  0.
         24    2    4    4    0    0  0.35199784287E+02  0.53009428922E+03  0.23226976298E+03  0.58592350180E+03  0.84368992485E+02 0.  0.
         13    1    3    3    0    0  0.70249002634E+02 -0.39662972436E+03 -0.17279841062E+03  0.43830280781E+03  0.00000000000E+00 0. -1.
        -13    1    3    3    0    0 -0.27512759804E+02 -0.20223669551E+03 -0.93320225402E+02  0.22442214114E+03  0.00000000000E+00 0.  1.
          2    1    6    6  502    0  0.47458436509E+02  0.51927852668E+03  0.22295369104E+03  0.56710743234E+03  0.00000000000E+00 0. -1.
          3    1    5    5  503    0 -0.66879182245E+02  0.86993700492E+02 -0.42136278058E+03  0.43541626267E+03  0.00000000000E+00 0. -1.
         -4    1    5    5    0  503 -0.11056844873E+02 -0.18221569835E+02 -0.97637987585E+02  0.99937260546E+02  0.00000000000E+00 0.  1.
         -3    1    6    6    0  502 -0.12258652222E+02  0.10815762535E+02  0.93160719324E+01  0.18816069456E+02  0.00000000000E+00 0.  1.
<mgrwt>
<rscale>  0 0.16961782E+04</rscale>
<asrwt>0</asrwt>
<pdfrwt beam="1">  1        1 0.17975782E+00 0.16961782E+04</pdfrwt>
<pdfrwt beam="2">  1       -1 0.94704026E-01 0.16961782E+04</pdfrwt>
<totfact> 0.11572156E+01</totfact>
</mgrwt>
</event>
<event>
12    1  0.1980523E-007  0.1347273E+04  0.7818608E-02  0.8992895E-01
         -2   -1    0    0    0  501 -0.00000000000E+00  0.00000000000E+00  0.29017086028E+03  0.29017086028E+03  0.00000000000E+00 0.  1.
          2   -1    0    0  501    0  0.00000000000E+00 -0.00000000000E+00 -0.15638594587E+04  0.15638594587E+04  0.00000000000E+00 0. -1.
         23    2    1    2    0    0  0.29362844948E+03 -0.32741703146E+02 -0.64523693016E+03  0.71717565601E+03  0.10354004087E+03 0.  0.
        254    2    1    2    0    0 -0.29362844948E+03  0.32741703146E+02 -0.62845166829E+03  0.11368546630E+04  0.90010962662E+03 0.  0.
        -24    2    4    4    0    0 -0.30135677008E+02  0.24078325035E+03 -0.73330383715E+03  0.77629900169E+03  0.77594392597E+02 0.  0.
         24    2    4    4    0    0 -0.26349277248E+03 -0.20804154720E+03  0.10485216886E+03  0.36055566131E+03  0.79351629319E+02 0.  0.
         13    1    3    3    0    0  0.10069800166E+03 -0.46047285578E+02 -0.32197884410E+03  0.34048614670E+03  0.00000000000E+00 0. -1.
        -13    1    3    3    0    0  0.19293044783E+03  0.13305582432E+02 -0.32325808606E+03  0.37668950931E+03  0.00000000000E+00 0.  1.
          4    1    6    6  502    0 -0.21081960730E+03 -0.20099329745E+03  0.81183367425E+02  0.30238047488E+03  0.00000000000E+00 0. -1.
          3    1    5    5  503    0 -0.36078605360E+02  0.23486269561E+03 -0.72924216051E+03  0.76697866999E+03  0.00000000000E+00 0. -1.
         -4    1    5    5    0  503  0.59429283517E+01  0.59205547373E+01 -0.40616766399E+01  0.93203316957E+01  0.00000000000E+00 0.  1.
         -3    1    6    6    0  502 -0.52673165179E+02 -0.70482497524E+01  0.23668801438E+02  0.58175186430E+02  0.00000000000E+00 0.  1.
<mgrwt>
<rscale>  0 0.13472735E+04</rscale>
<asrwt>0</asrwt>
<pdfrwt beam="1">  1        2 0.24059376E+00 0.13472735E+04</pdfrwt>
<pdfrwt beam="2">  1       -2 0.44641671E-01 0.13472735E+04</pdfrwt>
<totfact> 0.54307906E+01</totfact>
</mgrwt>
</event>
<event>
12    1  0.1980523E-007  0.3763551E+04  0.7818608E-02  0.8054022E-01
         -1   -1    0    0    0  501 -0.00000000000E+00  0.00000000000E+00  0.13901759196E+04  0.13901759196E+04  0.00000000000E+00 0.  1.
          1   -1    0    0  501    0  0.00000000000E+00 -0.00000000000E+00 -0.25472160187E+04  0.25472160187E+04  0.00000000000E+00 0. -1.
         23    2    1    2    0    0  0.10576315985E+04  0.76434992103E+03  0.71035240548E+03  0.14885819355E+04  0.91979556451E+02 0.  0.
        254    2    1    2    0    0 -0.10576315985E+04 -0.76434992103E+03 -0.18673925045E+04  0.24488100028E+04  0.89816494244E+03 0.  0.
        -24    2    4    4    0    0 -0.11242397885E+04 -0.73538001804E+03 -0.13049402490E+04  0.18748162138E+04  0.85836524975E+02 0.  0.
         24    2    4    4    0    0  0.66608189982E+02 -0.28969902981E+02 -0.56245225555E+03  0.57399378902E+03  0.88546167629E+02 0.  0.
         11    1    3    3    0    0  0.77784425865E+02  0.32070635388E+02  0.33495303133E+02  0.90558698607E+02  0.00000000000E+00 0. -1.
        -11    1    3    3    0    0  0.97984717268E+03  0.73227928564E+03  0.67685710235E+03  0.13980232369E+04  0.00000000000E+00 0.  1.
          4    1    6    6  502    0  0.17261264752E+01 -0.10756086380E+02 -0.41788681176E+01  0.11667726666E+02  0.00000000000E+00 0. -1.
          1    1    5    5  503    0 -0.90773348390E+02 -0.46540683140E+02 -0.12879738284E+03  0.16430034020E+03  0.00000000000E+00 0. -1.
         -2    1    5    5    0  503 -0.10334664401E+04 -0.68883933490E+03 -0.11761428662E+04  0.17105158736E+04  0.00000000000E+00 0.  1.
         -3    1    6    6    0  502  0.64882063506E+02 -0.18213816602E+02 -0.55827338744E+03  0.56232606235E+03  0.00000000000E+00 0.  1.
<mgrwt>
<rscale>  0 0.37635506E+04</rscale>
<asrwt>0</asrwt>
<pdfrwt beam="1">  1        1 0.39187938E+00 0.37635506E+04</pdfrwt>
<pdfrwt beam="2">  1       -1 0.21387322E+00 0.37635506E+04</pdfrwt>
<totfact> 0.12130288E-01</totfact>
</mgrwt>
</event>
<event>
12    1  0.1980523E-007  0.3687178E+04  0.7818608E-02  0.8070809E-01
         -2   -1    0    0    0  501 -0.00000000000E+00  0.00000000000E+00  0.14361694636E+04  0.14361694636E+04  0.00000000000E+00 0.  1.
          2   -1    0    0  501    0  0.00000000000E+00 -0.00000000000E+00 -0.23665872455E+04  0.23665872455E+04  0.00000000000E+00 0. -1.
         23    2    1    2    0    0 -0.12689430324E+04  0.86783220841E+03 -0.12612615416E+04  0.19905614749E+04  0.90582269040E+02 0.  0.
        254    2    1    2    0    0  0.12689430324E+04 -0.86783220841E+03  0.33084375968E+03  0.18121952342E+04  0.90069129683E+03 0.  0.
        -24    2    4    4    0    0  0.65425022111E+03 -0.35436431948E+03 -0.28268746688E+03  0.79991763598E+03  0.79615310606E+02 0.  0.
         24    2    4    4    0    0  0.61469281131E+03 -0.51346788893E+03  0.61353122656E+03  0.10122775983E+04  0.82394445928E+02 0.  0.
         11    1    3    3    0    0 -0.45668107789E+03  0.32703576196E+03 -0.51547467331E+03  0.76238057119E+03  0.00000000000E+00 0. -1.
        -11    1    3    3    0    0 -0.81226195453E+03  0.54079644645E+03 -0.74578686831E+03  0.12281809037E+04  0.00000000000E+00 0.  1.
          4    1    6    6  502    0  0.10318754307E+03 -0.10383246846E+03  0.15001796110E+03  0.20960495987E+03  0.00000000000E+00 0. -1.
          1    1    5    5  503    0  0.30907461018E+02 -0.52787959463E+01  0.61843242393E+00  0.31361111139E+02  0.00000000000E+00 0. -1.
         -2    1    5    5    0  503  0.62334276010E+03 -0.34908552353E+03 -0.28330589931E+03  0.76855652485E+03  0.00000000000E+00 0.  1.
         -1    1    6    6    0  502  0.51150526824E+03 -0.40963542047E+03  0.46351326546E+03  0.80267263838E+03  0.00000000000E+00 0.  1.
<mgrwt>
<rscale>  0 0.36871780E+04</rscale>
<asrwt>0</asrwt>
<pdfrwt beam="1">  1        2 0.36409034E+00 0.36871780E+04</pdfrwt>
<pdfrwt beam="2">  1       -2 0.22094915E+00 0.36871780E+04</pdfrwt>
<totfact> 0.32771894E-01</totfact>
</mgrwt>
</event>
<event>
12    1  0.1980523E-007  0.2086942E+04  0.7818608E-02  0.8567017E-01
         -2   -1    0    0    0  501 -0.00000000000E+00  0.00000000000E+00  0.52937619609E+04  0.52937619609E+04  0.00000000000E+00 0.  1.
          2   -1    0    0  501    0  0.00000000000E+00 -0.00000000000E+00 -0.20568211229E+03  0.20568211229E+03  0.00000000000E+00 0. -1.
         23    2    1    2    0    0 -0.24359753400E+03 -0.62850218422E+03  0.72799133720E+03  0.99670551230E+03  0.95371573670E+02 0.  0.
        254    2    1    2    0    0  0.24359753400E+03  0.62850218422E+03  0.43600885114E+04  0.45027385609E+04  0.89995998043E+03 0.  0.
        -24    2    4    4    0    0  0.39456662787E+03 -0.66741421219E+02  0.15156393389E+04  0.15696210226E+04  0.80064397738E+02 0.  0.
         24    2    4    4    0    0 -0.15096909388E+03  0.69524360544E+03  0.28444491725E+04  0.29331175383E+04  0.78307473369E+02 0.  0.
         11    1    3    3    0    0 -0.13913942837E+02 -0.56334706746E+02  0.10644489075E+03  0.12123411961E+03  0.00000000000E+00 0.  1.
        -11    1    3    3    0    0 -0.22968359116E+03 -0.57216747747E+03  0.62154644645E+03  0.87547139269E+03  0.00000000000E+00 0. -1.
          2    1    6    6  502    0  0.76033881528E+01  0.29345066593E+02  0.93947766325E+02  0.98717411039E+02  0.00000000000E+00 0. -1.
          1    1    5    5  503    0 -0.27929376926E+01 -0.45450840152E+01  0.12235497630E+02  0.13347872187E+02  0.00000000000E+00 0. -1.
         -2    1    5    5    0  503  0.39735956556E+03 -0.62196337204E+02  0.15034038413E+04  0.15562731504E+04  0.00000000000E+00 0.  1.
         -1    1    6    6    0  502 -0.15857248203E+03  0.66589853884E+03  0.27505014061E+04  0.28344001272E+04  0.00000000000E+00 0.  1.
<mgrwt>
<rscale>  0 0.20869424E+04</rscale>
<asrwt>0</asrwt>
<pdfrwt beam="1">  1        2 0.31643406E-01 0.20869424E+04</pdfrwt>
<pdfrwt beam="2">  1       -2 0.81442481E+00 0.20869424E+04</pdfrwt>
<totfact> 0.99284152E-03</totfact>
</mgrwt>
</event>
<event>
12    1  0.1980523E-007  0.1327730E+04  0.7818608E-02  0.9007859E-01
         -1   -1    0    0    0  501 -0.00000000000E+00  0.00000000000E+00  0.61487506094E+03  0.61487506094E+03  0.00000000000E+00 0.  1.
          1   -1    0    0  501    0  0.00000000000E+00 -0.00000000000E+00 -0.71675836753E+03  0.71675836753E+03  0.00000000000E+00 0. -1.
         23    2    1    2    0    0  0.60190784637E+02 -0.32755409759E+03 -0.13674371340E+03  0.37064123433E+03  0.88099171579E+02 0.  0.
        254    2    1    2    0    0 -0.60190784637E+02  0.32755409759E+03  0.34860406811E+02  0.96099219414E+03  0.90076419325E+03 0.  0.
        -24    2    4    4    0    0 -0.78770980393E+02  0.56809841026E+03  0.24760852958E+03  0.62958985219E+03  0.78311729390E+02 0.  0.
         24    2    4    4    0    0  0.18580195756E+02 -0.24054431268E+03 -0.21274812277E+03  0.33140234196E+03  0.79743077926E+02 0.  0.
         11    1    3    3    0    0  0.16481382951E+02 -0.16316393989E+02  0.81177465604E+01  0.24571497838E+02  0.00000000000E+00 0.  1.
        -11    1    3    3    0    0  0.43709401686E+02 -0.31123770360E+03 -0.14486145996E+03  0.34606973649E+03  0.00000000000E+00 0. -1.
          2    1    6    6  502    0  0.20728027471E+02 -0.21288782411E+03 -0.21537159595E+03  0.30353879673E+03  0.00000000000E+00 0. -1.
          1    1    5    5  503    0 -0.58624125720E+02  0.50474063930E+03  0.24214987838E+03  0.56288228314E+03  0.00000000000E+00 0. -1.
         -2    1    5    5    0  503 -0.20146854673E+02  0.63357770966E+02  0.54586511982E+01  0.66707569045E+02  0.00000000000E+00 0.  1.
         -1    1    6    6    0  502 -0.21478317150E+01 -0.27656488571E+02  0.26234731852E+01  0.27863545229E+02  0.00000000000E+00 0.  1.
<mgrwt>
<rscale>  0 0.13277302E+04</rscale>
<asrwt>0</asrwt>
<pdfrwt beam="1">  1        1 0.11027052E+00 0.13277302E+04</pdfrwt>
<pdfrwt beam="2">  1       -1 0.94596164E-01 0.13277302E+04</pdfrwt>
<totfact> 0.27864619E+01</totfact>
</mgrwt>
</event>
<event>
12    1  0.1980523E-007  0.3271891E+04  0.7818608E-02  0.8170085E-01
         -1   -1    0    0    0  501 -0.00000000000E+00  0.00000000000E+00  0.14723593074E+04  0.14723593074E+04  0.00000000000E+00 0.  1.
          1   -1    0    0  501    0  0.00000000000E+00 -0.00000000000E+00 -0.18177067047E+04  0.18177067047E+04  0.00000000000E+00 0. -1.
         23    2    1    2    0    0 -0.46803597429E+03  0.14377548926E+04 -0.28483877443E+03  0.15415626984E+04  0.95318526283E+02 0.  0.
        254    2    1    2    0    0  0.46803597429E+03 -0.14377548926E+04 -0.60508622811E+02  0.17485033137E+04  0.87601697483E+03 0.  0.
        -24    2    4    4    0    0 -0.21436079234E+03 -0.12120510707E+03 -0.47190070185E+00  0.26218727163E+03  0.90003974579E+02 0.  0.
         24    2    4    4    0    0  0.68239676663E+03 -0.13165497855E+04 -0.60036722109E+02  0.14863160420E+04  0.81007925890E+02 0.  0.
         11    1    3    3    0    0 -0.21230998310E+03  0.70061314222E+03 -0.18390772043E+03  0.75482206752E+03  0.00000000000E+00 0. -1.
        -11    1    3    3    0    0 -0.25572599119E+03  0.73714175033E+03 -0.10093105400E+03  0.78674063090E+03  0.00000000000E+00 0.  1.
          4    1    6    6  502    0  0.54576912152E+03 -0.11048840680E+04 -0.68632948525E+02  0.12342379104E+04  0.00000000000E+00 0. -1.
          1    1    5    5  503    0 -0.21543567592E+03 -0.11786867336E+03  0.15283131465E+02  0.24604700511E+03  0.00000000000E+00 0. -1.
         -4    1    5    5    0  503  0.10748835755E+01 -0.33364337090E+01 -0.15755032166E+02  0.16140266515E+02  0.00000000000E+00 0.  1.
         -3    1    6    6    0  502  0.13662764511E+03 -0.21166571747E+03  0.85962264154E+01  0.25207813167E+03  0.00000000000E+00 0.  1.
<mgrwt>
<rscale>  0 0.32718908E+04</rscale>
<asrwt>0</asrwt>
<pdfrwt beam="1">  1        1 0.27964719E+00 0.32718908E+04</pdfrwt>
<pdfrwt beam="2">  1       -1 0.22651682E+00 0.32718908E+04</pdfrwt>
<totfact> 0.32808993E-01</totfact>
</mgrwt>
</event>
<event>
12    1  0.1980523E-007  0.1559397E+04  0.7818608E-02  0.8845888E-01
          1   -1    0    0  501    0  0.00000000000E+00  0.00000000000E+00  0.30209306295E+04  0.30209306295E+04  0.00000000000E+00 0. -1.
         -1   -1    0    0    0  501 -0.00000000000E+00 -0.00000000000E+00 -0.20123911519E+03  0.20123911519E+03  0.00000000000E+00 0.  1.
         23    2    1    2    0    0 -0.21009992475E+03 -0.14375029751E+03  0.19514196436E+02  0.26981880106E+03  0.87265429146E+02 0.  0.
        254    2    1    2    0    0  0.21009992475E+03  0.14375029751E+03  0.28001773178E+04  0.29523509436E+04  0.90032047431E+03 0.  0.
        -24    2    4    4    0    0  0.27422282324E+03 -0.28930405426E+03  0.19626564789E+04  0.20045473295E+04  0.85408134797E+02 0.  0.
         24    2    4    4    0    0 -0.64122898485E+02  0.43305435178E+03  0.83752083892E+03  0.94780361408E+03  0.72406612449E+02 0.  0.
         11    1    3    3    0    0 -0.12353402030E+03 -0.10628397334E+03  0.50377414173E+02  0.17057204056E+03  0.00000000000E+00 0. -1.
        -11    1    3    3    0    0 -0.86565904448E+02 -0.37466324174E+02 -0.30863217737E+02  0.99246760497E+02  0.00000000000E+00 0.  1.
          4    1    6    6  502    0 -0.49465017777E+02  0.41901691134E+03  0.81307400284E+03  0.91603018185E+03  0.00000000000E+00 0. -1.
          3    1    5    5  503    0  0.74201202614E+02 -0.13373958201E+03  0.81853138247E+03  0.83269785538E+03  0.00000000000E+00 0. -1.
         -2    1    5    5    0  503  0.20002162062E+03 -0.15556447225E+03  0.11441250965E+04  0.11718494742E+04  0.00000000000E+00 0.  1.
         -3    1    6    6    0  502 -0.14657880708E+02  0.14037440439E+02  0.24446836086E+02  0.31773432228E+02  0.00000000000E+00 0.  1.
<mgrwt>
<rscale>  0 0.15593966E+04</rscale>
<asrwt>0</asrwt>
<pdfrwt beam="1">  1        1 0.46475852E+00 0.15593966E+04</pdfrwt>
<pdfrwt beam="2">  1       -1 0.30959866E-01 0.15593966E+04</pdfrwt>
<totfact> 0.53928229E+00</totfact>
</mgrwt>
</event>
<event>
12    1  0.1980523E-007  0.1659651E+04  0.7818608E-02  0.8784718E-01
         -1   -1    0    0    0  501 -0.00000000000E+00  0.00000000000E+00  0.74040639372E+03  0.74040639372E+03  0.00000000000E+00 0.  1.
          1   -1    0    0  501    0  0.00000000000E+00 -0.00000000000E+00 -0.93004344813E+03  0.93004344813E+03  0.00000000000E+00 0. -1.
         23    2    1    2    0    0 -0.57405137712E+03  0.40860140127E+02  0.22328236934E+02  0.58324984905E+03  0.92072263074E+02 0.  0.
        254    2    1    2    0    0  0.57405137712E+03 -0.40860140127E+02 -0.21196529133E+03  0.10871999928E+04  0.89770262614E+03 0.  0.
        -24    2    4    4    0    0  0.12016201141E+03 -0.23707331155E+03 -0.45211316900E+03  0.53058791794E+03  0.80464632265E+02 0.  0.
         24    2    4    4    0    0  0.45388936572E+03  0.19621317143E+03  0.24014787767E+03  0.55661207485E+03  0.87354643671E+02 0.  0.
         11    1    3    3    0    0 -0.39739281535E+03  0.45148713470E+02 -0.23674804520E+02  0.40064941332E+03  0.00000000000E+00 0.  1.
        -11    1    3    3    0    0 -0.17665856177E+03 -0.42885733430E+01  0.46003041454E+02  0.18260043574E+03  0.00000000000E+00 0. -1.
          2    1    6    6  502    0  0.25247839902E+03  0.66595201231E+02  0.10365207587E+03  0.28093418380E+03  0.00000000000E+00 0. -1.
          3    1    5    5  503    0  0.14964643910E+02 -0.11025014450E+03 -0.21121453274E+03  0.23872706962E+03  0.00000000000E+00 0. -1.
         -4    1    5    5    0  503  0.10519736750E+03 -0.12682316705E+03 -0.24089863626E+03  0.29186084832E+03  0.00000000000E+00 0.  1.
         -1    1    6    6    0  502  0.20141096670E+03  0.12961797020E+03  0.13649580180E+03  0.27567789105E+03  0.00000000000E+00 0.  1.
<mgrwt>
<rscale>  0 0.16596507E+04</rscale>
<asrwt>0</asrwt>
<pdfrwt beam="1">  1        1 0.14308361E+00 0.16596507E+04</pdfrwt>
<pdfrwt beam="2">  1       -1 0.11390868E+00 0.16596507E+04</pdfrwt>
<totfact> 0.11535688E+01</totfact>
</mgrwt>
</event>
<event>
12    1  0.1980523E-007  0.1796357E+04  0.7818608E-02  0.8708239E-01
          1   -1    0    0  501    0  0.00000000000E+00  0.00000000000E+00  0.14517258717E+04  0.14517258717E+04  0.00000000000E+00 0. -1.
         -1   -1    0    0    0  501 -0.00000000000E+00 -0.00000000000E+00 -0.55570036458E+03  0.55570036458E+03  0.00000000000E+00 0.  1.
         23    2    1    2    0    0  0.43307417568E+02  0.65876523121E+03  0.45007526919E+03  0.80446791623E+03  0.93561306304E+02 0.  0.
        254    2    1    2    0    0 -0.43307417568E+02 -0.65876523121E+03  0.44595023791E+03  0.12029583200E+04  0.90132676802E+03 0.  0.
        -24    2    4    4    0    0  0.22166146512E+03 -0.13164863488E+02 -0.15154346463E+03  0.28080958912E+03  0.81126351571E+02 0.  0.
         24    2    4    4    0    0 -0.26496888269E+03 -0.64560036773E+03  0.59749370254E+03  0.92214873090E+03  0.79694502431E+02 0.  0.
         13    1    3    3    0    0  0.56521924455E+02  0.34142340810E+03  0.19590960136E+03  0.39767479609E+03  0.00000000000E+00 0. -1.
        -13    1    3    3    0    0 -0.13214506887E+02  0.31734182312E+03  0.25416566782E+03  0.40679312014E+03  0.00000000000E+00 0.  1.
          2    1    6    6  502    0 -0.26083283997E+03 -0.63972784641E+03  0.59948448238E+03  0.91469510356E+03  0.00000000000E+00 0. -1.
          1    1    5    5  503    0  0.20017438821E+03 -0.37638959981E+02 -0.13411411873E+03  0.24387101888E+03  0.00000000000E+00 0. -1.
         -2    1    5    5    0  503  0.21487076912E+02  0.24474096493E+02 -0.17429345901E+02  0.36938570247E+02  0.00000000000E+00 0.  1.
         -1    1    6    6    0  502 -0.41360427238E+01 -0.58725213194E+01 -0.19907798370E+01  0.74536273330E+01  0.00000000000E+00 0.  1.
<mgrwt>
<rscale>  0 0.17963570E+04</rscale>
<asrwt>0</asrwt>
<pdfrwt beam="1">  1        1 0.22334244E+00 0.17963570E+04</pdfrwt>
<pdfrwt beam="2">  1       -1 0.85492364E-01 0.17963570E+04</pdfrwt>
<totfact> 0.90194555E+00</totfact>
</mgrwt>
</event>
<event>
12    1  0.1980523E-007  0.1690466E+04  0.7818608E-02  0.8766821E-01
          2   -1    0    0  501    0  0.00000000000E+00  0.00000000000E+00  0.33554123523E+04  0.33554123523E+04  0.00000000000E+00 0.  1.
         -2   -1    0    0    0  501 -0.00000000000E+00 -0.00000000000E+00 -0.21291542235E+03  0.21291542235E+03  0.00000000000E+00 0. -1.
         23    2    1    2    0    0  0.43648190563E+03 -0.40627789565E+03  0.97215006028E+03  0.11444049943E+04  0.94915061253E+02 0.  0.
        254    2    1    2    0    0 -0.43648190563E+03  0.40627789565E+03  0.21703468696E+04  0.24239227803E+04  0.89967656851E+03 0.  0.
        -24    2    4    4    0    0 -0.16292932688E+03  0.41124236033E+03  0.31898394952E+03  0.55080068062E+03  0.77229432401E+02 0.  0.
         24    2    4    4    0    0 -0.27355257875E+03 -0.49644646835E+01  0.18513629201E+04  0.18731220997E+04  0.78651631376E+02 0.  0.
         13    1    3    3    0    0  0.31439547320E+03 -0.28932655388E+03  0.61017596434E+03  0.74489534554E+03  0.00000000000E+00 0. -1.
        -13    1    3    3    0    0  0.12208643243E+03 -0.11695134177E+03  0.36197409594E+03  0.39950964876E+03  0.00000000000E+00 0.  1.
          4    1    6    6  502    0 -0.10585208355E+02  0.16758484423E+02  0.94650842971E+02  0.96704061503E+02  0.00000000000E+00 0. -1.
          3    1    5    5  503    0 -0.29926440399E+02  0.26043633142E+02  0.43686237790E+02  0.59011439861E+02  0.00000000000E+00 0. -1.
         -4    1    5    5    0  503 -0.13300288649E+03  0.38519872719E+03  0.27529771173E+03  0.49178924076E+03  0.00000000000E+00 0.  1.
         -3    1    6    6    0  502 -0.26296737039E+03 -0.21722949107E+02  0.17567120771E+04  0.17764180382E+04  0.00000000000E+00 0.  1.
<mgrwt>
<rscale>  0 0.16904663E+04</rscale>
<asrwt>0</asrwt>
<pdfrwt beam="1">  1        2 0.51621725E+00 0.16904663E+04</pdfrwt>
<pdfrwt beam="2">  1       -2 0.32756221E-01 0.16904663E+04</pdfrwt>
<totfact> 0.85329147E+00</totfact>
</mgrwt>
</event>
<event>
12    1  0.1980523E-007  0.1720093E+04  0.7818608E-02  0.8749987E-01
          2   -1    0    0  501    0  0.00000000000E+00  0.00000000000E+00  0.19913042121E+04  0.19913042121E+04  0.00000000000E+00 0.  1.
         -2   -1    0    0    0  501 -0.00000000000E+00 -0.00000000000E+00 -0.37145503531E+03  0.37145503531E+03  0.00000000000E+00 0. -1.
         23    2    1    2    0    0 -0.32728826287E+03 -0.37683747431E+03  0.10961254742E+04  0.12080595453E+04  0.93769507925E+02 0.  0.
        254    2    1    2    0    0  0.32728826287E+03  0.37683747431E+03  0.52372370255E+03  0.11546997021E+04  0.89995599694E+03 0.  0.
        -24    2    4    4    0    0  0.65073846414E+02  0.24591371059E+03 -0.22381113138E+03  0.34796841549E+03  0.79261826245E+02 0.  0.
         24    2    4    4    0    0  0.26221441645E+03  0.13092376371E+03  0.74753483394E+03  0.80673128665E+03  0.78163986628E+02 0.  0.
         13    1    3    3    0    0 -0.15021223460E+03 -0.11197420998E+03  0.45732630791E+03  0.49421583446E+03  0.00000000000E+00 0.  1.
        -13    1    3    3    0    0 -0.17707602827E+03 -0.26486326432E+03  0.63879916631E+03  0.71384371080E+03  0.00000000000E+00 0. -1.
          4    1    6    6  502    0  0.17063063225E+03  0.12343945526E+03  0.54721618945E+03  0.58634262148E+03  0.00000000000E+00 0. -1.
          1    1    5    5  503    0  0.37198005096E+02  0.95742667952E+02 -0.14033578189E+03  0.17390940667E+03  0.00000000000E+00 0. -1.
         -2    1    5    5    0  503  0.27875841318E+02  0.15017104264E+03 -0.83475349496E+02  0.17405900882E+03  0.00000000000E+00 0.  1.
         -3    1    6    6    0  502  0.91583784201E+02  0.74843084555E+01  0.20031864449E+03  0.22038866516E+03  0.00000000000E+00 0.  1.
<mgrwt>
<rscale>  0 0.17200930E+04</rscale>
<asrwt>0</asrwt>
<pdfrwt beam="1">  1        2 0.30635449E+00 0.17200930E+04</pdfrwt>
<pdfrwt beam="2">  1       -2 0.57146930E-01 0.17200930E+04</pdfrwt>
<totfact> 0.18422136E+01</totfact>
</mgrwt>
</event>
<event>
12    1  0.1980523E-007  0.1409574E+04  0.7818608E-02  0.8946918E-01
         -1   -1    0    0    0  501 -0.00000000000E+00  0.00000000000E+00  0.31193602356E+03  0.31193602356E+03  0.00000000000E+00 0.  1.
          1   -1    0    0  501    0  0.00000000000E+00 -0.00000000000E+00 -0.15923918757E+04  0.15923918757E+04  0.00000000000E+00 0. -1.
         23    2    1    2    0    0 -0.22943185620E+03 -0.24060407743E+03 -0.54571966202E+02  0.34880614703E+03  0.90323474191E+02 0.  0.
        254    2    1    2    0    0  0.22943185620E+03  0.24060407743E+03 -0.12258838859E+04  0.15555217522E+04  0.89795730476E+03 0.  0.
        -24    2    4    4    0    0  0.49805524849E+03  0.11582603322E+03 -0.11152199800E+04  0.12294488885E+04  0.79713644485E+02 0.  0.
         24    2    4    4    0    0 -0.26862339229E+03  0.12477804421E+03 -0.11066390591E+03  0.32607286372E+03  0.79680142965E+02 0.  0.
         13    1    3    3    0    0 -0.16797111582E+03 -0.15998075567E+03 -0.78050316444E+02  0.24474474424E+03  0.00000000000E+00 0. -1.
        -13    1    3    3    0    0 -0.61460740388E+02 -0.80623321757E+02  0.23478350243E+02  0.10406140279E+03  0.00000000000E+00 0.  1.
          2    1    6    6  502    0 -0.12885448731E+03  0.17545157043E+02 -0.56324660529E+02  0.14171724955E+03  0.00000000000E+00 0. -1.
          3    1    5    5  503    0  0.35746689064E+03  0.52388092023E+02 -0.73037243369E+03  0.81484414582E+03  0.00000000000E+00 0. -1.
         -4    1    5    5    0  503  0.14058835785E+03  0.63437941201E+02 -0.38484754633E+03  0.41460474269E+03  0.00000000000E+00 0.  1.
         -1    1    6    6    0  502 -0.13976890497E+03  0.10723288716E+03 -0.54339245386E+02  0.18435561417E+03  0.00000000000E+00 0.  1.
<mgrwt>
<rscale>  0 0.14095735E+04</rscale>
<asrwt>0</asrwt>
<pdfrwt beam="1">  1        1 0.24498337E+00 0.14095735E+04</pdfrwt>
<pdfrwt beam="2">  1       -1 0.47990157E-01 0.14095735E+04</pdfrwt>
<totfact> 0.23877366E+01</totfact>
</mgrwt>
</event>
<event>
12    1  0.1980523E-007  0.2813285E+04  0.7818608E-02  0.8299156E-01
          2   -1    0    0  501    0  0.00000000000E+00  0.00000000000E+00  0.20943006114E+04  0.20943006114E+04  0.00000000000E+00 0. -1.
         -2   -1    0    0    0  501 -0.00000000000E+00 -0.00000000000E+00 -0.94477526451E+03  0.94477526451E+03  0.00000000000E+00 0.  1.
         23    2    1    2    0    0 -0.69747790034E+03 -0.10508053506E+04  0.54826283264E+03  0.13775773380E+04  0.80373392501E+02 0.  0.
        254    2    1    2    0    0  0.69747790034E+03  0.10508053506E+04  0.60126251429E+03  0.16614985379E+04  0.89910704257E+03 0.  0.
        -24    2    4    4    0    0 -0.18424924576E+02  0.46590040159E+03 -0.11822277479E+03  0.48742991352E+03  0.78794886051E+02 0.  0.
         24    2    4    4    0    0  0.71590282492E+03  0.58490494905E+03  0.71948528908E+03  0.11740686244E+04  0.78405353351E+02 0.  0.
         11    1    3    3    0    0 -0.50806776683E+03 -0.82406819487E+03  0.43116711985E+03  0.10597765475E+04  0.00000000000E+00 0. -1.
        -11    1    3    3    0    0 -0.18941013351E+03 -0.22673715577E+03  0.11709571279E+03  0.31780079049E+03  0.00000000000E+00 0.  1.
          2    1    6    6  502    0  0.10746294478E+03  0.69315376620E+02  0.12988794571E+03  0.18227392676E+03  0.00000000000E+00 0. -1.
          3    1    5    5  503    0 -0.16019120226E+02  0.41553350827E+03 -0.78380105738E+02  0.42316444756E+03  0.00000000000E+00 0. -1.
         -4    1    5    5    0  503 -0.24058043506E+01  0.50366893321E+02 -0.39842669051E+02  0.64265465956E+02  0.00000000000E+00 0.  1.
         -1    1    6    6    0  502  0.60843988013E+03  0.51558957243E+03  0.58959734337E+03  0.99179469763E+03  0.00000000000E+00 0.  1.
<mgrwt>
<rscale>  0 0.28132852E+04</rscale>
<asrwt>0</asrwt>
<pdfrwt beam="1">  1        2 0.32220009E+00 0.28132852E+04</pdfrwt>
<pdfrwt beam="2">  1       -2 0.14535004E+00 0.28132852E+04</pdfrwt>
<totfact> 0.16752751E+00</totfact>
</mgrwt>
</event>
<event>
12    1  0.1980523E-007  0.3748200E+04  0.7818608E-02  0.8057363E-01
          2   -1    0    0  501    0  0.00000000000E+00  0.00000000000E+00  0.24154578154E+04  0.24154578154E+04  0.00000000000E+00 0. -1.
         -2   -1    0    0    0  501 -0.00000000000E+00 -0.00000000000E+00 -0.14540722372E+04  0.14540722372E+04  0.00000000000E+00 0.  1.
         23    2    1    2    0    0  0.73721789729E+03 -0.16023875907E+04  0.40919910795E+03  0.18129855801E+04  0.91304898833E+02 0.  0.
        254    2    1    2    0    0 -0.73721789729E+03  0.16023875907E+04  0.55218647019E+03  0.20565444725E+04  0.90184757609E+03 0.  0.
        -24    2    4    4    0    0 -0.46276571720E+03  0.11690914349E+04 -0.50617565697E+02  0.12609007631E+04  0.79885569803E+02 0.  0.
         24    2    4    4    0    0 -0.27445218009E+03  0.43329615580E+03  0.60280403589E+03  0.79564370937E+03  0.81281294210E+02 0.  0.
         11    1    3    3    0    0  0.28204197933E+03 -0.52171651028E+03  0.11688973985E+03  0.60448242860E+03  0.00000000000E+00 0. -1.
        -11    1    3    3    0    0  0.45517591795E+03 -0.10806710805E+04  0.29230936810E+03  0.12085031515E+04  0.00000000000E+00 0.  1.
          2    1    6    6  502    0 -0.18852632347E+02  0.42431508078E+02  0.94984352121E+02  0.10572550199E+03  0.00000000000E+00 0. -1.
          3    1    5    5  503    0 -0.14450962887E+03  0.31820347293E+03  0.17288173437E+02  0.34990765062E+03  0.00000000000E+00 0. -1.
         -4    1    5    5    0  503 -0.31825608833E+03  0.85088796201E+03 -0.67905739133E+02  0.91099311252E+03  0.00000000000E+00 0.  1.
         -1    1    6    6    0  502 -0.25559954774E+03  0.39086464772E+03  0.50781968377E+03  0.68991820738E+03  0.00000000000E+00 0.  1.
<mgrwt>
<rscale>  0 0.37481996E+04</rscale>
<asrwt>0</asrwt>
<pdfrwt beam="1">  1        2 0.37160889E+00 0.37481996E+04</pdfrwt>
<pdfrwt beam="2">  1       -2 0.22370342E+00 0.37481996E+04</pdfrwt>
<totfact> 0.29371931E-01</totfact>
</mgrwt>
</event>
<event>
12    1  0.1980523E-007  0.1633606E+04  0.7818608E-02  0.8800165E-01
          2   -1    0    0  501    0  0.00000000000E+00  0.00000000000E+00  0.33039899202E+04  0.33039899202E+04  0.00000000000E+00 0. -1.
         -2   -1    0    0    0  501 -0.00000000000E+00 -0.00000000000E+00 -0.20192768307E+03  0.20192768307E+03  0.00000000000E+00 0.  1.
         23    2    1    2    0    0 -0.56185510687E+03 -0.37912874736E+02  0.10023558545E+04  0.11530723491E+04  0.87977473810E+02 0.  0.
        254    2    1    2    0    0  0.56185510687E+03  0.37912874736E+02  0.20997063826E+04  0.23528452542E+04  0.89999741657E+03 0.  0.
        -24    2    4    4    0    0  0.71894012955E+03  0.26522764005E+03  0.14323954642E+04  0.16264410709E+04  0.79581281206E+02 0.  0.
         24    2    4    4    0    0 -0.15708502268E+03 -0.22731476531E+03  0.66731091839E+03  0.72640418329E+03  0.77533662429E+02 0.  0.
         13    1    3    3    0    0 -0.38074988193E+03 -0.33047288167E+02  0.59394424988E+03  0.70628065797E+03  0.00000000000E+00 0.  1.
        -13    1    3    3    0    0 -0.18110522494E+03 -0.48655865692E+01  0.40841160464E+03  0.44679169110E+03  0.00000000000E+00 0. -1.
          4    1    6    6  502    0 -0.12881438016E+03 -0.13897111459E+03  0.50613557162E+03  0.54044364377E+03  0.00000000000E+00 0. -1.
          1    1    5    5  503    0  0.27300912929E+03  0.97579163930E+02  0.46249844078E+03  0.54585756900E+03  0.00000000000E+00 0. -1.
         -2    1    5    5    0  503  0.44593100026E+03  0.16764847612E+03  0.96989702341E+03  0.10805835019E+04  0.00000000000E+00 0.  1.
         -3    1    6    6    0  502 -0.28270642518E+02 -0.88343650725E+02  0.16117534677E+03  0.18596053952E+03  0.00000000000E+00 0.  1.
<mgrwt>
<rscale>  0 0.16336059E+04</rscale>
<asrwt>0</asrwt>
<pdfrwt beam="1">  1        2 0.50830610E+00 0.16336059E+04</pdfrwt>
<pdfrwt beam="2">  1       -2 0.31065800E-01 0.16336059E+04</pdfrwt>
<totfact> 0.10259781E+01</totfact>
</mgrwt>
</event>
<event>
12    1  0.1980523E-007  0.2023206E+04  0.7818608E-02  0.8595847E-01
         -1   -1    0    0    0  501 -0.00000000000E+00  0.00000000000E+00  0.10553521880E+04  0.10553521880E+04  0.00000000000E+00 0.  1.
          1   -1    0    0  501    0  0.00000000000E+00 -0.00000000000E+00 -0.96966758376E+03  0.96966758376E+03  0.00000000000E+00 0. -1.
         23    2    1    2    0    0  0.43416261727E+03 -0.38668022797E+02  0.71899970745E+03  0.84570522802E+03  0.90908520816E+02 0.  0.
        254    2    1    2    0    0 -0.43416261727E+03  0.38668022797E+02 -0.63331510326E+03  0.11793145437E+04  0.89426080019E+03 0.  0.
        -24    2    4    4    0    0  0.19083595423E+03  0.25424301282E+03 -0.18944613359E+03  0.37905891897E+03  0.82085050505E+02 0.  0.
         24    2    4    4    0    0 -0.62499857151E+03 -0.21557499002E+03 -0.44386896966E+03  0.80025562474E+03  0.79332288414E+02 0.  0.
         13    1    3    3    0    0  0.18365009946E+02 -0.22612533750E+02  0.49157284557E+02  0.57140518880E+02  0.00000000000E+00 0. -1.
        -13    1    3    3    0    0  0.41579760733E+03 -0.16055489047E+02  0.66984242289E+03  0.78856470914E+03  0.00000000000E+00 0.  1.
          2    1    6    6  502    0 -0.58012507611E+03 -0.18703691509E+03 -0.42789278506E+03  0.74472823704E+03  0.00000000000E+00 0. -1.
          3    1    5    5  503    0  0.15328990683E+03  0.21984412150E+03 -0.18932750634E+03  0.32813737665E+03  0.00000000000E+00 0. -1.
         -4    1    5    5    0  503  0.37546047402E+02  0.34398891320E+02 -0.11862725136E+00  0.50921542317E+02  0.00000000000E+00 0.  1.
         -1    1    6    6    0  502 -0.44873495393E+02 -0.28538074939E+02 -0.15976184607E+02  0.55527387698E+02  0.00000000000E+00 0.  1.
<mgrwt>
<rscale>  0 0.20232062E+04</rscale>
<asrwt>0</asrwt>
<pdfrwt beam="1">  1        1 0.14917963E+00 0.20232062E+04</pdfrwt>
<pdfrwt beam="2">  1       -1 0.16236187E+00 0.20232062E+04</pdfrwt>
<totfact> 0.41514520E+00</totfact>
</mgrwt>
</event>
<event>
12    1  0.1980523E-007  0.1509258E+04  0.7818608E-02  0.8878320E-01
         -2   -1    0    0    0  501 -0.00000000000E+00  0.00000000000E+00  0.51522023622E+03  0.51522023622E+03  0.00000000000E+00 0.  1.
          2   -1    0    0  501    0  0.00000000000E+00 -0.00000000000E+00 -0.11052839664E+04  0.11052839664E+04  0.00000000000E+00 0. -1.
         23    2    1    2    0    0 -0.28139661372E+03 -0.28107310610E+03 -0.47181124546E+03  0.62364016802E+03  0.90194582032E+02 0.  0.
        254    2    1    2    0    0  0.28139661372E+03  0.28107310610E+03 -0.11825248475E+03  0.99686403464E+03  0.90640394319E+03 0.  0.
        -24    2    4    4    0    0  0.84723937161E+02 -0.17645939554E+03  0.28226099343E+03  0.35251596086E+03  0.79247526450E+02 0.  0.
         24    2    4    4    0    0  0.19667267656E+03  0.45753250164E+03 -0.40051347817E+03  0.64434807379E+03  0.82202568290E+02 0.  0.
         11    1    3    3    0    0 -0.10390646573E+03 -0.56264300099E+02 -0.10364464990E+03  0.15717645669E+03  0.00000000000E+00 0.  1.
        -11    1    3    3    0    0 -0.17749014800E+03 -0.22480880600E+03 -0.36816659557E+03  0.46646371132E+03  0.00000000000E+00 0. -1.
          4    1    6    6  502    0  0.51889002599E+02  0.18029949349E+03 -0.19202051094E+03  0.26846275825E+03  0.00000000000E+00 0. -1.
          1    1    5    5  503    0  0.95868834055E+02 -0.17092971979E+03  0.24814390857E+03  0.31620120463E+03  0.00000000000E+00 0. -1.
         -2    1    5    5    0  503 -0.11144896894E+02 -0.55296757481E+01  0.34117084858E+02  0.36314756228E+02  0.00000000000E+00 0.  1.
         -3    1    6    6    0  502  0.14478367396E+03  0.27723300815E+03 -0.20849296723E+03  0.37588531554E+03  0.00000000000E+00 0.  1.
<mgrwt>
<rscale>  0 0.15092577E+04</rscale>
<asrwt>0</asrwt>
<pdfrwt beam="1">  1        2 0.17004368E+00 0.15092577E+04</pdfrwt>
<pdfrwt beam="2">  1       -2 0.79264653E-01 0.15092577E+04</pdfrwt>
<totfact> 0.29470179E+01</totfact>
</mgrwt>
</event>
<event>
12    1  0.1980523E-007  0.1231502E+04  0.7818608E-02  0.9085721E-01
          2   -1    0    0  501    0  0.00000000000E+00  0.00000000000E+00  0.18460132366E+04  0.18460132366E+04  0.00000000000E+00 0. -1.
         -2   -1    0    0    0  501 -0.00000000000E+00 -0.00000000000E+00 -0.20538823959E+03  0.20538823959E+03  0.00000000000E+00 0.  1.
         23    2    1    2    0    0 -0.25023839517E+03 -0.29200446961E+02  0.63138462620E+03  0.68573298567E+03  0.90062538931E+02 0.  0.
        254    2    1    2    0    0  0.25023839517E+03  0.29200446961E+02  0.10092403709E+04  0.13656684906E+04  0.88487986723E+03 0.  0.
        -24    2    4    4    0    0 -0.28094389525E+03 -0.16802194717E+03  0.47942545738E+03  0.58589897854E+03  0.79170681820E+02 0.  0.
         24    2    4    4    0    0  0.53118229041E+03  0.19722239413E+03  0.52981491348E+03  0.77976951202E+03  0.79280205234E+02 0.  0.
         13    1    3    3    0    0 -0.17326075283E+03 -0.61462973382E+02  0.42040307713E+03  0.45884172960E+03  0.00000000000E+00 0. -1.
        -13    1    3    3    0    0 -0.76977642333E+02  0.32262526421E+02  0.21098154908E+03  0.22689125607E+03  0.00000000000E+00 0.  1.
          4    1    6    6  502    0  0.49716576870E+02  0.27755585112E+01  0.71851284942E+02  0.87418813126E+02  0.00000000000E+00 0. -1.
          1    1    5    5  503    0 -0.56328337284E+02 -0.74411144340E+01  0.51846707254E+02  0.76917701593E+02  0.00000000000E+00 0. -1.
         -2    1    5    5    0  503 -0.22461555796E+03 -0.16058083274E+03  0.42757875012E+03  0.50898127694E+03  0.00000000000E+00 0.  1.
         -3    1    6    6    0  502  0.48146571354E+03  0.19444683562E+03  0.45796362853E+03  0.69235069890E+03  0.00000000000E+00 0.  1.
<mgrwt>
<rscale>  0 0.12315022E+04</rscale>
<asrwt>0</asrwt>
<pdfrwt beam="1">  1        2 0.28400203E+00 0.12315022E+04</pdfrwt>
<pdfrwt beam="2">  1       -2 0.31598192E-01 0.12315022E+04</pdfrwt>
<totfact> 0.74559172E+01</totfact>
</mgrwt>
</event>
<event>
12    1  0.1980523E-007  0.1136837E+04  0.7818608E-02  0.9170013E-01
         -3   -1    0    0    0  501 -0.00000000000E+00  0.00000000000E+00  0.10693971642E+04  0.10693971642E+04  0.00000000000E+00 0.  1.
          3   -1    0    0  501    0  0.00000000000E+00 -0.00000000000E+00 -0.30213260016E+03  0.30213260016E+03  0.00000000000E+00 0. -1.
         23    2    1    2    0    0  0.17177112955E+03  0.84969447152E+02  0.18127051439E+03  0.27941474597E+03  0.92132909331E+02 0.  0.
        254    2    1    2    0    0 -0.17177112955E+03 -0.84969447152E+02  0.58599404968E+03  0.10921150184E+04  0.90144387474E+03 0.  0.
        -24    2    4    4    0    0 -0.27636023953E+03  0.18900462094E+03  0.68998694301E+03  0.77089898106E+03  0.78137882935E+02 0.  0.
         24    2    4    4    0    0  0.10458910998E+03 -0.27397406809E+03 -0.10399289333E+03  0.32121603736E+03  0.79778122811E+02 0.  0.
         13    1    3    3    0    0 -0.73082965314E+01  0.49431888177E+01  0.31256214828E+02  0.32477642760E+02  0.00000000000E+00 0.  1.
        -13    1    3    3    0    0  0.17907942608E+03  0.80026258334E+02  0.15001429957E+03  0.24693710321E+03  0.00000000000E+00 0. -1.
          2    1    6    6  502    0  0.86792045431E+02 -0.15272567481E+03 -0.91408529508E+02  0.19802401411E+03  0.00000000000E+00 0. -1.
          1    1    5    5  503    0 -0.14192605748E+03  0.50408309719E+02  0.31209711561E+03  0.34653803983E+03  0.00000000000E+00 0. -1.
         -2    1    5    5    0  503 -0.13443418205E+03  0.13859631122E+03  0.37788982741E+03  0.42436094123E+03  0.00000000000E+00 0.  1.
         -1    1    6    6    0  502  0.17797064548E+02 -0.12124839328E+03 -0.12584363823E+02  0.12319202325E+03  0.00000000000E+00 0.  1.
<mgrwt>
<rscale>  0 0.11368373E+04</rscale>
<asrwt>0</asrwt>
<pdfrwt beam="1">  1        3 0.46481939E-01 0.11368373E+04</pdfrwt>
<pdfrwt beam="2">  1       -3 0.16452264E+00 0.11368373E+04</pdfrwt>
<totfact> 0.30202992E+00</totfact>
</mgrwt>
</event>
<event>
12    1  0.1980523E-007  0.1961340E+04  0.7818608E-02  0.8624912E-01
          2   -1    0    0  501    0  0.00000000000E+00  0.00000000000E+00  0.22629633547E+04  0.22629633547E+04  0.00000000000E+00 0. -1.
         -2   -1    0    0    0  501 -0.00000000000E+00 -0.00000000000E+00 -0.42497970213E+03  0.42497970213E+03  0.00000000000E+00 0.  1.
         23    2    1    2    0    0  0.57415823875E+03 -0.14972520573E+03  0.53584198579E+02  0.60268307678E+03  0.90996177596E+02 0.  0.
        254    2    1    2    0    0 -0.57415823875E+03  0.14972520573E+03  0.17843994539E+04  0.20852599800E+04  0.90119501365E+03 0.  0.
        -24    2    4    4    0    0 -0.72265494153E+03 -0.18986280778E+02  0.83937487478E+03  0.11105929500E+04  0.79220431948E+02 0.  0.
         24    2    4    4    0    0  0.14849670277E+03  0.16871148651E+03  0.94502457916E+03  0.97466703000E+03  0.79934521483E+02 0.  0.
         13    1    3    3    0    0  0.42666085108E+02 -0.29222195840E+02 -0.13873221437E+02  0.53542486132E+02  0.00000000000E+00 0.  1.
        -13    1    3    3    0    0  0.53149215365E+03 -0.12050300989E+03  0.67457420016E+02  0.54914059065E+03  0.00000000000E+00 0. -1.
          2    1    6    6  502    0  0.88324660071E+02  0.14640861484E+03  0.60792504053E+03  0.63151372350E+03  0.00000000000E+00 0. -1.
          1    1    5    5  503    0 -0.68908560655E+03 -0.34155904196E+02  0.78763678611E+03  0.10470803722E+04  0.00000000000E+00 0. -1.
         -2    1    5    5    0  503 -0.33569334975E+02  0.15169623418E+02  0.51738088665E+02  0.63512577841E+02  0.00000000000E+00 0.  1.
         -1    1    6    6    0  502  0.60172042700E+02  0.22302871677E+02  0.33709953864E+03  0.34315330649E+03  0.00000000000E+00 0.  1.
<mgrwt>
<rscale>  0 0.19613398E+04</rscale>
<asrwt>0</asrwt>
<pdfrwt beam="1">  1        2 0.34814820E+00 0.19613398E+04</pdfrwt>
<pdfrwt beam="2">  1       -2 0.65381494E-01 0.19613398E+04</pdfrwt>
<totfact> 0.95611575E+00</totfact>
</mgrwt>
</event>
<event>
12    1  0.1980523E-007  0.2453486E+04  0.7818608E-02  0.8419746E-01
         -1   -1    0    0    0  501 -0.00000000000E+00  0.00000000000E+00  0.12517087496E+04  0.12517087496E+04  0.00000000000E+00 0.  1.
          1   -1    0    0  501    0  0.00000000000E+00 -0.00000000000E+00 -0.12022756078E+04  0.12022756078E+04  0.00000000000E+00 0. -1.
         23    2    1    2    0    0 -0.45311198437E+03 -0.45272869657E+03 -0.82094684329E+03  0.10463672850E+04  0.10323290399E+03 0.  0.
        254    2    1    2    0    0  0.45311198437E+03  0.45272869657E+03  0.87037998507E+03  0.14076170724E+04  0.90197048790E+03 0.  0.
        -24    2    4    4    0    0  0.50051886413E+03 -0.51672878860E+02  0.16524434209E+03  0.53578604652E+03  0.81066486850E+02 0.  0.
         24    2    4    4    0    0 -0.47406879757E+02  0.50440157543E+03  0.70513564298E+03  0.87183102589E+03  0.78769925504E+02 0.  0.
         11    1    3    3    0    0 -0.49453294433E+02 -0.59133726655E+02 -0.16018580701E+03  0.17776928511E+03  0.00000000000E+00 0. -1.
        -11    1    3    3    0    0 -0.40365868994E+03 -0.39359496992E+03 -0.66076103627E+03  0.86859799986E+03  0.00000000000E+00 0.  1.
          4    1    6    6  502    0 -0.34379989507E+02  0.21187851293E+03  0.23788077203E+03  0.32040872276E+03  0.00000000000E+00 0. -1.
          3    1    5    5  503    0  0.18230928037E+02 -0.10811493906E+01  0.25036366968E+02  0.30989599740E+02  0.00000000000E+00 0. -1.
         -4    1    5    5    0  503  0.48228793609E+03 -0.50591729469E+02  0.14020797513E+03  0.50479644678E+03  0.00000000000E+00 0.  1.
         -3    1    6    6    0  502 -0.13026890250E+02  0.29252306250E+03  0.46725487095E+03  0.55142230313E+03  0.00000000000E+00 0.  1.
<mgrwt>
<rscale>  0 0.24534864E+04</rscale>
<asrwt>0</asrwt>
<pdfrwt beam="1">  1        1 0.18496548E+00 0.24534864E+04</pdfrwt>
<pdfrwt beam="2">  1       -1 0.19257058E+00 0.24534864E+04</pdfrwt>
<totfact> 0.16096039E+00</totfact>
</mgrwt>
</event>
<event>
12    1  0.1980523E-007  0.3824382E+04  0.7818608E-02  0.8040943E-01
         -1   -1    0    0    0  501 -0.00000000000E+00  0.00000000000E+00  0.14780436357E+04  0.14780436357E+04  0.00000000000E+00 0.  1.
          1   -1    0    0  501    0  0.00000000000E+00 -0.00000000000E+00 -0.24738609741E+04  0.24738609741E+04  0.00000000000E+00 0. -1.
         23    2    1    2    0    0  0.86850355381E+03 -0.11799722416E+04 -0.15603409509E+04  0.21421866352E+04  0.87560168529E+02 0.  0.
        254    2    1    2    0    0 -0.86850355381E+03  0.11799722416E+04  0.56452361250E+03  0.18097179745E+04  0.89986628135E+03 0.  0.
        -24    2    4    4    0    0  0.82401992352E+02  0.54596365388E+03  0.30161195593E+03  0.63424651873E+03  0.80202711015E+02 0.  0.
         24    2    4    4    0    0 -0.95090554616E+03  0.63400858772E+03  0.26291165658E+03  0.11754714558E+04  0.80139610754E+02 0.  0.
         13    1    3    3    0    0  0.63795640017E+03 -0.85427831430E+03 -0.10783042295E+04  0.15164167693E+04  0.00000000000E+00 0. -1.
        -13    1    3    3    0    0  0.23054715364E+03 -0.32569392731E+03 -0.48203672142E+03  0.62576986595E+03  0.00000000000E+00 0.  1.
          2    1    6    6  502    0 -0.80452081789E+03  0.53229523798E+03  0.19178212938E+03  0.98355088935E+03  0.00000000000E+00 0. -1.
          1    1    5    5  503    0  0.74042649417E+02  0.54240211810E+03  0.28999908259E+03  0.61950128293E+03  0.00000000000E+00 0. -1.
         -2    1    5    5    0  503  0.83593429356E+01  0.35615357827E+01  0.11612873341E+02  0.14745235796E+02  0.00000000000E+00 0.  1.
         -1    1    6    6    0  502 -0.14638472827E+03  0.10171334974E+03  0.71129527196E+02  0.19192056645E+03  0.00000000000E+00 0.  1.
<mgrwt>
<rscale>  0 0.38243820E+04</rscale>
<asrwt>0</asrwt>
<pdfrwt beam="1">  1        1 0.38059400E+00 0.38243820E+04</pdfrwt>
<pdfrwt beam="2">  1       -1 0.22739133E+00 0.38243820E+04</pdfrwt>
<totfact> 0.11017816E-01</totfact>
</mgrwt>
</event>
<event>
12    1  0.1980523E-007  0.1376274E+04  0.7818608E-02  0.8971174E-01
         -2   -1    0    0    0  501 -0.00000000000E+00  0.00000000000E+00  0.37637800180E+03  0.37637800180E+03  0.00000000000E+00 0.  1.
          2   -1    0    0  501    0  0.00000000000E+00 -0.00000000000E+00 -0.12581299163E+04  0.12581299163E+04  0.00000000000E+00 0. -1.
         23    2    1    2    0    0 -0.29142949395E+03  0.15404038380E+03 -0.14499453226E+02  0.34237838117E+03  0.91395470129E+02 0.  0.
        254    2    1    2    0    0  0.29142949395E+03 -0.15404038380E+03 -0.86725246128E+03  0.12921295369E+04  0.89933993510E+03 0.  0.
        -24    2    4    4    0    0  0.23229141852E+03 -0.31591078965E+03  0.44246576669E+01  0.39997797431E+03  0.78764663427E+02 0.  0.
         24    2    4    4    0    0  0.59138075430E+02  0.16187040585E+03 -0.87167711895E+03  0.89215156263E+03  0.80087893962E+02 0.  0.
         13    1    3    3    0    0 -0.16443154563E+03  0.92104493264E+02  0.36854336827E+02  0.19203961316E+03  0.00000000000E+00 0.  1.
        -13    1    3    3    0    0 -0.12699794832E+03  0.61935890539E+02 -0.51353790053E+02  0.15033876801E+03  0.00000000000E+00 0. -1.
          4    1    6    6  502    0 -0.24894221516E+01  0.64753928537E+02 -0.46599930631E+03  0.47048339181E+03  0.00000000000E+00 0. -1.
          1    1    5    5  503    0  0.21212900684E+03 -0.24915052811E+03 -0.15058688123E+02  0.32756902370E+03  0.00000000000E+00 0. -1.
         -2    1    5    5    0  503  0.20162411683E+02 -0.66760261546E+02  0.19483345789E+02  0.72408950619E+02  0.00000000000E+00 0.  1.
         -3    1    6    6    0  502  0.61627497581E+02  0.97116477312E+02 -0.40567781263E+03  0.42166817083E+03  0.00000000000E+00 0.  1.
<mgrwt>
<rscale>  0 0.13762738E+04</rscale>
<asrwt>0</asrwt>
<pdfrwt beam="1">  1        2 0.19355845E+00 0.13762738E+04</pdfrwt>
<pdfrwt beam="2">  1       -2 0.57904307E-01 0.13762738E+04</pdfrwt>
<totfact> 0.47609137E+01</totfact>
</mgrwt>
</event>
<event>
12    1  0.1980523E-007  0.1468059E+04  0.7818608E-02  0.8905975E-01
         -1   -1    0    0    0  501 -0.00000000000E+00  0.00000000000E+00  0.52164173615E+03  0.52164173615E+03  0.00000000000E+00 0.  1.
          1   -1    0    0  501    0  0.00000000000E+00 -0.00000000000E+00 -0.10328921460E+04  0.10328921460E+04  0.00000000000E+00 0. -1.
         23    2    1    2    0    0 -0.23417570907E+03 -0.20943787665E+03  0.18194723198E+03  0.37456261165E+03  0.92140479307E+02 0.  0.
        254    2    1    2    0    0  0.23417570907E+03  0.20943787665E+03 -0.69319764187E+03  0.11799712705E+04  0.90172431581E+03 0.  0.
        -24    2    4    4    0    0  0.47990520200E+02 -0.29856928543E+03 -0.18687485079E+02  0.31163676023E+03  0.72948886211E+02 0.  0.
         24    2    4    4    0    0  0.18618518887E+03  0.50800716208E+03 -0.67451015680E+03  0.86833451031E+03  0.79401945200E+02 0.  0.
         13    1    3    3    0    0 -0.95874830420E+02 -0.13453591693E+03  0.12547251124E+03  0.20744938450E+03  0.00000000000E+00 0.  1.
        -13    1    3    3    0    0 -0.13830087865E+03 -0.74901959714E+02  0.56474720735E+02  0.16711322715E+03  0.00000000000E+00 0. -1.
          4    1    6    6  502    0  0.10691998172E+03  0.36276479471E+03 -0.42455350383E+03  0.56857352769E+03  0.00000000000E+00 0. -1.
          3    1    5    5  503    0 -0.29927334631E+01 -0.21872394920E+02 -0.20717199166E+02  0.30274749452E+02  0.00000000000E+00 0. -1.
         -4    1    5    5    0  503  0.50983253663E+02 -0.27669689051E+03  0.20297140870E+01  0.28136201078E+03  0.00000000000E+00 0.  1.
         -3    1    6    6    0  502  0.79265207149E+02  0.14524236737E+03 -0.24995665296E+03  0.29976098262E+03  0.00000000000E+00 0.  1.
<mgrwt>
<rscale>  0 0.14680595E+04</rscale>
<asrwt>0</asrwt>
<pdfrwt beam="1">  1        1 0.15890648E+00 0.14680595E+04</pdfrwt>
<pdfrwt beam="2">  1       -1 0.80252575E-01 0.14680595E+04</pdfrwt>
<totfact> 0.21441251E+01</totfact>
</mgrwt>
</event>
<event>
12    1  0.1980523E-007  0.3022511E+04  0.7818608E-02  0.8237332E-01
          2   -1    0    0  501    0  0.00000000000E+00  0.00000000000E+00  0.33637996546E+04  0.33637996546E+04  0.00000000000E+00 0.  1.
         -2   -1    0    0    0  501 -0.00000000000E+00 -0.00000000000E+00 -0.67896251244E+03  0.67896251244E+03  0.00000000000E+00 0. -1.
         23    2    1    2    0    0 -0.38321529967E+03  0.12696377636E+04  0.73257483469E+03  0.15178241879E+04  0.91051416242E+02 0.  0.
        254    2    1    2    0    0  0.38321529967E+03 -0.12696377636E+04  0.19522623075E+04  0.25249379791E+04  0.89730132319E+03 0.  0.
        -24    2    4    4    0    0  0.22184303544E+02 -0.11353590643E+04  0.10852761422E+04  0.15728464768E+04  0.80556728158E+02 0.  0.
         24    2    4    4    0    0  0.36103099613E+03 -0.13427869925E+03  0.86698616523E+03  0.95209150229E+03  0.80243808484E+02 0.  0.
         11    1    3    3    0    0 -0.18849408480E+03  0.75150345310E+03  0.39769139540E+03  0.87088799854E+03  0.00000000000E+00 0. -1.
        -11    1    3    3    0    0 -0.19472121487E+03  0.51813431049E+03  0.33488343929E+03  0.64693618939E+03  0.00000000000E+00 0.  1.
          4    1    6    6  502    0  0.11976081205E+03 -0.14553502985E+02  0.21263464127E+03  0.24447483965E+03  0.00000000000E+00 0. -1.
          3    1    5    5  503    0 -0.31566510026E+01 -0.48604204499E+00  0.21297776439E+01  0.38388325353E+01  0.00000000000E+00 0. -1.
         -4    1    5    5    0  503  0.25340954547E+02 -0.11348730223E+04  0.10831463646E+04  0.15690076443E+04  0.00000000000E+00 0.  1.
         -3    1    6    6    0  502  0.24127018407E+03 -0.11972519626E+03  0.65435152396E+03  0.70761666264E+03  0.00000000000E+00 0.  1.
<mgrwt>
<rscale>  0 0.30225114E+04</rscale>
<asrwt>0</asrwt>
<pdfrwt beam="1">  1        2 0.51750763E+00 0.30225114E+04</pdfrwt>
<pdfrwt beam="2">  1       -2 0.10445577E+00 0.30225114E+04</pdfrwt>
<totfact> 0.64119589E-01</totfact>
</mgrwt>
</event>
<event>
12    1  0.1980523E-007  0.1925606E+04  0.7818608E-02  0.8642214E-01
         -1   -1    0    0    0  501 -0.00000000000E+00  0.00000000000E+00  0.71147668492E+03  0.71147668492E+03  0.00000000000E+00 0.  1.
          1   -1    0    0  501    0  0.00000000000E+00 -0.00000000000E+00 -0.13029098132E+04  0.13029098132E+04  0.00000000000E+00 0. -1.
         23    2    1    2    0    0  0.57376991803E+03  0.27829593659E+03 -0.64462257732E+03  0.90947910222E+03  0.70380558576E+02 0.  0.
        254    2    1    2    0    0 -0.57376991803E+03 -0.27829593659E+03  0.53189449086E+02  0.11049073959E+04  0.90073896816E+03 0.  0.
        -24    2    4    4    0    0 -0.11099295749E+03  0.21350322487E+03 -0.25319801454E+03  0.35915107325E+03  0.83529606783E+02 0.  0.
         24    2    4    4    0    0 -0.46277696054E+03 -0.49179916146E+03  0.30638746363E+03  0.74575632260E+03  0.79058740284E+02 0.  0.
         13    1    3    3    0    0  0.23583417054E+03  0.95723226225E+02 -0.21485045103E+03  0.33307868191E+03  0.00000000000E+00 0.  1.
        -13    1    3    3    0    0  0.33793574749E+03  0.18257271037E+03 -0.42977212628E+03  0.57640042031E+03  0.00000000000E+00 0. -1.
          4    1    6    6  502    0 -0.29127288521E+03 -0.25939853385E+03  0.15553259544E+03  0.41990222823E+03  0.00000000000E+00 0. -1.
          1    1    5    5  503    0 -0.82292167856E+02  0.21016833265E+03 -0.22783061061E+03  0.32070159973E+03  0.00000000000E+00 0. -1.
         -2    1    5    5    0  503 -0.28700789634E+02  0.33348922148E+01 -0.25367403937E+02  0.38449473523E+02  0.00000000000E+00 0.  1.
         -1    1    6    6    0  502 -0.17150407533E+03 -0.23240062761E+03  0.15085486819E+03  0.32585409438E+03  0.00000000000E+00 0.  1.
<mgrwt>
<rscale>  0 0.19256064E+04</rscale>
<asrwt>0</asrwt>
<pdfrwt beam="1">  1        1 0.20044766E+00 0.19256064E+04</pdfrwt>
<pdfrwt beam="2">  1       -1 0.10945795E+00 0.19256064E+04</pdfrwt>
<totfact> 0.64898493E+00</totfact>
</mgrwt>
</event>
<event>
12    1  0.1980523E-007  0.1623269E+04  0.7818608E-02  0.8806379E-01
         -1   -1    0    0    0  501 -0.00000000000E+00  0.00000000000E+00  0.39569527908E+03  0.39569527908E+03  0.00000000000E+00 0.  1.
          1   -1    0    0  501    0  0.00000000000E+00 -0.00000000000E+00 -0.16647925105E+04  0.16647925105E+04  0.00000000000E+00 0. -1.
         23    2    1    2    0    0  0.47615955655E+03 -0.22131757434E+03 -0.68314361535E+03  0.86662946069E+03  0.93016293909E+02 0.  0.
        254    2    1    2    0    0 -0.47615955655E+03  0.22131757434E+03 -0.58595361606E+03  0.11938583289E+04  0.89791239956E+03 0.  0.
        -24    2    4    4    0    0 -0.61092454770E+03  0.44617360462E+03 -0.37439765142E+03  0.84777869611E+03  0.79091262160E+02 0.  0.
         24    2    4    4    0    0  0.13476499115E+03 -0.22485603028E+03 -0.21155596464E+03  0.34607963278E+03  0.79330629982E+02 0.  0.
         13    1    3    3    0    0  0.39019459467E+03 -0.13950802598E+03 -0.54080085495E+03  0.68130747518E+03  0.00000000000E+00 0.  1.
        -13    1    3    3    0    0  0.85964961884E+02 -0.81809548361E+02 -0.14234276040E+03  0.18532198551E+03  0.00000000000E+00 0. -1.
          2    1    6    6  502    0  0.32859447861E+02 -0.24360281143E+02 -0.59120431734E+01  0.41329394692E+02  0.00000000000E+00 0. -1.
          1    1    5    5  503    0 -0.59973657056E+02  0.50442264760E+02 -0.13886594471E+02  0.79587053726E+02  0.00000000000E+00 0. -1.
         -2    1    5    5    0  503 -0.55095089065E+03  0.39573133986E+03 -0.36051105695E+03  0.76819164239E+03  0.00000000000E+00 0.  1.
         -1    1    6    6    0  502  0.10190554329E+03 -0.20049574914E+03 -0.20564392147E+03  0.30475023808E+03  0.00000000000E+00 0.  1.
<mgrwt>
<rscale>  0 0.16232690E+04</rscale>
<asrwt>0</asrwt>
<pdfrwt beam="1">  1        1 0.25612192E+00 0.16232690E+04</pdfrwt>
<pdfrwt beam="2">  1       -1 0.60876198E-01 0.16232690E+04</pdfrwt>
<totfact> 0.13202360E+01</totfact>
</mgrwt>
</event>
<event>
12    1  0.1980523E-007  0.2948272E+04  0.7818608E-02  0.8258658E-01
          2   -1    0    0  501    0  0.00000000000E+00  0.00000000000E+00  0.32085831405E+04  0.32085831405E+04  0.00000000000E+00 0. -1.
         -2   -1    0    0    0  501 -0.00000000000E+00 -0.00000000000E+00 -0.67727012414E+03  0.67727012414E+03  0.00000000000E+00 0.  1.
         23    2    1    2    0    0 -0.83862552696E+03  0.55052973385E+03 -0.12416277728E+02  0.10075131376E+04  0.92481329014E+02 0.  0.
        254    2    1    2    0    0  0.83862552696E+03 -0.55052973385E+03  0.25437292940E+04  0.28783401270E+04  0.89883669420E+03 0.  0.
        -24    2    4    4    0    0 -0.97745426496E+02 -0.15875647270E+03  0.92446640250E+02  0.22409767914E+03  0.83160101478E+02 0.  0.
         24    2    4    4    0    0  0.93637095346E+03 -0.39177326115E+03  0.24512826538E+04  0.26542424478E+04  0.77067972944E+02 0.  0.
         11    1    3    3    0    0 -0.56387198151E+03  0.34131600603E+03  0.28591198964E+02  0.65974668181E+03  0.00000000000E+00 0.  1.
        -11    1    3    3    0    0 -0.27475354545E+03  0.20921372781E+03 -0.41007476691E+02  0.34776645581E+03  0.00000000000E+00 0. -1.
          2    1    6    6  502    0  0.79721208989E+03 -0.36205485129E+03  0.21196962395E+04  0.22934129544E+04  0.00000000000E+00 0. -1.
          3    1    5    5  503    0 -0.59739539539E+02 -0.13763905593E+03  0.38677616063E+02  0.15494928294E+03  0.00000000000E+00 0. -1.
         -4    1    5    5    0  503 -0.38005886957E+02 -0.21117416773E+02  0.53769024187E+02  0.69148396196E+02  0.00000000000E+00 0.  1.
         -1    1    6    6    0  502  0.13915886357E+03 -0.29718409855E+02  0.33158641428E+03  0.36082949343E+03  0.00000000000E+00 0.  1.
<mgrwt>
<rscale>  0 0.29482724E+04</rscale>
<asrwt>0</asrwt>
<pdfrwt beam="1">  1        2 0.49362817E+00 0.29482724E+04</pdfrwt>
<pdfrwt beam="2">  1       -2 0.10419541E+00 0.29482724E+04</pdfrwt>
<totfact> 0.82347705E-01</totfact>
</mgrwt>
</event>
<event>
12    1  0.1980523E-007  0.3015457E+04  0.7818608E-02  0.8239331E-01
          1   -1    0    0  501    0  0.00000000000E+00  0.00000000000E+00  0.15087923103E+04  0.15087923103E+04  0.00000000000E+00 0. -1.
         -1   -1    0    0    0  501 -0.00000000000E+00 -0.00000000000E+00 -0.15066654917E+04  0.15066654917E+04  0.00000000000E+00 0.  1.
         23    2    1    2    0    0 -0.72113526527E+03 -0.11369960085E+04 -0.26046388630E+03  0.13744287284E+04  0.91743660462E+02 0.  0.
        254    2    1    2    0    0  0.72113526527E+03  0.11369960085E+04  0.26259070488E+03  0.16410290736E+04  0.90068115776E+03 0.  0.
        -24    2    4    4    0    0  0.99870241069E+01 -0.13523258381E+03 -0.68713065006E+01  0.15670591261E+03  0.78242800436E+02 0.  0.
         24    2    4    4    0    0  0.71114824116E+03  0.12722285923E+04  0.26946201138E+03  0.14843231610E+04  0.79423288077E+02 0.  0.
         11    1    3    3    0    0 -0.91465572657E+02 -0.17840300151E+03 -0.66608302774E+02  0.21125872272E+03  0.00000000000E+00 0.  1.
        -11    1    3    3    0    0 -0.62966969261E+03 -0.95859300696E+03 -0.19385558353E+03  0.11631700056E+04  0.00000000000E+00 0. -1.
          4    1    6    6  502    0  0.37470964700E+03  0.70845685822E+03  0.18354813719E+03  0.82219727449E+03  0.00000000000E+00 0. -1.
          1    1    5    5  503    0  0.42722194407E+02 -0.87039513401E+02  0.56221452168E+01  0.97121940389E+02  0.00000000000E+00 0. -1.
         -2    1    5    5    0  503 -0.32735170300E+02 -0.48193070408E+02 -0.12493451717E+02  0.59583972222E+02  0.00000000000E+00 0.  1.
         -3    1    6    6    0  502  0.33643859416E+03  0.56377173406E+03  0.85913874197E+02  0.66212588648E+03  0.00000000000E+00 0.  1.
<mgrwt>
<rscale>  0 0.30154571E+04</rscale>
<asrwt>0</asrwt>
<pdfrwt beam="1">  1        1 0.23212189E+00 0.30154571E+04</pdfrwt>
<pdfrwt beam="2">  1       -1 0.23179469E+00 0.30154571E+04</pdfrwt>
<totfact> 0.50352701E-01</totfact>
</mgrwt>
</event>
<event>
12    1  0.1980523E-007  0.3402086E+04  0.7818608E-02  0.8137395E-01
         -1   -1    0    0    0  501 -0.00000000000E+00  0.00000000000E+00  0.71508821447E+03  0.71508821447E+03  0.00000000000E+00 0.  1.
          1   -1    0    0  501    0  0.00000000000E+00 -0.00000000000E+00 -0.40464201123E+04  0.40464201123E+04  0.00000000000E+00 0. -1.
         23    2    1    2    0    0 -0.10787741747E+04 -0.65667864848E+03 -0.21975475758E+03  0.12853052101E+04  0.93470649408E+02 0.  0.
        254    2    1    2    0    0  0.10787741747E+04  0.65667864848E+03 -0.31115771402E+04  0.34762031166E+04  0.89838479558E+03 0.  0.
        -24    2    4    4    0    0  0.74235716819E+03 -0.62700165941E+02 -0.14278674477E+04  0.16129218877E+04  0.87670358156E+02 0.  0.
         24    2    4    4    0    0  0.33641700653E+03  0.71937881442E+03 -0.16837096925E+04  0.18632812289E+04  0.79096955175E+02 0.  0.
         13    1    3    3    0    0 -0.83779314167E+03 -0.46592620583E+03 -0.15248296638E+03  0.97068822623E+03  0.00000000000E+00 0.  1.
        -13    1    3    3    0    0 -0.24098103305E+03 -0.19075244266E+03 -0.67271791195E+02  0.31461698390E+03  0.00000000000E+00 0. -1.
          4    1    6    6  502    0  0.17525773309E+03  0.30414997875E+03 -0.68310837319E+03  0.76802313253E+03  0.00000000000E+00 0. -1.
          1    1    5    5  503    0  0.25603612734E+03 -0.52716751446E+02 -0.56077493229E+03  0.61871001210E+03  0.00000000000E+00 0. -1.
         -2    1    5    5    0  503  0.48632104085E+03 -0.99834144945E+01 -0.86709251544E+03  0.99421187564E+03  0.00000000000E+00 0.  1.
         -3    1    6    6    0  502  0.16115927343E+03  0.41522883568E+03 -0.10006013193E+04  0.10952580963E+04  0.00000000000E+00 0.  1.
<mgrwt>
<rscale>  0 0.34020860E+04</rscale>
<asrwt>0</asrwt>
<pdfrwt beam="1">  1        1 0.62252618E+00 0.34020860E+04</pdfrwt>
<pdfrwt beam="2">  1       -1 0.11001357E+00 0.34020860E+04</pdfrwt>
<totfact> 0.54645680E-02</totfact>
</mgrwt>
</event>
<event>
12    1  0.3280516E-007  0.2506674E+04  0.7818608E-02  0.8400612E-01
          2   -1    0    0  501    0  0.00000000000E+00  0.00000000000E+00  0.16200428181E+04  0.16200428181E+04  0.00000000000E+00 0. -1.
         -2   -1    0    0    0  501 -0.00000000000E+00 -0.00000000000E+00 -0.96963739488E+03  0.96963739488E+03  0.00000000000E+00 0.  1.
         23    2    1    2    0    0 -0.13930759112E+03  0.10801920763E+04  0.29456654808E+03  0.11318908960E+04  0.90476640523E+02 0.  0.
        254    2    1    2    0    0  0.13930759112E+03 -0.10801920763E+04  0.35583887518E+03  0.14577893170E+04  0.90128067824E+03 0.  0.
        -24    2    4    4    0    0 -0.15766025439E+03 -0.10912529843E+04  0.29595165947E+03  0.11443693424E+04  0.79397578777E+02 0.  0.
         24    2    4    4    0    0  0.29696784550E+03  0.11060907975E+02  0.59887215715E+02  0.31341997460E+03  0.79582390790E+02 0.  0.
         13    1    3    3    0    0 -0.12677050570E+03  0.69081161955E+03  0.21212247917E+03  0.73368072142E+03  0.00000000000E+00 0. -1.
        -13    1    3    3    0    0 -0.12537085417E+02  0.38938045680E+03  0.82444068913E+02  0.39821017459E+03  0.00000000000E+00 0.  1.
          4    1    6    6  502    0  0.29090103691E+03  0.25108052993E+02  0.53521579812E+02  0.29684741384E+03  0.00000000000E+00 0. -1.
          3    1    5    5  503    0 -0.14059783266E+03 -0.10223250374E+04  0.29526325342E+03  0.10733576392E+04  0.00000000000E+00 0. -1.
         -4    1    5    5    0  503 -0.17062421724E+02 -0.68927946880E+02  0.68840605267E+00  0.71011703254E+02  0.00000000000E+00 0.  1.
         -3    1    6    6    0  502  0.60668085991E+01 -0.14047145018E+02  0.63656359033E+01  0.16572560761E+02  0.00000000000E+00 0.  1.
<mgrwt>
<rscale>  0 0.25066744E+04</rscale>
<asrwt>0</asrwt>
<pdfrwt beam="1">  1        2 0.24923736E+00 0.25066744E+04</pdfrwt>
<pdfrwt beam="2">  1       -2 0.14917498E+00 0.25066744E+04</pdfrwt>
<totfact> 0.29457363E+00</totfact>
</mgrwt>
</event>
<event>
12    1  0.1980523E-007  0.1869695E+04  0.7818608E-02  0.8670090E-01
         -2   -1    0    0    0  501 -0.00000000000E+00  0.00000000000E+00  0.77536304333E+03  0.77536304333E+03  0.00000000000E+00 0. -1.
          2   -1    0    0  501    0  0.00000000000E+00 -0.00000000000E+00 -0.11271358908E+04  0.11271358908E+04  0.00000000000E+00 0.  1.
         23    2    1    2    0    0 -0.13321078211E+03  0.53935105890E+03  0.32153193506E+03  0.64848635804E+03  0.92233909648E+02 0.  0.
        254    2    1    2    0    0  0.13321078211E+03 -0.53935105890E+03 -0.67330478254E+03  0.12540125761E+04  0.90031301981E+03 0.  0.
        -24    2    4    4    0    0  0.47293505898E+03 -0.91817108650E+02 -0.35551248566E+03  0.60382127158E+03  0.78185990407E+02 0.  0.
         24    2    4    4    0    0 -0.33972427687E+03 -0.44753395025E+03 -0.31779229689E+03  0.65019130453E+03  0.77830377130E+02 0.  0.
         13    1    3    3    0    0 -0.84384536593E+02  0.47092535652E+03  0.28455111018E+03  0.55665139516E+03  0.00000000000E+00 0. -1.
        -13    1    3    3    0    0 -0.48826245518E+02  0.68425702376E+02  0.36980824880E+02  0.91834962872E+02  0.00000000000E+00 0.  1.
          2    1    6    6  502    0 -0.30697181204E+02 -0.74329659927E+02 -0.25726809120E+02  0.84433903061E+02  0.00000000000E+00 0. -1.
          1    1    5    5  503    0  0.30217483353E+03 -0.83437561304E+02 -0.26438050694E+03  0.41008353918E+03  0.00000000000E+00 0. -1.
         -2    1    5    5    0  503  0.17076022545E+03 -0.83795473451E+01 -0.91131978715E+02  0.19373773240E+03  0.00000000000E+00 0.  1.
         -1    1    6    6    0  502 -0.30902709567E+03 -0.37320429032E+03 -0.29206548777E+03  0.56575740147E+03  0.00000000000E+00 0.  1.
<mgrwt>
<rscale>  0 0.18696946E+04</rscale>
<asrwt>0</asrwt>
<pdfrwt beam="1">  1        2 0.17340552E+00 0.18696946E+04</pdfrwt>
<pdfrwt beam="2">  1       -2 0.11928662E+00 0.18696946E+04</pdfrwt>
<totfact> 0.10608951E+01</totfact>
</mgrwt>
</event>
<event>
12    1  0.1980523E-007  0.2379597E+04  0.7818608E-02  0.8447182E-01
         -2   -1    0    0    0  501 -0.00000000000E+00  0.00000000000E+00  0.52482336830E+03  0.52482336830E+03  0.00000000000E+00 0.  1.
          2   -1    0    0  501    0  0.00000000000E+00 -0.00000000000E+00 -0.26973263131E+04  0.26973263131E+04  0.00000000000E+00 0. -1.
         23    2    1    2    0    0  0.37882661263E+03 -0.94189047914E+03 -0.86332544798E+03  0.13358298653E+04  0.91887554801E+02 0.  0.
        254    2    1    2    0    0 -0.37882661263E+03  0.94189047914E+03 -0.13091774968E+04  0.18863198161E+04  0.90199193636E+03 0.  0.
        -24    2    4    4    0    0  0.83887501756E+02  0.88862411382E+02  0.98019313392E+02  0.17513693102E+03  0.78304008202E+02 0.  0.
         24    2    4    4    0    0 -0.46271411439E+03  0.85302806776E+03 -0.14071968102E+04  0.17111828850E+04  0.78630575914E+02 0.  0.
         13    1    3    3    0    0  0.28474632618E+03 -0.70116908728E+03 -0.69424651106E+03  0.10269843121E+04  0.00000000000E+00 0. -1.
        -13    1    3    3    0    0  0.94080286452E+02 -0.24072139186E+03 -0.16907893692E+03  0.30884555316E+03  0.00000000000E+00 0.  1.
          4    1    6    6  502    0 -0.16374586186E+03  0.34971920485E+03 -0.50544813682E+03  0.63607707750E+03  0.00000000000E+00 0. -1.
          1    1    5    5  503    0  0.26415111046E+01  0.26685876574E+02 -0.78204536671E+01  0.27933368666E+02  0.00000000000E+00 0. -1.
         -2    1    5    5    0  503  0.81245990651E+02  0.62176534807E+02  0.10583976706E+03  0.14720356235E+03  0.00000000000E+00 0.  1.
         -3    1    6    6    0  502 -0.29896825253E+03  0.50330886291E+03 -0.90174867336E+03  0.10751058075E+04  0.00000000000E+00 0.  1.
<mgrwt>
<rscale>  0 0.23795965E+04</rscale>
<asrwt>0</asrwt>
<pdfrwt beam="1">  1        2 0.41497327E+00 0.23795965E+04</pdfrwt>
<pdfrwt beam="2">  1       -2 0.80742058E-01 0.23795965E+04</pdfrwt>
<totfact> 0.32503397E+00</totfact>
</mgrwt>
</event>
<event>
12    1  0.1980523E-007  0.1937825E+04  0.7818608E-02  0.8636254E-01
         -2   -1    0    0    0  501 -0.00000000000E+00  0.00000000000E+00  0.11722608453E+04  0.11722608453E+04  0.00000000000E+00 0.  1.
          2   -1    0    0  501    0  0.00000000000E+00 -0.00000000000E+00 -0.80083811717E+03  0.80083811717E+03  0.00000000000E+00 0. -1.
         23    2    1    2    0    0 -0.55507868696E+03 -0.50364150872E+03  0.40051698305E+02  0.75551720519E+03  0.86226392552E+02 0.  0.
        254    2    1    2    0    0  0.55507868696E+03  0.50364150872E+03  0.33137102987E+03  0.12175817573E+04  0.90051732816E+03 0.  0.
        -24    2    4    4    0    0  0.59794549732E+03  0.20307971811E+03 -0.13961931603E+03  0.65158445209E+03  0.79300410654E+02 0.  0.
         24    2    4    4    0    0 -0.42866810356E+02  0.30056179061E+03  0.47099034590E+03  0.56599730524E+03  0.79662351239E+02 0.  0.
         13    1    3    3    0    0 -0.21437215870E+03 -0.23427630592E+03  0.47745193134E+02  0.32112367307E+03  0.00000000000E+00 0.  1.
        -13    1    3    3    0    0 -0.34070652826E+03 -0.26936520280E+03 -0.76934948285E+01  0.43439353212E+03  0.00000000000E+00 0. -1.
          4    1    6    6  502    0  0.10104509903E+02  0.36021069050E+01  0.28669875323E+02  0.30611077171E+02  0.00000000000E+00 0. -1.
          3    1    5    5  503    0  0.22607507054E+03  0.45469597229E+02 -0.75419167735E+02  0.24262207783E+03  0.00000000000E+00 0. -1.
         -4    1    5    5    0  503  0.37187042678E+03  0.15761012088E+03 -0.64200148291E+02  0.40896237426E+03  0.00000000000E+00 0.  1.
         -3    1    6    6    0  502 -0.52971320259E+02  0.29695968371E+03  0.44232047057E+03  0.53538622807E+03  0.00000000000E+00 0.  1.
<mgrwt>
<rscale>  0 0.19378247E+04</rscale>
<asrwt>0</asrwt>
<pdfrwt beam="1">  1        2 0.12320586E+00 0.19378247E+04</pdfrwt>
<pdfrwt beam="2">  1       -2 0.18034782E+00 0.19378247E+04</pdfrwt>
<totfact> 0.57887979E+00</totfact>
</mgrwt>
</event>
<event>
12    1  0.1980523E-007  0.1844812E+04  0.7818608E-02  0.8682825E-01
          1   -1    0    0  501    0  0.00000000000E+00  0.00000000000E+00  0.18576227135E+04  0.18576227135E+04  0.00000000000E+00 0. -1.
         -1   -1    0    0    0  501 -0.00000000000E+00 -0.00000000000E+00 -0.45802246357E+03  0.45802246357E+03  0.00000000000E+00 0.  1.
         23    2    1    2    0    0 -0.67732298300E+03 -0.72531012823E+02  0.75800848045E+03  0.10218634716E+04  0.74839341387E+02 0.  0.
        254    2    1    2    0    0  0.67732298300E+03  0.72531012823E+02  0.64159176952E+03  0.12937817055E+04  0.89342259412E+03 0.  0.
        -24    2    4    4    0    0  0.71975969401E+03  0.16162110787E+03  0.80223069849E+03  0.10928045312E+04  0.80450296348E+02 0.  0.
         24    2    4    4    0    0 -0.42436711012E+02 -0.89090095048E+02 -0.16063892897E+03  0.20097717431E+03  0.69635045873E+02 0.  0.
         11    1    3    3    0    0 -0.51932536725E+03 -0.84350982394E+02  0.56232952114E+03  0.77008338227E+03  0.00000000000E+00 0.  1.
        -11    1    3    3    0    0 -0.15799761575E+03  0.11819969570E+02  0.19567895931E+03  0.25178008932E+03  0.00000000000E+00 0. -1.
          4    1    6    6  502    0 -0.30779466365E+02 -0.26019666572E+01 -0.25237680905E+02  0.39888423354E+02  0.00000000000E+00 0. -1.
          1    1    5    5  503    0  0.52447203617E+01 -0.59162558765E+01  0.58503852013E+01  0.98354553668E+01  0.00000000000E+00 0. -1.
         -2    1    5    5    0  503  0.71451497365E+03  0.16753736375E+03  0.79638031329E+03  0.10829690758E+04  0.00000000000E+00 0.  1.
         -3    1    6    6    0  502 -0.11657244647E+02 -0.86488128391E+02 -0.13540124807E+03  0.16108875095E+03  0.00000000000E+00 0.  1.
<mgrwt>
<rscale>  0 0.18448121E+04</rscale>
<asrwt>0</asrwt>
<pdfrwt beam="1">  1        1 0.28578811E+00 0.18448121E+04</pdfrwt>
<pdfrwt beam="2">  1       -1 0.70464995E-01 0.18448121E+04</pdfrwt>
<totfact> 0.71220055E+00</totfact>
</mgrwt>
</event>
<event>
12    1  0.1980523E-007  0.1525084E+04  0.7818608E-02  0.8867942E-01
         -2   -1    0    0    0  501 -0.00000000000E+00  0.00000000000E+00  0.41736987563E+03  0.41736987563E+03  0.00000000000E+00 0.  1.
          2   -1    0    0  501    0  0.00000000000E+00 -0.00000000000E+00 -0.13931774922E+04  0.13931774922E+04  0.00000000000E+00 0. -1.
         23    2    1    2    0    0 -0.39129107187E+03 -0.30712523785E+02 -0.67115945000E+03  0.78264767267E+03  0.89612555874E+02 0.  0.
        254    2    1    2    0    0  0.39129107187E+03  0.30712523785E+02 -0.30464816659E+03  0.10278996952E+04  0.89984182828E+03 0.  0.
        -24    2    4    4    0    0  0.11787433851E+03 -0.95685511048E+02  0.30127337682E+03  0.34673576427E+03  0.80062262887E+02 0.  0.
         24    2    4    4    0    0  0.27341673336E+03  0.12639803483E+03 -0.60592154341E+03  0.68116393092E+03  0.78167836864E+02 0.  0.
         13    1    3    3    0    0 -0.10530638057E+03 -0.40070859431E+02 -0.24065277965E+03  0.26572329202E+03  0.00000000000E+00 0. -1.
        -13    1    3    3    0    0 -0.28598469130E+03  0.93583356458E+01 -0.43050667035E+03  0.51692438066E+03  0.00000000000E+00 0.  1.
          2    1    6    6  502    0  0.23698124719E+02  0.13290656838E+02 -0.18349772199E+02  0.32786534036E+02  0.00000000000E+00 0. -1.
          1    1    5    5  503    0  0.28123113401E+02 -0.20971807229E+02  0.16142928049E+02  0.38617616858E+02  0.00000000000E+00 0. -1.
         -2    1    5    5    0  503  0.89751225106E+02 -0.74713703819E+02  0.28513044877E+03  0.30811814741E+03  0.00000000000E+00 0.  1.
         -1    1    6    6    0  502  0.24971860865E+03  0.11310737800E+03 -0.58757177122E+03  0.64837739688E+03  0.00000000000E+00 0.  1.
<mgrwt>
<rscale>  0 0.15250840E+04</rscale>
<asrwt>0</asrwt>
<pdfrwt beam="1">  1        2 0.21433500E+00 0.15250840E+04</pdfrwt>
<pdfrwt beam="2">  1       -2 0.64210750E-01 0.15250840E+04</pdfrwt>
<totfact> 0.31557681E+01</totfact>
</mgrwt>
</event>
<event>
12    1  0.1980523E-007  0.1265533E+04  0.7818608E-02  0.9057354E-01
         -1   -1    0    0    0  501 -0.00000000000E+00  0.00000000000E+00  0.24020808836E+03  0.24020808836E+03  0.00000000000E+00 0.  1.
          1   -1    0    0  501    0  0.00000000000E+00 -0.00000000000E+00 -0.16668598974E+04  0.16668598974E+04  0.00000000000E+00 0. -1.
         23    2    1    2    0    0 -0.10250455327E+03  0.25240498012E+03 -0.54675744299E+03  0.61946313080E+03  0.10283681992E+03 0.  0.
        254    2    1    2    0    0  0.10250455327E+03 -0.25240498012E+03 -0.87989436605E+03  0.12876048550E+04  0.89972035082E+03 0.  0.
        -24    2    4    4    0    0 -0.16400979010E+03  0.25316017706E+03 -0.52313517295E+03  0.60923247821E+03  0.80650584804E+02 0.  0.
         24    2    4    4    0    0  0.26651434337E+03 -0.50556515718E+03 -0.35675919310E+03  0.67837237675E+03  0.79283896810E+02 0.  0.
         13    1    3    3    0    0 -0.84242761100E+02  0.24170058311E+03 -0.53940587958E+03  0.59705503733E+03  0.00000000000E+00 0. -1.
        -13    1    3    3    0    0 -0.18261792169E+02  0.10704397010E+02 -0.73515634056E+01  0.22408093472E+02  0.00000000000E+00 0.  1.
          4    1    6    6  502    0  0.41902263356E+02 -0.33710777987E+02 -0.42755387891E+02  0.68703998577E+02  0.00000000000E+00 0. -1.
          1    1    5    5  503    0 -0.13340045212E+03  0.13424845764E+03 -0.32771939899E+03  0.37844198166E+03  0.00000000000E+00 0. -1.
         -2    1    5    5    0  503 -0.30609337981E+02  0.11891171943E+03 -0.19541577396E+03  0.23079049655E+03  0.00000000000E+00 0.  1.
         -3    1    6    6    0  502  0.22461208001E+03 -0.47185437920E+03 -0.31400380521E+03  0.60966837817E+03  0.00000000000E+00 0.  1.
<mgrwt>
<rscale>  0 0.12655327E+04</rscale>
<asrwt>0</asrwt>
<pdfrwt beam="1">  1        1 0.25643998E+00 0.12655327E+04</pdfrwt>
<pdfrwt beam="2">  1       -1 0.36955091E-01 0.12655327E+04</pdfrwt>
<totfact> 0.34802528E+01</totfact>
</mgrwt>
</event>
<event>
12    1  0.1980523E-007  0.1835588E+04  0.7818608E-02  0.8687600E-01
         -2   -1    0    0    0  501 -0.00000000000E+00  0.00000000000E+00  0.88886002497E+03  0.88886002497E+03  0.00000000000E+00 0.  1.
          2   -1    0    0  501    0  0.00000000000E+00 -0.00000000000E+00 -0.94767024357E+03  0.94767024357E+03  0.00000000000E+00 0. -1.
         23    2    1    2    0    0 -0.65832327197E+03 -0.22066647851E+03 -0.65626337896E+01  0.70027006216E+03  0.90839785565E+02 0.  0.
        254    2    1    2    0    0  0.65832327197E+03  0.22066647851E+03 -0.52247584809E+02  0.11362602064E+04  0.89792773727E+03 0.  0.
        -24    2    4    4    0    0  0.43071346122E+03 -0.32659707039E+02  0.37941793374E+03  0.58054174550E+03  0.80560583921E+02 0.  0.
         24    2    4    4    0    0  0.22760981075E+03  0.25332618555E+03 -0.43166551855E+03  0.55571846089E+03  0.80669112049E+02 0.  0.
         13    1    3    3    0    0 -0.25575605881E+03 -0.94628770755E+02  0.40981093416E+02  0.27576297049E+03  0.00000000000E+00 0.  1.
        -13    1    3    3    0    0 -0.40256721315E+03 -0.12603770775E+03 -0.47543727205E+02  0.42450709167E+03  0.00000000000E+00 0. -1.
          4    1    6    6  502    0  0.83842768069E+02  0.82380846586E+02 -0.92337953316E+02  0.14947411570E+03  0.00000000000E+00 0. -1.
          1    1    5    5  503    0  0.69302357596E+02 -0.31279057758E+02  0.46271775155E+02  0.89007153637E+02  0.00000000000E+00 0. -1.
         -2    1    5    5    0  503  0.36141110362E+03 -0.13806492806E+01  0.33314615858E+03  0.49153459186E+03  0.00000000000E+00 0.  1.
         -3    1    6    6    0  502  0.14376704268E+03  0.17094533896E+03 -0.33932756523E+03  0.40624434519E+03  0.00000000000E+00 0.  1.
<mgrwt>
<rscale>  0 0.18355884E+04</rscale>
<asrwt>0</asrwt>
<pdfrwt beam="1">  1        2 0.14579542E+00 0.18355884E+04</pdfrwt>
<pdfrwt beam="2">  1       -2 0.13674770E+00 0.18355884E+04</pdfrwt>
<totfact> 0.97900513E+00</totfact>
</mgrwt>
</event>
<event>
12    1  0.1980523E-007  0.1155766E+04  0.7818608E-02  0.9152480E-01
          2   -1    0    0  501    0  0.00000000000E+00  0.00000000000E+00  0.11394989055E+04  0.11394989055E+04  0.00000000000E+00 0. -1.
         -2   -1    0    0    0  501 -0.00000000000E+00 -0.00000000000E+00 -0.29306656303E+03  0.29306656303E+03  0.00000000000E+00 0.  1.
         23    2    1    2    0    0  0.94340022150E+02 -0.18919554296E+03  0.14394124356E+03  0.27180649334E+03  0.92003776923E+02 0.  0.
        254    2    1    2    0    0 -0.94340022150E+02  0.18919554296E+03  0.70249109896E+03  0.11607589752E+04  0.89954024991E+03 0.  0.
        -24    2    4    4    0    0 -0.36890619977E+03  0.39549150903E+02 -0.85414594749E+01  0.38006403860E+03  0.81974369998E+02 0.  0.
         24    2    4    4    0    0  0.27456617762E+03  0.14964639206E+03  0.71103255843E+03  0.78069493663E+03  0.78336813737E+02 0.  0.
         11    1    3    3    0    0  0.20805588590E+02  0.62113833271E+01  0.15491206247E+02  0.26672668978E+02  0.00000000000E+00 0. -1.
        -11    1    3    3    0    0  0.73534433560E+02 -0.19540692628E+03  0.12845003731E+03  0.24513382436E+03  0.00000000000E+00 0.  1.
          4    1    6    6  502    0  0.27122282264E+03  0.15642161903E+03  0.70349565782E+03  0.77002317043E+03  0.00000000000E+00 0. -1.
          3    1    5    5  503    0 -0.22464928274E+03  0.45664396423E+02 -0.38900209282E+02  0.23252045850E+03  0.00000000000E+00 0. -1.
         -4    1    5    5    0  503 -0.14425691703E+03 -0.61152455207E+01  0.30358749807E+02  0.14754358010E+03  0.00000000000E+00 0.  1.
         -3    1    6    6    0  502  0.33433549801E+01 -0.67752269786E+01  0.75369006107E+01  0.10671766206E+02  0.00000000000E+00 0.  1.
<mgrwt>
<rscale>  0 0.11557665E+04</rscale>
<asrwt>0</asrwt>
<pdfrwt beam="1">  1        2 0.17530752E+00 0.11557665E+04</pdfrwt>
<pdfrwt beam="2">  1       -2 0.45087164E-01 0.11557665E+04</pdfrwt>
<totfact> 0.95062815E+01</totfact>
</mgrwt>
</event>
<event>
12    1  0.1980523E-007  0.2439777E+04  0.7818608E-02  0.8424760E-01
          1   -1    0    0  501    0  0.00000000000E+00  0.00000000000E+00  0.91738535520E+03  0.91738535520E+03  0.00000000000E+00 0. -1.
         -1   -1    0    0    0  501 -0.00000000000E+00 -0.00000000000E+00 -0.16221403105E+04  0.16221403105E+04  0.00000000000E+00 0.  1.
         23    2    1    2    0    0  0.14013210413E+03 -0.10170096822E+04 -0.65229413540E+02  0.10326922194E+04  0.90844060729E+02 0.  0.
        254    2    1    2    0    0 -0.14013210413E+03  0.10170096822E+04 -0.63952554176E+03  0.15068334463E+04  0.89867036013E+03 0.  0.
        -24    2    4    4    0    0  0.17374647618E+03 -0.55157722953E+02 -0.25378955304E+03  0.32232307843E+03  0.79074757481E+02 0.  0.
         24    2    4    4    0    0 -0.31387858031E+03  0.10721674051E+04 -0.38573598873E+03  0.11845103679E+04  0.78802607161E+02 0.  0.
         11    1    3    3    0    0  0.54279533892E+02 -0.65362366843E+03 -0.67105107281E+02  0.65929755282E+03  0.00000000000E+00 0.  1.
        -11    1    3    3    0    0  0.85852570239E+02 -0.36338601373E+03  0.18756937403E+01  0.37339466656E+03  0.00000000000E+00 0. -1.
          2    1    6    6  502    0 -0.91218487828E+01  0.59614266576E+01 -0.56473506285E+01  0.12273520364E+02  0.00000000000E+00 0. -1.
          3    1    5    5  503    0  0.10552634706E+03  0.78359414189E+01 -0.13234127132E+03  0.16944445697E+03  0.00000000000E+00 0. -1.
         -4    1    5    5    0  503  0.68220129112E+02 -0.62993664372E+02 -0.12144828171E+03  0.15287862146E+03  0.00000000000E+00 0.  1.
         -1    1    6    6    0  502 -0.30475673152E+03  0.10662059785E+04 -0.38008863810E+03  0.11722368475E+04  0.00000000000E+00 0.  1.
<mgrwt>
<rscale>  0 0.24397768E+04</rscale>
<asrwt>0</asrwt>
<pdfrwt beam="1">  1        1 0.14113621E+00 0.24397768E+04</pdfrwt>
<pdfrwt beam="2">  1       -1 0.24956005E+00 0.24397768E+04</pdfrwt>
<totfact> 0.11037090E+00</totfact>
</mgrwt>
</event>
<event>
12    1  0.1980523E-007  0.2024653E+04  0.7818608E-02  0.8595181E-01
         -1   -1    0    0    0  501 -0.00000000000E+00  0.00000000000E+00  0.10316765058E+04  0.10316765058E+04  0.00000000000E+00 0.  1.
          1   -1    0    0  501    0  0.00000000000E+00 -0.00000000000E+00 -0.99333905189E+03  0.99333905189E+03  0.00000000000E+00 0. -1.
         23    2    1    2    0    0 -0.67431818680E+03  0.34264773659E+03 -0.27336190847E+03  0.80937356392E+03  0.90809385695E+02 0.  0.
        254    2    1    2    0    0  0.67431818680E+03 -0.34264773659E+03  0.31169936236E+03  0.12156419937E+04  0.89917544229E+03 0.  0.
        -24    2    4    4    0    0  0.24693015911E+03 -0.39146279158E+03  0.54613366077E+03  0.71929647809E+03  0.70055886964E+02 0.  0.
         24    2    4    4    0    0  0.42738802768E+03  0.48815054985E+02 -0.23443429840E+03  0.49634551566E+03  0.79724493373E+02 0.  0.
         11    1    3    3    0    0 -0.10080625410E+03  0.83323847178E+02 -0.67297720280E+02  0.14708415118E+03  0.00000000000E+00 0. -1.
        -11    1    3    3    0    0 -0.57351193270E+03  0.25932388942E+03 -0.20606418819E+03  0.66228941274E+03  0.00000000000E+00 0.  1.
          4    1    6    6  502    0  0.17751507485E+03 -0.19137371657E+02 -0.96085472166E+02  0.20275664910E+03  0.00000000000E+00 0. -1.
          3    1    5    5  503    0  0.20380052675E+03 -0.30131983550E+03  0.46620488958E+03  0.59133349055E+03  0.00000000000E+00 0. -1.
         -4    1    5    5    0  503  0.43129632364E+02 -0.90142956075E+02  0.79928771185E+02  0.12796298754E+03  0.00000000000E+00 0.  1.
         -3    1    6    6    0  502  0.24987295283E+03  0.67952426642E+02 -0.13834882624E+03  0.29358886655E+03  0.00000000000E+00 0.  1.
<mgrwt>
<rscale>  0 0.20246526E+04</rscale>
<asrwt>0</asrwt>
<pdfrwt beam="1">  1        1 0.15282139E+00 0.20246526E+04</pdfrwt>
<pdfrwt beam="2">  1       -1 0.15871946E+00 0.20246526E+04</pdfrwt>
<totfact> 0.42369041E+00</totfact>
</mgrwt>
</event>
<event>
12    1  0.1980523E-007  0.1516117E+04  0.7818608E-02  0.8873805E-01
          2   -1    0    0  501    0  0.00000000000E+00  0.00000000000E+00  0.86745112573E+03  0.86745112573E+03  0.00000000000E+00 0.  1.
         -2   -1    0    0    0  501 -0.00000000000E+00 -0.00000000000E+00 -0.66246154314E+03  0.66246154314E+03  0.00000000000E+00 0. -1.
         23    2    1    2    0    0  0.32513984881E+03  0.22989804181E+03 -0.21389848559E+03  0.46100862276E+03  0.90594465654E+02 0.  0.
        254    2    1    2    0    0 -0.32513984881E+03 -0.22989804181E+03  0.41888806818E+03  0.10689040461E+04  0.89917718788E+03 0.  0.
        -24    2    4    4    0    0  0.20740598358E+03 -0.35855299107E+03  0.24867354938E+03  0.48969007757E+03  0.79877083509E+02 0.  0.
         24    2    4    4    0    0 -0.53254583240E+03  0.12865494926E+03  0.17021451879E+03  0.57921396854E+03  0.79741327848E+02 0.  0.
         11    1    3    3    0    0  0.10185682822E+03  0.62303932010E+02 -0.11229861404E+03  0.16391330670E+03  0.00000000000E+00 0. -1.
        -11    1    3    3    0    0  0.22328302059E+03  0.16759410980E+03 -0.10159987155E+03  0.29709531606E+03  0.00000000000E+00 0.  1.
          4    1    6    6  502    0 -0.51350259630E+03  0.11779965706E+03  0.14630807457E+03  0.54677941466E+03  0.00000000000E+00 0. -1.
          1    1    5    5  503    0  0.20200440067E+03 -0.32303880893E+03  0.24632375896E+03  0.45369069220E+03  0.00000000000E+00 0. -1.
         -2    1    5    5    0  503  0.54015829092E+01 -0.35514182147E+02  0.23497904253E+01  0.35999385363E+02  0.00000000000E+00 0.  1.
         -3    1    6    6    0  502 -0.19043236097E+02  0.10855292202E+02  0.23906444224E+02  0.32434553878E+02  0.00000000000E+00 0.  1.
<mgrwt>
<rscale>  0 0.15161174E+04</rscale>
<asrwt>0</asrwt>
<pdfrwt beam="1">  1        2 0.13345402E+00 0.15161174E+04</pdfrwt>
<pdfrwt beam="2">  1       -2 0.10191716E+00 0.15161174E+04</pdfrwt>
<totfact> 0.23519203E+01</totfact>
</mgrwt>
</event>
<event>
12    1  0.1980523E-007  0.1923765E+04  0.7818608E-02  0.8643116E-01
          2   -1    0    0  501    0  0.00000000000E+00  0.00000000000E+00  0.17147979284E+04  0.17147979284E+04  0.00000000000E+00 0. -1.
         -2   -1    0    0    0  501 -0.00000000000E+00 -0.00000000000E+00 -0.53954943530E+03  0.53954943530E+03  0.00000000000E+00 0.  1.
         23    2    1    2    0    0  0.39005176144E+03  0.58266470146E+02 -0.28421368790E+03  0.49540832802E+03  0.95481060619E+02 0.  0.
        254    2    1    2    0    0 -0.39005176144E+03 -0.58266470146E+02  0.14594621810E+04  0.17589390356E+04  0.89905579096E+03 0.  0.
        -24    2    4    4    0    0  0.16254341350E+03  0.21787341403E+03  0.18607570309E+03  0.34137847513E+03  0.89587444384E+02 0.  0.
         24    2    4    4    0    0 -0.55259517494E+03 -0.27613988417E+03  0.12733864779E+04  0.14175605605E+04  0.79687876501E+02 0.  0.
         11    1    3    3    0    0  0.28566496391E+03  0.41917690838E+02 -0.25642822073E+03  0.38615669980E+03  0.00000000000E+00 0.  1.
        -11    1    3    3    0    0  0.10438679754E+03  0.16348779308E+02 -0.27785467169E+02  0.10925162823E+03  0.00000000000E+00 0. -1.
          4    1    6    6  502    0 -0.43844472015E+02 -0.44233324930E+02  0.10064638205E+03  0.11835801189E+03  0.00000000000E+00 0. -1.
          1    1    5    5  503    0  0.10821844594E+03  0.76729601640E+02  0.65447492910E+02  0.14792578591E+03  0.00000000000E+00 0. -1.
         -2    1    5    5    0  503  0.54324967561E+02  0.14114381239E+03  0.12062821018E+03  0.19345268922E+03  0.00000000000E+00 0.  1.
         -3    1    6    6    0  502 -0.50875070293E+03 -0.23190655924E+03  0.11727400958E+04  0.12992025486E+04  0.00000000000E+00 0.  1.
<mgrwt>
<rscale>  0 0.19237653E+04</rscale>
<asrwt>0</asrwt>
<pdfrwt beam="1">  1        2 0.26381506E+00 0.19237653E+04</pdfrwt>
<pdfrwt beam="2">  1       -2 0.83007606E-01 0.19237653E+04</pdfrwt>
<totfact> 0.11438207E+01</totfact>
</mgrwt>
</event>
<event>
12    1  0.1980523E-007  0.1552871E+04  0.7818608E-02  0.8850036E-01
         -1   -1    0    0    0  501 -0.00000000000E+00  0.00000000000E+00  0.22808890449E+03  0.22808890449E+03  0.00000000000E+00 0.  1.
          1   -1    0    0  501    0  0.00000000000E+00 -0.00000000000E+00 -0.26430558445E+04  0.26430558445E+04  0.00000000000E+00 0. -1.
         23    2    1    2    0    0  0.27521177015E+03  0.22534437104E+03 -0.12799283795E+03  0.38898055740E+03  0.91662988618E+02 0.  0.
        254    2    1    2    0    0 -0.27521177015E+03 -0.22534437104E+03 -0.22869741020E+04  0.24821641916E+04  0.89686505478E+03 0.  0.
        -24    2    4    4    0    0  0.12739508198E+03 -0.35581369716E+02 -0.18395905341E+04  0.18461098499E+04  0.80825144749E+02 0.  0.
         24    2    4    4    0    0 -0.40260685213E+03 -0.18976300133E+03 -0.44738356791E+03  0.63605434161E+03  0.79440509784E+02 0.  0.
         13    1    3    3    0    0  0.14706685804E+03  0.12622755454E+03 -0.11748113410E+03  0.22663599257E+03  0.00000000000E+00 0. -1.
        -13    1    3    3    0    0  0.12814491211E+03  0.99116816498E+02 -0.10511703847E+02  0.16234456483E+03  0.00000000000E+00 0.  1.
          4    1    6    6  502    0 -0.77171369456E+02 -0.42570274554E+01 -0.84444998783E+02  0.11447488967E+03  0.00000000000E+00 0. -1.
          3    1    5    5  503    0  0.60937299552E+02 -0.19620333310E+02 -0.41767479275E+03  0.42255241622E+03  0.00000000000E+00 0. -1.
         -4    1    5    5    0  503  0.66457782431E+02 -0.15961036406E+02 -0.14219157414E+04  0.14235574337E+04  0.00000000000E+00 0.  1.
         -3    1    6    6    0  502 -0.32543548268E+03 -0.18550597387E+03 -0.36293856913E+03  0.52157945194E+03  0.00000000000E+00 0.  1.
<mgrwt>
<rscale>  0 0.15528705E+04</rscale>
<asrwt>0</asrwt>
<pdfrwt beam="1">  1        1 0.40662397E+00 0.15528705E+04</pdfrwt>
<pdfrwt beam="2">  1       -1 0.35090601E-01 0.15528705E+04</pdfrwt>
<totfact> 0.80323094E+00</totfact>
</mgrwt>
</event>
<event>
12    1  0.1980523E-007  0.1493781E+04  0.7818608E-02  0.8888599E-01
          1   -1    0    0  501    0  0.00000000000E+00  0.00000000000E+00  0.31687179121E+04  0.31687179121E+04  0.00000000000E+00 0. -1.
         -1   -1    0    0    0  501 -0.00000000000E+00 -0.00000000000E+00 -0.17604759771E+03  0.17604759771E+03  0.00000000000E+00 0.  1.
         23    2    1    2    0    0 -0.92999010207E+02  0.44480159298E+03  0.70137145153E+03  0.84054129870E+03  0.89947144345E+02 0.  0.
        254    2    1    2    0    0  0.92999010207E+02 -0.44480159298E+03  0.22912988629E+04  0.25042242112E+04  0.90254703342E+03 0.  0.
        -24    2    4    4    0    0 -0.11921217599E+03 -0.35323482592E+03  0.26764885025E+03  0.46585043210E+03  0.79964572755E+02 0.  0.
         24    2    4    4    0    0  0.21221118620E+03 -0.91566767066E+02  0.20236500127E+04  0.20383737791E+04  0.79938908257E+02 0.  0.
         13    1    3    3    0    0 -0.75179649218E+02  0.43491404139E+03  0.68242810573E+03  0.81271786158E+03  0.00000000000E+00 0. -1.
        -13    1    3    3    0    0 -0.17819360988E+02  0.98875515976E+01  0.18943345802E+02  0.27823437113E+02  0.00000000000E+00 0.  1.
          4    1    6    6  502    0  0.11193391291E+03 -0.88399876778E+02  0.10711213589E+04  0.10805760985E+04  0.00000000000E+00 0. -1.
          1    1    5    5  503    0 -0.11737037284E+03 -0.23163627027E+03  0.18189155546E+03  0.31704211719E+03  0.00000000000E+00 0. -1.
         -2    1    5    5    0  503 -0.18418031516E+01 -0.12159855565E+03  0.85757294797E+02  0.14880831490E+03  0.00000000000E+00 0.  1.
         -3    1    6    6    0  502  0.10027727329E+03 -0.31668902882E+01  0.95252865373E+03  0.95779768057E+03  0.00000000000E+00 0.  1.
<mgrwt>
<rscale>  0 0.14937807E+04</rscale>
<asrwt>0</asrwt>
<pdfrwt beam="1">  1        1 0.48749502E+00 0.14937807E+04</pdfrwt>
<pdfrwt beam="2">  1       -1 0.27084248E-01 0.14937807E+04</pdfrwt>
<totfact> 0.53392764E+00</totfact>
</mgrwt>
</event>
<event>
12    1  0.1980523E-007  0.1966396E+04  0.7818608E-02  0.8622495E-01
          1   -1    0    0  501    0  0.00000000000E+00  0.00000000000E+00  0.31377424382E+04  0.31377424382E+04  0.00000000000E+00 0. -1.
         -1   -1    0    0    0  501 -0.00000000000E+00 -0.00000000000E+00 -0.30808081046E+03  0.30808081046E+03  0.00000000000E+00 0.  1.
         23    2    1    2    0    0  0.33727163111E+03  0.66411253430E+03  0.14892898689E+04  0.16677378652E+04  0.92561666826E+02 0.  0.
        254    2    1    2    0    0 -0.33727163111E+03 -0.66411253430E+03  0.13403717589E+04  0.17780853834E+04  0.90010753109E+03 0.  0.
        -24    2    4    4    0    0  0.22365835003E+03 -0.68766339039E+02  0.55741787542E+02  0.25312545699E+03  0.78825650484E+02 0.  0.
         24    2    4    4    0    0 -0.56092998114E+03 -0.59534619526E+03  0.12846299713E+04  0.15249599265E+04  0.78416057916E+02 0.  0.
         13    1    3    3    0    0  0.25016847269E+03  0.43777386393E+03  0.10819327932E+04  0.11936535467E+04  0.00000000000E+00 0. -1.
        -13    1    3    3    0    0  0.87103158421E+02  0.22633867036E+03  0.40735707570E+03  0.47408431849E+03  0.00000000000E+00 0.  1.
          4    1    6    6  502    0 -0.49577914722E+03 -0.50092142504E+03  0.10633232226E+04  0.12756862908E+04  0.00000000000E+00 0. -1.
          3    1    5    5  503    0  0.18779420944E+03 -0.63876728730E+02  0.15447485534E+02  0.19896111777E+03  0.00000000000E+00 0. -1.
         -4    1    5    5    0  503  0.35864140588E+02 -0.48896103090E+01  0.40294302008E+02  0.54164339223E+02  0.00000000000E+00 0.  1.
         -3    1    6    6    0  502 -0.65150833921E+02 -0.94424770217E+02  0.22130674875E+03  0.24927363565E+03  0.00000000000E+00 0.  1.
<mgrwt>
<rscale>  0 0.19663959E+04</rscale>
<asrwt>0</asrwt>
<pdfrwt beam="1">  1        1 0.48272958E+00 0.19663959E+04</pdfrwt>
<pdfrwt beam="2">  1       -1 0.47397050E-01 0.19663959E+04</pdfrwt>
<totfact> 0.19607219E+00</totfact>
</mgrwt>
</event>
<event>
12    1  0.1980523E-007  0.1356241E+04  0.7818608E-02  0.8986117E-01
          1   -1    0    0  501    0  0.00000000000E+00  0.00000000000E+00  0.12862615815E+04  0.12862615815E+04  0.00000000000E+00 0. -1.
         -1   -1    0    0    0  501 -0.00000000000E+00 -0.00000000000E+00 -0.35750682287E+03  0.35750682287E+03  0.00000000000E+00 0.  1.
         23    2    1    2    0    0  0.14109267832E+03 -0.34131282083E+03  0.25492720067E+03  0.45905142121E+03  0.96637177831E+02 0.  0.
        254    2    1    2    0    0 -0.14109267832E+03  0.34131282083E+03  0.67382755800E+03  0.11847169832E+04  0.90172566051E+03 0.  0.
        -24    2    4    4    0    0 -0.13004074074E+03  0.61660206004E+03  0.62751911966E+03  0.89268373333E+03  0.77429371114E+02 0.  0.
         24    2    4    4    0    0 -0.11051937582E+02 -0.27528923921E+03  0.46308438335E+02  0.29203324987E+03  0.85044911809E+02 0.  0.
         13    1    3    3    0    0  0.13515614132E+03 -0.31012912005E+03  0.19305001599E+03  0.38950681934E+03  0.00000000000E+00 0.  1.
        -13    1    3    3    0    0  0.59365370004E+01 -0.31183700777E+02  0.61877184676E+02  0.69544601869E+02  0.00000000000E+00 0. -1.
          4    1    6    6  502    0 -0.41971937983E+01 -0.29444057249E+02  0.34863860900E+02  0.45826386940E+02  0.00000000000E+00 0. -1.
          1    1    5    5  503    0  0.30100564280E+01  0.29416037552E+02  0.51833834826E+02  0.59675037811E+02  0.00000000000E+00 0. -1.
         -2    1    5    5    0  503 -0.13305079716E+03  0.58718602248E+03  0.57568528484E+03  0.83300869551E+03  0.00000000000E+00 0.  1.
         -3    1    6    6    0  502 -0.68547437841E+01 -0.24584518196E+03  0.11444577434E+02  0.24620686293E+03  0.00000000000E+00 0.  1.
<mgrwt>
<rscale>  0 0.13562408E+04</rscale>
<asrwt>0</asrwt>
<pdfrwt beam="1">  1        1 0.19788639E+00 0.13562408E+04</pdfrwt>
<pdfrwt beam="2">  1       -1 0.55001050E-01 0.13562408E+04</pdfrwt>
<totfact> 0.30241582E+01</totfact>
</mgrwt>
</event>
<event>
12    1  0.1980523E-007  0.1125159E+04  0.7818608E-02  0.9181011E-01
         -2   -1    0    0    0  501 -0.00000000000E+00  0.00000000000E+00  0.18258844642E+03  0.18258844642E+03  0.00000000000E+00 0.  1.
          2   -1    0    0  501    0  0.00000000000E+00 -0.00000000000E+00 -0.17333826338E+04  0.17333826338E+04  0.00000000000E+00 0. -1.
         23    2    1    2    0    0 -0.25208194270E+01  0.92694823027E+02 -0.92911508022E+01  0.12931910797E+03  0.89657244311E+02 0.  0.
        254    2    1    2    0    0  0.25208194270E+01 -0.92694823027E+02 -0.15415030366E+04  0.17866519722E+04  0.89849595068E+03 0.  0.
        -24    2    4    4    0    0  0.48858255779E+02  0.37390835200E+03 -0.96488481594E+03  0.10389856098E+04  0.79333501906E+02 0.  0.
         24    2    4    4    0    0 -0.46337436352E+02 -0.46660317502E+03 -0.57661822062E+03  0.74766636241E+03  0.81552045794E+02 0.  0.
         13    1    3    3    0    0  0.63398787746E+01  0.63161746860E+02  0.37167469118E+02  0.73559643079E+02  0.00000000000E+00 0.  1.
        -13    1    3    3    0    0 -0.88606982017E+01  0.29533076167E+02 -0.46458619920E+02  0.55759464895E+02  0.00000000000E+00 0. -1.
          4    1    6    6  502    0 -0.40080271272E+02 -0.12988563817E+03 -0.20690274788E+03  0.24755899141E+03  0.00000000000E+00 0. -1.
          3    1    5    5  503    0  0.49786601102E+02  0.16101679229E+03 -0.50080126795E+03  0.52840043814E+03  0.00000000000E+00 0. -1.
         -4    1    5    5    0  503 -0.92834532313E+00  0.21289155971E+03 -0.46408354800E+03  0.51058517168E+03  0.00000000000E+00 0.  1.
         -3    1    6    6    0  502 -0.62571650801E+01 -0.33671753686E+03 -0.36971547273E+03  0.50010737099E+03  0.00000000000E+00 0.  1.
<mgrwt>
<rscale>  0 0.11251589E+04</rscale>
<asrwt>0</asrwt>
<pdfrwt beam="1">  1        2 0.26667426E+00 0.11251589E+04</pdfrwt>
<pdfrwt beam="2">  1       -2 0.28090529E-01 0.11251589E+04</pdfrwt>
<totfact> 0.10795205E+02</totfact>
</mgrwt>
</event>
<event>
12    1  0.1980523E-007  0.1355929E+04  0.7818608E-02  0.8986352E-01
          1   -1    0    0  501    0  0.00000000000E+00  0.00000000000E+00  0.60982651563E+03  0.60982651563E+03  0.00000000000E+00 0. -1.
         -1   -1    0    0    0  501 -0.00000000000E+00 -0.00000000000E+00 -0.75371594844E+03  0.75371594844E+03  0.00000000000E+00 0.  1.
         23    2    1    2    0    0  0.83138142278E+02  0.35849461899E+03  0.35804442509E+01  0.37884805280E+03  0.89903754010E+02 0.  0.
        254    2    1    2    0    0 -0.83138142278E+02 -0.35849461899E+03 -0.14746987706E+03  0.98469441128E+03  0.90135751864E+03 0.  0.
        -24    2    4    4    0    0 -0.57016108322E+02  0.26866933227E+03  0.10600745206E+03  0.30295709995E+03  0.71493900501E+02 0.  0.
         24    2    4    4    0    0 -0.26122033957E+02 -0.62716395125E+03 -0.25347732912E+03  0.68173731133E+03  0.80610314892E+02 0.  0.
         11    1    3    3    0    0  0.78333539352E+02  0.22482001395E+03 -0.32556464288E+02  0.24029170902E+03  0.00000000000E+00 0.  1.
        -11    1    3    3    0    0  0.48046029264E+01  0.13367460504E+03  0.36136908539E+02  0.13855634378E+03  0.00000000000E+00 0. -1.
          4    1    6    6  502    0  0.89590200741E+01 -0.37581795750E+03 -0.18443473339E+03  0.41873090655E+03  0.00000000000E+00 0. -1.
          1    1    5    5  503    0 -0.59025298974E+02  0.22244174647E+03  0.11261643181E+03  0.25621627038E+03  0.00000000000E+00 0. -1.
         -2    1    5    5    0  503  0.20091906523E+01  0.46227585798E+02 -0.66089797548E+01  0.46740829573E+02  0.00000000000E+00 0.  1.
         -3    1    6    6    0  502 -0.35081054031E+02 -0.25134599375E+03 -0.69042595727E+02  0.26300640477E+03  0.00000000000E+00 0.  1.
<mgrwt>
<rscale>  0 0.13559292E+04</rscale>
<asrwt>0</asrwt>
<pdfrwt beam="1">  1        1 0.93819464E-01 0.13559292E+04</pdfrwt>
<pdfrwt beam="2">  1       -1 0.11595630E+00 0.13559292E+04</pdfrwt>
<totfact> 0.22029722E+01</totfact>
</mgrwt>
</event>
<event>
12    1  0.1980523E-007  0.2265327E+04  0.7818608E-02  0.8491719E-01
          1   -1    0    0  501    0  0.00000000000E+00  0.00000000000E+00  0.14970170684E+04  0.14970170684E+04  0.00000000000E+00 0. -1.
         -1   -1    0    0    0  501 -0.00000000000E+00 -0.00000000000E+00 -0.85698890737E+03  0.85698890737E+03  0.00000000000E+00 0.  1.
         23    2    1    2    0    0  0.43027913562E+03  0.79280232960E+03  0.58163958139E+03  0.10771541922E+04  0.90999355633E+02 0.  0.
        254    2    1    2    0    0 -0.43027913562E+03 -0.79280232960E+03  0.58388579634E+02  0.12768517836E+04  0.90181238771E+03 0.  0.
        -24    2    4    4    0    0 -0.44696679615E+02  0.79520455833E+02 -0.24517223876E+03  0.27285669787E+03  0.77589012432E+02 0.  0.
         24    2    4    4    0    0 -0.38558245600E+03 -0.87232278544E+03  0.30356081840E+03  0.10039950857E+04  0.78968913397E+02 0.  0.
         11    1    3    3    0    0  0.14645712215E+03  0.27710095257E+03  0.15163609212E+03  0.34817830343E+03  0.00000000000E+00 0.  1.
        -11    1    3    3    0    0  0.28382201347E+03  0.51570137703E+03  0.43000348927E+03  0.72897588876E+03  0.00000000000E+00 0. -1.
          4    1    6    6  502    0 -0.34709783030E+03 -0.83010614944E+03  0.28152482729E+03  0.94276685958E+03  0.00000000000E+00 0. -1.
          1    1    5    5  503    0 -0.63329897032E+02  0.52676602567E+02 -0.13701149015E+03  0.15986759756E+03  0.00000000000E+00 0. -1.
         -2    1    5    5    0  503  0.18633217417E+02  0.26843853266E+02 -0.10816074862E+03  0.11298910032E+03  0.00000000000E+00 0.  1.
         -3    1    6    6    0  502 -0.38484625706E+02 -0.42216635992E+02  0.22035991105E+02  0.61228226123E+02  0.00000000000E+00 0.  1.
<mgrwt>
<rscale>  0 0.22653274E+04</rscale>
<asrwt>0</asrwt>
<pdfrwt beam="1">  1        1 0.23031032E+00 0.22653274E+04</pdfrwt>
<pdfrwt beam="2">  1       -1 0.13184445E+00 0.22653274E+04</pdfrwt>
<totfact> 0.29160018E+00</totfact>
</mgrwt>
</event>
<event>
12    1  0.1980523E-007  0.2013088E+04  0.7818608E-02  0.8600526E-01
          2   -1    0    0  501    0  0.00000000000E+00  0.00000000000E+00  0.76273710513E+03  0.76273710513E+03  0.00000000000E+00 0. -1.
         -2   -1    0    0    0  501 -0.00000000000E+00 -0.00000000000E+00 -0.13282829992E+04  0.13282829992E+04  0.00000000000E+00 0.  1.
         23    2    1    2    0    0  0.60143681338E+03 -0.25729596046E+03 -0.71066409188E+03  0.97018531501E+03  0.91041980480E+02 0.  0.
        254    2    1    2    0    0 -0.60143681338E+03  0.25729596046E+03  0.14511819781E+03  0.11208347893E+04  0.89848977839E+03 0.  0.
        -24    2    4    4    0    0 -0.70830638850E+03  0.19859035777E+03  0.38973551000E+03  0.83630514196E+03  0.79852692611E+02 0.  0.
         24    2    4    4    0    0  0.10686957513E+03  0.58705602693E+02 -0.24461731219E+03  0.28452964737E+03  0.79069823143E+02 0.  0.
         13    1    3    3    0    0  0.31463641949E+03 -0.15243649601E+03 -0.44115840602E+03  0.56289759369E+03  0.00000000000E+00 0.  1.
        -13    1    3    3    0    0  0.28680039389E+03 -0.10485946446E+03 -0.26950568586E+03  0.40728772131E+03  0.00000000000E+00 0. -1.
          4    1    6    6  502    0  0.24954350107E+02  0.31420025195E+02 -0.22008910598E+02  0.45763847284E+02  0.00000000000E+00 0. -1.
          3    1    5    5  503    0 -0.18473830420E+03  0.41963445517E+02  0.63301893737E+02  0.19974058563E+03  0.00000000000E+00 0. -1.
         -4    1    5    5    0  503 -0.52356808430E+03  0.15662691225E+03  0.32643361626E+03  0.63656455632E+03  0.00000000000E+00 0.  1.
         -3    1    6    6    0  502  0.81915225019E+02  0.27285577497E+02 -0.22260840159E+03  0.23876580008E+03  0.00000000000E+00 0.  1.
<mgrwt>
<rscale>  0 0.20130879E+04</rscale>
<asrwt>0</asrwt>
<pdfrwt beam="1">  1        2 0.11734417E+00 0.20130879E+04</pdfrwt>
<pdfrwt beam="2">  1       -2 0.20435123E+00 0.20130879E+04</pdfrwt>
<totfact> 0.42387201E+00</totfact>
</mgrwt>
</event>
<event>
12    1  0.1980523E-007  0.1276127E+04  0.7818608E-02  0.9048714E-01
          2   -1    0    0  501    0  0.00000000000E+00  0.00000000000E+00  0.17064481594E+04  0.17064481594E+04  0.00000000000E+00 0. -1.
         -2   -1    0    0    0  501 -0.00000000000E+00 -0.00000000000E+00 -0.23858022852E+03  0.23858022852E+03  0.00000000000E+00 0.  1.
         23    2    1    2    0    0  0.37535320657E+02 -0.30931989684E+03  0.38094209292E+03  0.50018270662E+03  0.89320562972E+02 0.  0.
        254    2    1    2    0    0 -0.37535320657E+02  0.30931989684E+03  0.10869258380E+04  0.14448456813E+04  0.89949072629E+03 0.  0.
        -24    2    4    4    0    0 -0.34710267310E+03 -0.69667314508E+02  0.78407803549E+03  0.86386177690E+03  0.78390072431E+02 0.  0.
         24    2    4    4    0    0  0.30956735245E+03  0.37898721135E+03  0.30284780250E+03  0.58098390443E+03  0.79763736508E+02 0.  0.
         11    1    3    3    0    0  0.38653639914E+02 -0.21898005872E+03  0.32542465588E+03  0.39414156930E+03  0.00000000000E+00 0. -1.
        -11    1    3    3    0    0 -0.11183192571E+01 -0.90339838119E+02  0.55517437038E+02  0.10604113732E+03  0.00000000000E+00 0.  1.
          4    1    6    6  502    0  0.23575946279E+03  0.23239078758E+03  0.18845392070E+03  0.38092372291E+03  0.00000000000E+00 0. -1.
          3    1    5    5  503    0 -0.16480987211E+03  0.92557522190E+00  0.31065269943E+03  0.35166496882E+03  0.00000000000E+00 0. -1.
         -4    1    5    5    0  503 -0.18229280099E+03 -0.70592889730E+02  0.47342533606E+03  0.51219680807E+03  0.00000000000E+00 0.  1.
         -3    1    6    6    0  502  0.73807889654E+02  0.14659642376E+03  0.11439388180E+03  0.20006018152E+03  0.00000000000E+00 0.  1.
<mgrwt>
<rscale>  0 0.12761266E+04</rscale>
<asrwt>0</asrwt>
<pdfrwt beam="1">  1        2 0.26253048E+00 0.12761266E+04</pdfrwt>
<pdfrwt beam="2">  1       -2 0.36704652E-01 0.12761266E+04</pdfrwt>
<totfact> 0.66747721E+01</totfact>
</mgrwt>
</event>
<event>
12    1  0.1980523E-007  0.2869565E+04  0.7818608E-02  0.8281991E-01
          2   -1    0    0  501    0  0.00000000000E+00  0.00000000000E+00  0.13338058064E+04  0.13338058064E+04  0.00000000000E+00 0.  1.
         -2   -1    0    0    0  501 -0.00000000000E+00 -0.00000000000E+00 -0.15434032509E+04  0.15434032509E+04  0.00000000000E+00 0. -1.
         23    2    1    2    0    0  0.57242230505E+03  0.11579309676E+04 -0.10020876838E+03  0.12988370751E+04  0.92002876585E+02 0.  0.
        254    2    1    2    0    0 -0.57242230505E+03 -0.11579309676E+04 -0.10938867613E+03  0.15783719822E+04  0.90045589047E+03 0.  0.
        -24    2    4    4    0    0 -0.19216971632E+03 -0.76413267276E+02 -0.34037926532E+03  0.40632517601E+03  0.80460655698E+02 0.  0.
         24    2    4    4    0    0 -0.38025258873E+03 -0.10815177003E+04  0.23099058919E+03  0.11720468062E+04  0.77874875516E+02 0.  0.
         11    1    3    3    0    0  0.53377784377E+03  0.10533076649E+04 -0.68209665967E+02  0.11828053018E+04  0.00000000000E+00 0.  1.
        -11    1    3    3    0    0  0.38644461281E+02  0.10462330274E+03 -0.31999102410E+02  0.11603177332E+03  0.00000000000E+00 0. -1.
          4    1    6    6  502    0 -0.16428337776E+03 -0.36026758435E+03  0.68932614706E+02  0.40191226146E+03  0.00000000000E+00 0. -1.
          1    1    5    5  503    0 -0.43233203224E+02 -0.55289996517E+02 -0.12942168062E+03  0.14722793549E+03  0.00000000000E+00 0. -1.
         -2    1    5    5    0  503 -0.14893651310E+03 -0.21123270759E+02 -0.21095758470E+03  0.25909724052E+03  0.00000000000E+00 0.  1.
         -1    1    6    6    0  502 -0.21596921097E+03 -0.72125011599E+03  0.16205797449E+03  0.77013454473E+03  0.00000000000E+00 0.  1.
<mgrwt>
<rscale>  0 0.28695646E+04</rscale>
<asrwt>0</asrwt>
<pdfrwt beam="1">  1        2 0.20520089E+00 0.28695646E+04</pdfrwt>
<pdfrwt beam="2">  1       -2 0.23744665E+00 0.28695646E+04</pdfrwt>
<totfact> 0.10502375E+00</totfact>
</mgrwt>
</event>
<event>
12    1  0.1980523E-007  0.3504807E+04  0.7818608E-02  0.8112652E-01
          2   -1    0    0  501    0  0.00000000000E+00  0.00000000000E+00  0.12694778470E+04  0.12694778470E+04  0.00000000000E+00 0. -1.
         -2   -1    0    0    0  501 -0.00000000000E+00 -0.00000000000E+00 -0.24190403816E+04  0.24190403816E+04  0.00000000000E+00 0.  1.
         23    2    1    2    0    0  0.10820458136E+04 -0.72135853026E+03  0.50569169568E+03  0.13978846971E+04  0.84712829448E+02 0.  0.
        254    2    1    2    0    0 -0.10820458136E+04  0.72135853026E+03 -0.16552542302E+04  0.22906335315E+04  0.90330179740E+03 0.  0.
        -24    2    4    4    0    0 -0.54622156452E+03  0.80719651296E+03 -0.13367748094E+04  0.16563013734E+04  0.80269175290E+02 0.  0.
         24    2    4    4    0    0 -0.53582424907E+03 -0.85837982705E+02 -0.31847942085E+03  0.63433215811E+03  0.80450979758E+02 0.  0.
         13    1    3    3    0    0  0.73723120609E+03 -0.53636312034E+03  0.36517020043E+03  0.98211227636E+03  0.00000000000E+00 0. -1.
        -13    1    3    3    0    0  0.34481460749E+03 -0.18499540991E+03  0.14052149525E+03  0.41577242075E+03  0.00000000000E+00 0.  1.
          4    1    6    6  502    0 -0.29945507444E+03 -0.87393702461E+02 -0.19094733539E+03  0.36574839129E+03  0.00000000000E+00 0. -1.
          1    1    5    5  503    0 -0.45156453109E+03  0.65098756577E+03 -0.10329251746E+04  0.13017794563E+04  0.00000000000E+00 0. -1.
         -2    1    5    5    0  503 -0.94657033429E+02  0.15620894719E+03 -0.30384963473E+03  0.35452191707E+03  0.00000000000E+00 0.  1.
         -3    1    6    6    0  502 -0.23636917463E+03  0.15557197560E+01 -0.12753208545E+03  0.26858376682E+03  0.00000000000E+00 0.  1.
<mgrwt>
<rscale>  0 0.35048071E+04</rscale>
<asrwt>0</asrwt>
<pdfrwt beam="1">  1        2 0.19530429E+00 0.35048071E+04</pdfrwt>
<pdfrwt beam="2">  1       -2 0.37216005E+00 0.35048071E+04</pdfrwt>
<totfact> 0.15902159E-01</totfact>
</mgrwt>
</event>
<event>
12    1  0.1980523E-007  0.2145148E+04  0.7818608E-02  0.8541612E-01
          1   -1    0    0  501    0  0.00000000000E+00  0.00000000000E+00  0.93741217928E+03  0.93741217928E+03  0.00000000000E+00 0. -1.
         -1   -1    0    0    0  501 -0.00000000000E+00 -0.00000000000E+00 -0.12272237218E+04  0.12272237218E+04  0.00000000000E+00 0.  1.
         23    2    1    2    0    0  0.72037098763E+03 -0.39746892177E+03  0.19891210760E+03  0.85124418000E+03  0.90192703972E+02 0.  0.
        254    2    1    2    0    0 -0.72037098763E+03  0.39746892177E+03 -0.48872365016E+03  0.13133917211E+04  0.89957273375E+03 0.  0.
        -24    2    4    4    0    0 -0.75360519895E+02 -0.26821872390E+03 -0.13325537690E+03  0.31814549905E+03  0.76413816048E+02 0.  0.
         24    2    4    4    0    0 -0.64501046773E+03  0.66568764567E+03 -0.35546827326E+03  0.99524622207E+03  0.70560641797E+02 0.  0.
         13    1    3    3    0    0  0.29033047284E+03 -0.11305342072E+03  0.60217561248E+02  0.31733107960E+03  0.00000000000E+00 0.  1.
        -13    1    3    3    0    0  0.43004051478E+03 -0.28441550105E+03  0.13869454635E+03  0.53391310040E+03  0.00000000000E+00 0. -1.
          2    1    6    6  502    0 -0.31091865795E+03  0.36406176843E+03 -0.16344294018E+03  0.50589028236E+03  0.00000000000E+00 0. -1.
          1    1    5    5  503    0 -0.91111886997E+02 -0.21934089757E+03 -0.10783878201E+03  0.26084671399E+03  0.00000000000E+00 0. -1.
         -2    1    5    5    0  503  0.15751367102E+02 -0.48877826335E+02 -0.25416594890E+02  0.57298785054E+02  0.00000000000E+00 0.  1.
         -1    1    6    6    0  502 -0.33409180978E+03  0.30162587724E+03 -0.19202533308E+03  0.48935593971E+03  0.00000000000E+00 0.  1.
<mgrwt>
<rscale>  0 0.21451475E+04</rscale>
<asrwt>0</asrwt>
<pdfrwt beam="1">  1        1 0.14421726E+00 0.21451475E+04</pdfrwt>
<pdfrwt beam="2">  1       -1 0.18880365E+00 0.21451475E+04</pdfrwt>
<totfact> 0.27998276E+00</totfact>
</mgrwt>
</event>
<event>
12    1  0.1980523E-007  0.1998031E+04  0.7818608E-02  0.8607542E-01
          2   -1    0    0  501    0  0.00000000000E+00  0.00000000000E+00  0.82178026626E+03  0.82178026626E+03  0.00000000000E+00 0. -1.
         -2   -1    0    0    0  501 -0.00000000000E+00 -0.00000000000E+00 -0.12144748756E+04  0.12144748756E+04  0.00000000000E+00 0.  1.
         23    2    1    2    0    0  0.47943263669E+03  0.60146857456E+03 -0.38901730727E+03  0.86678686607E+03  0.91459863004E+02 0.  0.
        254    2    1    2    0    0 -0.47943263669E+03 -0.60146857456E+03 -0.36773020716E+01  0.11694682758E+04  0.88092135077E+03 0.  0.
        -24    2    4    4    0    0  0.17654296299E+03 -0.91651581472E+02  0.21852437680E+03  0.30602685518E+03  0.79574510167E+02 0.  0.
         24    2    4    4    0    0 -0.65597559968E+03 -0.50981699308E+03 -0.22220167887E+03  0.86344142062E+03  0.77072348754E+02 0.  0.
         13    1    3    3    0    0  0.24717556026E+03  0.33835454514E+03 -0.25850730375E+03  0.49234701369E+03  0.00000000000E+00 0.  1.
        -13    1    3    3    0    0  0.23225707643E+03  0.26311402942E+03 -0.13051000352E+03  0.37443985238E+03  0.00000000000E+00 0. -1.
          2    1    6    6  502    0 -0.26051227772E+03 -0.16429028830E+03 -0.10478682910E+03  0.32532787342E+03  0.00000000000E+00 0. -1.
          1    1    5    5  503    0  0.11625971029E+03 -0.90230240643E+02  0.11726333773E+03  0.18817148280E+03  0.00000000000E+00 0. -1.
         -2    1    5    5    0  503  0.60283252693E+02 -0.14213408289E+01  0.10126103906E+03  0.11785537237E+03  0.00000000000E+00 0.  1.
         -1    1    6    6    0  502 -0.39546332195E+03 -0.34552670478E+03 -0.11741484977E+03  0.53811354720E+03  0.00000000000E+00 0.  1.
<mgrwt>
<rscale>  0 0.19980305E+04</rscale>
<asrwt>0</asrwt>
<pdfrwt beam="1">  1        2 0.12642773E+00 0.19980305E+04</pdfrwt>
<pdfrwt beam="2">  1       -2 0.18684229E+00 0.19980305E+04</pdfrwt>
<totfact> 0.50238543E+00</totfact>
</mgrwt>
</event>
<event>
12    1  0.1980523E-007  0.2039446E+04  0.7818608E-02  0.8588397E-01
         -2   -1    0    0    0  501 -0.00000000000E+00  0.00000000000E+00  0.27811138141E+03  0.27811138141E+03  0.00000000000E+00 0.  1.
          2   -1    0    0  501    0  0.00000000000E+00 -0.00000000000E+00 -0.37389150396E+04  0.37389150396E+04  0.00000000000E+00 0. -1.
         23    2    1    2    0    0  0.38761357938E+03  0.43883047171E+03 -0.25209690131E+04  0.25898155308E+04  0.95095997036E+02 0.  0.
        254    2    1    2    0    0 -0.38761357938E+03 -0.43883047171E+03 -0.93983464511E+03  0.14272108903E+04  0.90045838066E+03 0.  0.
        -24    2    4    4    0    0 -0.29076285307E+03  0.79240440576E+02 -0.82496797684E+03  0.88205396772E+03  0.81393826605E+02 0.  0.
         24    2    4    4    0    0 -0.96850726307E+02 -0.51807091228E+03 -0.11486666827E+03  0.54515692254E+03  0.78893506519E+02 0.  0.
         13    1    3    3    0    0  0.74730902755E+02  0.76338775843E+02 -0.63983630921E+03  0.64869316253E+03  0.00000000000E+00 0. -1.
        -13    1    3    3    0    0  0.31288267663E+03  0.36249169586E+03 -0.18811327039E+04  0.19411223683E+04  0.00000000000E+00 0.  1.
          2    1    6    6  502    0 -0.11084389693E+02 -0.51860488089E+01  0.13808722541E+01  0.12315259043E+02  0.00000000000E+00 0. -1.
          3    1    5    5  503    0 -0.13006245576E+03  0.54958038029E+01 -0.27282166482E+03  0.30228811927E+03  0.00000000000E+00 0. -1.
         -4    1    5    5    0  503 -0.16070039731E+03  0.73744636773E+02 -0.55214631202E+03  0.57976584845E+03  0.00000000000E+00 0.  1.
         -1    1    6    6    0  502 -0.85766336614E+02 -0.51288486347E+03 -0.11624754052E+03  0.53284166349E+03  0.00000000000E+00 0.  1.
<mgrwt>
<rscale>  0 0.20394458E+04</rscale>
<asrwt>0</asrwt>
<pdfrwt beam="1">  1        2 0.57521764E+00 0.20394458E+04</pdfrwt>
<pdfrwt beam="2">  1       -2 0.42786370E-01 0.20394458E+04</pdfrwt>
<totfact> 0.26379445E+00</totfact>
</mgrwt>
</event>
<event>
12    1  0.1980523E-007  0.2194946E+04  0.7818608E-02  0.8520534E-01
         -2   -1    0    0    0  501 -0.00000000000E+00  0.00000000000E+00  0.87630106504E+03  0.87630106504E+03  0.00000000000E+00 0. -1.
          2   -1    0    0  501    0  0.00000000000E+00 -0.00000000000E+00 -0.13744676267E+04  0.13744676267E+04  0.00000000000E+00 0.  1.
         23    2    1    2    0    0  0.25133586323E+03  0.79855775790E+03 -0.57993380568E+03  0.10224807581E+04  0.90991609151E+02 0.  0.
        254    2    1    2    0    0 -0.25133586323E+03 -0.79855775790E+03  0.81767244009E+02  0.12282879336E+04  0.89506488973E+03 0.  0.
        -24    2    4    4    0    0  0.30702058723E+03 -0.40247629606E+03 -0.84061154355E+02  0.51946988006E+03  0.80832349631E+02 0.  0.
         24    2    4    4    0    0 -0.55835645046E+03 -0.39608146184E+03  0.16582839836E+03  0.70881805355E+03  0.79256073356E+02 0.  0.
         11    1    3    3    0    0  0.15238068563E+03  0.36919748847E+03 -0.23992022437E+03  0.46592743309E+03  0.00000000000E+00 0. -1.
        -11    1    3    3    0    0  0.98955177593E+02  0.42936026942E+03 -0.34001358131E+03  0.55655332503E+03  0.00000000000E+00 0.  1.
          4    1    6    6  502    0 -0.24369749611E+03 -0.14963113343E+03  0.34147762909E+02  0.28800002676E+03  0.00000000000E+00 0. -1.
          1    1    5    5  503    0  0.11532906874E+03 -0.20525041988E+03 -0.15067929803E+02  0.23591433077E+03  0.00000000000E+00 0. -1.
         -2    1    5    5    0  503  0.19169151849E+03 -0.19722587618E+03 -0.68993224551E+02  0.28355554928E+03  0.00000000000E+00 0.  1.
         -3    1    6    6    0  502 -0.31465895435E+03 -0.24645032840E+03  0.13168063546E+03  0.42081802679E+03  0.00000000000E+00 0.  1.
<mgrwt>
<rscale>  0 0.21949464E+04</rscale>
<asrwt>0</asrwt>
<pdfrwt beam="1">  1        2 0.21145656E+00 0.21949464E+04</pdfrwt>
<pdfrwt beam="2">  1       -2 0.13481555E+00 0.21949464E+04</pdfrwt>
<totfact> 0.54194369E+00</totfact>
</mgrwt>
</event>
<event>
12    1  0.1980523E-007  0.2554576E+04  0.7818608E-02  0.8383797E-01
         -2   -1    0    0    0  501 -0.00000000000E+00  0.00000000000E+00  0.16842570924E+04  0.16842570924E+04  0.00000000000E+00 0.  1.
          2   -1    0    0  501    0  0.00000000000E+00 -0.00000000000E+00 -0.96865516912E+03  0.96865516912E+03  0.00000000000E+00 0. -1.
         23    2    1    2    0    0  0.10627629891E+03  0.10985354260E+04  0.14293269566E+03  0.11165139677E+04  0.89994170050E+02 0.  0.
        254    2    1    2    0    0 -0.10627629891E+03 -0.10985354260E+04  0.57266922763E+03  0.15363982939E+04  0.90249373365E+03 0.  0.
        -24    2    4    4    0    0 -0.85676892153E+02  0.12508089771E+03  0.17721810435E+03  0.24803947199E+03  0.84448578056E+02 0.  0.
         24    2    4    4    0    0 -0.20599406758E+02 -0.12236163237E+04  0.39545112328E+03  0.12883588219E+04  0.76325748262E+02 0.  0.
         11    1    3    3    0    0  0.10196617351E+03  0.60976005741E+03  0.92852060490E+02  0.62516072597E+03  0.00000000000E+00 0. -1.
        -11    1    3    3    0    0  0.43101253979E+01  0.48877536857E+03  0.50080635170E+02  0.49135324169E+03  0.00000000000E+00 0.  1.
          4    1    6    6  502    0 -0.32687502029E+02 -0.98520994401E+03  0.34493417978E+03  0.10443594663E+04  0.00000000000E+00 0. -1.
          1    1    5    5  503    0 -0.55177799862E+02  0.12849762727E+03  0.16125425821E+03  0.21344593133E+03  0.00000000000E+00 0. -1.
         -2    1    5    5    0  503 -0.30499092290E+02 -0.34167295679E+01  0.15963846142E+02  0.34593540656E+02  0.00000000000E+00 0.  1.
         -3    1    6    6    0  502  0.12088095271E+02 -0.23840637968E+03  0.50516943495E+02  0.24399935553E+03  0.00000000000E+00 0.  1.
<mgrwt>
<rscale>  0 0.25545758E+04</rscale>
<asrwt>0</asrwt>
<pdfrwt beam="1">  1        2 0.14902387E+00 0.25545758E+04</pdfrwt>
<pdfrwt beam="2">  1       -2 0.25911648E+00 0.25545758E+04</pdfrwt>
<totfact> 0.13238275E+00</totfact>
</mgrwt>
</event>
<event>
12    1  0.2512161E-007  0.3982361E+04  0.7818608E-02  0.8008114E-01
         -2   -1    0    0    0  501 -0.00000000000E+00  0.00000000000E+00  0.20244876029E+04  0.20244876029E+04  0.00000000000E+00 0.  1.
          2   -1    0    0  501    0  0.00000000000E+00 -0.00000000000E+00 -0.19584215161E+04  0.19584215161E+04  0.00000000000E+00 0. -1.
         23    2    1    2    0    0 -0.10223860188E+04 -0.15776935731E+04  0.20686053002E+03  0.18934558852E+04  0.89407652833E+02 0.  0.
        254    2    1    2    0    0  0.10223860188E+04  0.15776935731E+04 -0.14079444327E+03  0.20894532337E+04  0.90088931543E+03 0.  0.
        -24    2    4    4    0    0 -0.46878905789E+02  0.23368852761E+01 -0.15858481634E+03  0.18375641731E+03  0.80088601487E+02 0.  0.
         24    2    4    4    0    0  0.10692649245E+04  0.15753566879E+04  0.17790373075E+02  0.19056968164E+04  0.79294929891E+02 0.  0.
         11    1    3    3    0    0 -0.40408272609E+03 -0.54472162274E+03  0.76562920965E+02  0.68254404742E+03  0.00000000000E+00 0.  1.
        -11    1    3    3    0    0 -0.61830329267E+03 -0.10329719504E+04  0.13029760906E+03  0.12109118378E+04  0.00000000000E+00 0. -1.
          2    1    6    6  502    0  0.85811433157E+03  0.12963632241E+04  0.39383281797E+02  0.15551427130E+04  0.00000000000E+00 0. -1.
          3    1    5    5  503    0 -0.44141978667E+02 -0.22365166884E+01 -0.16757461848E+03  0.17330542128E+03  0.00000000000E+00 0. -1.
         -4    1    5    5    0  503 -0.27369271214E+01  0.45734019645E+01  0.89898021351E+01  0.10450996030E+02  0.00000000000E+00 0.  1.
         -3    1    6    6    0  502  0.21115059298E+03  0.27899346373E+03 -0.21592908721E+02  0.35055410342E+03  0.00000000000E+00 0.  1.
<mgrwt>
<rscale>  0 0.39823611E+04</rscale>
<asrwt>0</asrwt>
<pdfrwt beam="1">  1        2 0.30129562E+00 0.39823611E+04</pdfrwt>
<pdfrwt beam="2">  1       -2 0.31145963E+00 0.39823611E+04</pdfrwt>
<totfact> 0.15047227E-01</totfact>
</mgrwt>
</event>
<event>
12    1  0.1980523E-007  0.3011470E+04  0.7818608E-02  0.8240463E-01
          2   -1    0    0  501    0  0.00000000000E+00  0.00000000000E+00  0.19339639907E+04  0.19339639907E+04  0.00000000000E+00 0. -1.
         -2   -1    0    0    0  501 -0.00000000000E+00 -0.00000000000E+00 -0.11723267633E+04  0.11723267633E+04  0.00000000000E+00 0.  1.
         23    2    1    2    0    0  0.12149420598E+04 -0.29366822439E+03  0.91780378421E+03  0.15533759778E+04  0.91037943758E+02 0.  0.
        254    2    1    2    0    0 -0.12149420598E+04  0.29366822439E+03 -0.15616655676E+03  0.15529147762E+04  0.90820211077E+03 0.  0.
        -24    2    4    4    0    0 -0.97812320107E+03  0.96065839876E+02 -0.48021427132E+03  0.10967617357E+04  0.79541916776E+02 0.  0.
         24    2    4    4    0    0 -0.23681885877E+03  0.19760238451E+03  0.32404771456E+03  0.45615304050E+03  0.89099948409E+02 0.  0.
         13    1    3    3    0    0  0.11946209896E+04 -0.27566623172E+03  0.90040078289E+03  0.15211287749E+04  0.00000000000E+00 0. -1.
        -13    1    3    3    0    0  0.20321070258E+02 -0.18001992666E+02  0.17403001325E+02  0.32247202847E+02  0.00000000000E+00 0.  1.
          2    1    6    6  502    0 -0.11268842504E+03  0.47121348109E+02  0.15985427868E+03  0.20117776467E+03  0.00000000000E+00 0. -1.
          3    1    5    5  503    0 -0.97629466513E+03  0.91644853970E+02 -0.47464875262E+03  0.10894225492E+04  0.00000000000E+00 0. -1.
         -4    1    5    5    0  503 -0.18285359430E+01  0.44209859055E+01 -0.55655186984E+01  0.73391864981E+01  0.00000000000E+00 0.  1.
         -1    1    6    6    0  502 -0.12413043373E+03  0.15048103641E+03  0.16419343588E+03  0.25497527583E+03  0.00000000000E+00 0.  1.
<mgrwt>
<rscale>  0 0.30114699E+04</rscale>
<asrwt>0</asrwt>
<pdfrwt beam="1">  1        2 0.29753292E+00 0.30114699E+04</pdfrwt>
<pdfrwt beam="2">  1       -2 0.18035796E+00 0.30114699E+04</pdfrwt>
<totfact> 0.11212011E+00</totfact>
</mgrwt>
</event>
<event>
12    1  0.1980523E-007  0.4292687E+04  0.7818608E-02  0.7947972E-01
          2   -1    0    0  501    0  0.00000000000E+00  0.00000000000E+00  0.15118788377E+04  0.15118788377E+04  0.00000000000E+00 0.  1.
         -2   -1    0    0    0  501 -0.00000000000E+00 -0.00000000000E+00 -0.30470627362E+04  0.30470627362E+04  0.00000000000E+00 0. -1.
         23    2    1    2    0    0  0.10895652684E+04 -0.26245051206E+03 -0.25572132334E+04  0.27935721625E+04  0.93129803575E+02 0.  0.
        254    2    1    2    0    0 -0.10895652684E+04  0.26245051206E+03  0.10220293349E+04  0.17653694114E+04  0.90330086464E+03 0.  0.
        -24    2    4    4    0    0 -0.38081791389E+03  0.97235771058E+02  0.94824782526E+03  0.10295327105E+04  0.79287988129E+02 0.  0.
         24    2    4    4    0    0 -0.70874735455E+03  0.16521474100E+03  0.73781509590E+02  0.73583670099E+03  0.79957589574E+02 0.  0.
         11    1    3    3    0    0  0.14150415488E+03 -0.10953825938E+02 -0.37911149452E+03  0.40480728430E+03  0.00000000000E+00 0. -1.
        -11    1    3    3    0    0  0.94806111357E+03 -0.25149668612E+03 -0.21781017389E+04  0.23887648782E+04  0.00000000000E+00 0.  1.
          2    1    6    6  502    0 -0.94158023309E+02  0.27409388576E+02  0.37337438083E+02  0.10493375157E+03  0.00000000000E+00 0. -1.
          1    1    5    5  503    0 -0.19751298449E+03  0.26869115346E+02  0.56082421485E+03  0.59519503389E+03  0.00000000000E+00 0. -1.
         -2    1    5    5    0  503 -0.18330492940E+03  0.70366655712E+02  0.38742361041E+03  0.43433767656E+03  0.00000000000E+00 0.  1.
         -1    1    6    6    0  502 -0.61458933124E+03  0.13780535243E+03  0.36444071507E+02  0.63090294942E+03  0.00000000000E+00 0.  1.
<mgrwt>
<rscale>  0 0.42926866E+04</rscale>
<asrwt>0</asrwt>
<pdfrwt beam="1">  1        2 0.23259674E+00 0.42926866E+04</pdfrwt>
<pdfrwt beam="2">  1       -2 0.46877889E+00 0.42926866E+04</pdfrwt>
<totfact> 0.25186373E-02</totfact>
</mgrwt>
</event>
<event>
12    1  0.1980523E-007  0.2097249E+04  0.7818608E-02  0.8562456E-01
          3   -1    0    0  501    0  0.00000000000E+00  0.00000000000E+00  0.13657683492E+04  0.13657683492E+04  0.00000000000E+00 0. -1.
         -3   -1    0    0    0  501 -0.00000000000E+00 -0.00000000000E+00 -0.80512467194E+03  0.80512467194E+03  0.00000000000E+00 0.  1.
         23    2    1    2    0    0 -0.59907076923E+03  0.57880523541E+03  0.41755242658E+03  0.93647735316E+03  0.93480035128E+02 0.  0.
        254    2    1    2    0    0  0.59907076923E+03 -0.57880523541E+03  0.14309125068E+03  0.12344156680E+04  0.89966974399E+03 0.  0.
        -24    2    4    4    0    0  0.17645515947E+03 -0.34051994230E+03 -0.35960123120E+03  0.53119291445E+03  0.75911873101E+02 0.  0.
         24    2    4    4    0    0  0.42261560975E+03 -0.23828529311E+03  0.50269248188E+03  0.70322275353E+03  0.80241356016E+02 0.  0.
         13    1    3    3    0    0 -0.26559645142E+03  0.20764755475E+03  0.20138563214E+03  0.39270237436E+03  0.00000000000E+00 0.  1.
        -13    1    3    3    0    0 -0.33347431781E+03  0.37115768066E+03  0.21616679444E+03  0.54377497880E+03  0.00000000000E+00 0. -1.
          2    1    6    6  502    0  0.74877869625E+02 -0.19618848453E+02  0.11329706739E+03  0.13721450380E+03  0.00000000000E+00 0. -1.
          1    1    5    5  503    0  0.10239032982E+02 -0.12645569166E+02  0.93636929174E+00  0.16298006117E+02  0.00000000000E+00 0. -1.
         -2    1    5    5    0  503  0.16621612649E+03 -0.32787437313E+03 -0.36053760049E+03  0.51489490834E+03  0.00000000000E+00 0.  1.
         -1    1    6    6    0  502  0.34773774013E+03 -0.21866644466E+03  0.38939541449E+03  0.56600824973E+03  0.00000000000E+00 0.  1.
<mgrwt>
<rscale>  0 0.20972494E+04</rscale>
<asrwt>0</asrwt>
<pdfrwt beam="1">  1        3 0.21011821E+00 0.20972494E+04</pdfrwt>
<pdfrwt beam="2">  1       -3 0.12386533E+00 0.20972494E+04</pdfrwt>
<totfact> 0.16041739E-01</totfact>
</mgrwt>
</event>
<event>
12    1  0.1980523E-007  0.1719378E+04  0.7818608E-02  0.8750389E-01
         -2   -1    0    0    0  501 -0.00000000000E+00  0.00000000000E+00  0.78811972669E+03  0.78811972669E+03  0.00000000000E+00 0.  1.
          2   -1    0    0  501    0  0.00000000000E+00 -0.00000000000E+00 -0.93775801695E+03  0.93775801695E+03  0.00000000000E+00 0. -1.
         23    2    1    2    0    0  0.20146112270E+03  0.58531735712E+03 -0.54066195569E+02  0.62813821863E+03  0.91931907945E+02 0.  0.
        254    2    1    2    0    0 -0.20146112270E+03 -0.58531735712E+03 -0.95572094694E+02  0.10977395250E+04  0.90150709758E+03 0.  0.
        -24    2    4    4    0    0 -0.54928447207E+03 -0.42390763819E+03 -0.10352030329E+03  0.70610027724E+03  0.80312087218E+02 0.  0.
         24    2    4    4    0    0  0.34782334937E+03 -0.16140971893E+03  0.79482085941E+01  0.39163924778E+03  0.79271348187E+02 0.  0.
         11    1    3    3    0    0  0.19695375866E+03  0.54042720206E+03 -0.71801079942E+02  0.57966174520E+03  0.00000000000E+00 0. -1.
        -11    1    3    3    0    0  0.45073640355E+01  0.44890155062E+02  0.17734884373E+02  0.48476473426E+02  0.00000000000E+00 0.  1.
          4    1    6    6  502    0  0.85627785879E+01 -0.22324733168E+02  0.72124520654E+01  0.24974674231E+02  0.00000000000E+00 0. -1.
          3    1    5    5  503    0 -0.79533396663E+02 -0.59716992900E+02  0.13287023356E+02  0.10034054722E+03  0.00000000000E+00 0. -1.
         -4    1    5    5    0  503 -0.46975107541E+03 -0.36419064529E+03 -0.11680732664E+03  0.60575973002E+03  0.00000000000E+00 0.  1.
         -3    1    6    6    0  502  0.33926057079E+03 -0.13908498576E+03  0.73575652872E+00  0.36666457354E+03  0.00000000000E+00 0.  1.
<mgrwt>
<rscale>  0 0.17193785E+04</rscale>
<asrwt>0</asrwt>
<pdfrwt beam="1">  1        2 0.14427046E+00 0.17193785E+04</pdfrwt>
<pdfrwt beam="2">  1       -2 0.12124919E+00 0.17193785E+04</pdfrwt>
<totfact> 0.13600006E+01</totfact>
</mgrwt>
</event>
<event>
12    1  0.1980523E-007  0.2362346E+04  0.7818608E-02  0.8453737E-01
         -1   -1    0    0    0  501 -0.00000000000E+00  0.00000000000E+00  0.72808548826E+03  0.72808548826E+03  0.00000000000E+00 0.  1.
          1   -1    0    0  501    0  0.00000000000E+00 -0.00000000000E+00 -0.19162175686E+04  0.19162175686E+04  0.00000000000E+00 0. -1.
         23    2    1    2    0    0  0.47510199070E+03 -0.82142004539E+03 -0.12955961266E+03  0.96176883793E+03  0.88095470070E+02 0.  0.
        254    2    1    2    0    0 -0.47510199070E+03  0.82142004539E+03 -0.10585724677E+04  0.16825342190E+04  0.89994051809E+03 0.  0.
        -24    2    4    4    0    0 -0.52341709428E+03  0.98322500313E+03 -0.85421608634E+03  0.14059748752E+04  0.79895970194E+02 0.  0.
         24    2    4    4    0    0  0.48315103588E+02 -0.16180495774E+03 -0.20435638138E+03  0.27655934383E+03  0.78793061001E+02 0.  0.
         11    1    3    3    0    0  0.31773214923E+03 -0.46483842484E+03 -0.85896880085E+02  0.56956716362E+03  0.00000000000E+00 0.  1.
        -11    1    3    3    0    0  0.15736984146E+03 -0.35658162055E+03 -0.43662732570E+02  0.39220167431E+03  0.00000000000E+00 0. -1.
          4    1    6    6  502    0 -0.47168585344E+01 -0.26431815635E+02 -0.13808536990E+01  0.26884872868E+02  0.00000000000E+00 0. -1.
          3    1    5    5  503    0 -0.52597623704E+01  0.24931454133E+01  0.24032091777E+00  0.58256869456E+01  0.00000000000E+00 0. -1.
         -4    1    5    5    0  503 -0.51815733191E+03  0.98073185771E+03 -0.85445640726E+03  0.14001491882E+04  0.00000000000E+00 0.  1.
         -3    1    6    6    0  502  0.53031962122E+02 -0.13537314211E+03 -0.20297552768E+03  0.24967447096E+03  0.00000000000E+00 0.  1.
<mgrwt>
<rscale>  0 0.23623465E+04</rscale>
<asrwt>0</asrwt>
<pdfrwt beam="1">  1        1 0.29480270E+00 0.23623465E+04</pdfrwt>
<pdfrwt beam="2">  1       -1 0.11201315E+00 0.23623465E+04</pdfrwt>
<totfact> 0.22320961E+00</totfact>
</mgrwt>
</event>
<event>
12    1  0.1980523E-007  0.2644049E+04  0.7818608E-02  0.8353391E-01
          2   -1    0    0  501    0  0.00000000000E+00  0.00000000000E+00  0.10198091244E+04  0.10198091244E+04  0.00000000000E+00 0. -1.
         -2   -1    0    0    0  501 -0.00000000000E+00 -0.00000000000E+00 -0.17137998610E+04  0.17137998610E+04  0.00000000000E+00 0.  1.
         23    2    1    2    0    0  0.37465563771E+02 -0.10323469652E+04  0.25314565302E+03  0.10675108255E+04  0.91393193631E+02 0.  0.
        254    2    1    2    0    0 -0.37465563771E+02  0.10323469652E+04 -0.94713638957E+03  0.16660981599E+04  0.90092830618E+03 0.  0.
        -24    2    4    4    0    0 -0.44698441553E+03  0.42767863485E+03 -0.54736165582E+03  0.82983322351E+03  0.79462658902E+02 0.  0.
         24    2    4    4    0    0  0.40951885176E+03  0.60466833039E+03 -0.39977473375E+03  0.83626493639E+03  0.78674814027E+02 0.  0.
         11    1    3    3    0    0  0.39428380173E+02 -0.86115680192E+03  0.24463428120E+03  0.89609796685E+03  0.00000000000E+00 0. -1.
        -11    1    3    3    0    0 -0.19628164015E+01 -0.17119016331E+03  0.85113718225E+01  0.17141285866E+03  0.00000000000E+00 0.  1.
          4    1    6    6  502    0  0.15030301739E+03  0.29144462763E+03 -0.17490905283E+03  0.37165056811E+03  0.00000000000E+00 0. -1.
          1    1    5    5  503    0 -0.33450083688E+03  0.30104541772E+03 -0.43948549545E+03  0.62902039245E+03  0.00000000000E+00 0. -1.
         -2    1    5    5    0  503 -0.11248357865E+03  0.12663321713E+03 -0.10787616037E+03  0.20081283107E+03  0.00000000000E+00 0.  1.
         -3    1    6    6    0  502  0.25921583436E+03  0.31322370276E+03 -0.22486568092E+03  0.46461436828E+03  0.00000000000E+00 0.  1.
<mgrwt>
<rscale>  0 0.26440490E+04</rscale>
<asrwt>0</asrwt>
<pdfrwt beam="1">  1        2 0.15689371E+00 0.26440490E+04</pdfrwt>
<pdfrwt beam="2">  1       -2 0.26366152E+00 0.26440490E+04</pdfrwt>
<totfact> 0.11423938E+00</totfact>
</mgrwt>
</event>
<event>
12    1  0.1980523E-007  0.1236864E+04  0.7818608E-02  0.9081188E-01
          1   -1    0    0  501    0  0.00000000000E+00  0.00000000000E+00  0.10500356912E+04  0.10500356912E+04  0.00000000000E+00 0. -1.
         -1   -1    0    0    0  501 -0.00000000000E+00 -0.00000000000E+00 -0.36423346461E+03  0.36423346461E+03  0.00000000000E+00 0.  1.
         23    2    1    2    0    0  0.91367238854E+02 -0.64029098285E+02 -0.13615578491E+03  0.19525944209E+03  0.84499433120E+02 0.  0.
        254    2    1    2    0    0 -0.91367238854E+02  0.64029098285E+02  0.82195801144E+03  0.12190097137E+04  0.89326480491E+03 0.  0.
        -24    2    4    4    0    0 -0.33826680830E+03 -0.26676725159E+03  0.23541335180E+03  0.49734591665E+03  0.79651205174E+02 0.  0.
         24    2    4    4    0    0  0.24689956945E+03  0.33079634988E+03  0.58654465964E+03  0.72166379702E+03  0.79864733718E+02 0.  0.
         11    1    3    3    0    0  0.54769256655E+02  0.11239640620E+02 -0.61372494783E+02  0.83021588227E+02  0.00000000000E+00 0. -1.
        -11    1    3    3    0    0  0.36597982199E+02 -0.75268738905E+02 -0.74783290124E+02  0.11223785386E+03  0.00000000000E+00 0.  1.
          2    1    6    6  502    0  0.13029852862E+03  0.16602481782E+03  0.36753325709E+03  0.42381911443E+03  0.00000000000E+00 0. -1.
          1    1    5    5  503    0 -0.32386051503E+03 -0.26915504179E+03  0.21664677267E+03  0.47356720096E+03  0.00000000000E+00 0. -1.
         -2    1    5    5    0  503 -0.14406293273E+02  0.23877901958E+01  0.18766579131E+02  0.23778715697E+02  0.00000000000E+00 0.  1.
         -1    1    6    6    0  502  0.11660104082E+03  0.16477153206E+03  0.21901140256E+03  0.29784468259E+03  0.00000000000E+00 0.  1.
<mgrwt>
<rscale>  0 0.12368640E+04</rscale>
<asrwt>0</asrwt>
<pdfrwt beam="1">  1        1 0.16154395E+00 0.12368640E+04</pdfrwt>
<pdfrwt beam="2">  1       -1 0.56035918E-01 0.12368640E+04</pdfrwt>
<totfact> 0.44005503E+01</totfact>
</mgrwt>
</event>
<event>
12    1  0.1980523E-007  0.2638552E+04  0.7818608E-02  0.8355223E-01
          2   -1    0    0  501    0  0.00000000000E+00  0.00000000000E+00  0.45215274947E+04  0.45215274947E+04  0.00000000000E+00 0.  1.
         -2   -1    0    0    0  501 -0.00000000000E+00 -0.00000000000E+00 -0.38493393464E+03  0.38493393464E+03  0.00000000000E+00 0. -1.
         23    2    1    2    0    0 -0.62237822262E+03 -0.82492052601E+03  0.85373734272E+03  0.13437010740E+04  0.93896750275E+02 0.  0.
        254    2    1    2    0    0  0.62237822262E+03  0.82492052601E+03  0.32828562173E+04  0.35627603553E+04  0.92101459251E+03 0.  0.
        -24    2    4    4    0    0  0.52969800004E+03  0.52638574481E+03  0.96617513178E+03  0.12237447386E+04  0.79967970923E+02 0.  0.
         24    2    4    4    0    0  0.92680222572E+02  0.29853478120E+03  0.23166810855E+04  0.23390156167E+04  0.79184366837E+02 0.  0.
         13    1    3    3    0    0 -0.68534832769E+02 -0.69074376399E+02  0.11384911099E+03  0.14976619395E+03  0.00000000000E+00 0.  1.
        -13    1    3    3    0    0 -0.55384338985E+03 -0.75584614961E+03  0.73988823173E+03  0.11939348801E+04  0.00000000000E+00 0. -1.
          2    1    6    6  502    0  0.65489190678E+01  0.62108814681E+02  0.71103637792E+03  0.71377386049E+03  0.00000000000E+00 0. -1.
          1    1    5    5  503    0  0.41623296866E+03  0.36808927062E+03  0.73703270051E+03  0.92301505783E+03  0.00000000000E+00 0. -1.
         -2    1    5    5    0  503  0.11346503138E+03  0.15829647419E+03  0.22914243127E+03  0.30072968077E+03  0.00000000000E+00 0.  1.
         -1    1    6    6    0  502  0.86131303505E+02  0.23642596652E+03  0.16056447076E+04  0.16252417562E+04  0.00000000000E+00 0.  1.
<mgrwt>
<rscale>  0 0.26385522E+04</rscale>
<asrwt>0</asrwt>
<pdfrwt beam="1">  1        2 0.69561958E+00 0.26385522E+04</pdfrwt>
<pdfrwt beam="2">  1       -2 0.59220609E-01 0.26385522E+04</pdfrwt>
<totfact> 0.27622058E-01</totfact>
</mgrwt>
</event>
<event>
12    1  0.1980523E-007  0.2004775E+04  0.7818608E-02  0.8604391E-01
          2   -1    0    0  501    0  0.00000000000E+00  0.00000000000E+00  0.13380565388E+04  0.13380565388E+04  0.00000000000E+00 0. -1.
         -2   -1    0    0    0  501 -0.00000000000E+00 -0.00000000000E+00 -0.75092579707E+03  0.75092579707E+03  0.00000000000E+00 0.  1.
         23    2    1    2    0    0  0.40128604229E+03 -0.19985403733E+02  0.94214289048E+03  0.10282575134E+04  0.90831622397E+02 0.  0.
        254    2    1    2    0    0 -0.40128604229E+03  0.19985403733E+02 -0.35501214875E+03  0.10607248225E+04  0.91524511427E+03 0.  0.
        -24    2    4    4    0    0 -0.47437787900E+03 -0.93793771052E+01 -0.61316803641E+03  0.77932820246E+03  0.79088946596E+02 0.  0.
         24    2    4    4    0    0  0.73091836705E+02  0.29364780838E+02  0.25815588766E+03  0.28139662004E+03  0.79592012720E+02 0.  0.
         11    1    3    3    0    0  0.32962570964E+03  0.15826910089E+02  0.79383166163E+03  0.85969314674E+03  0.00000000000E+00 0.  1.
        -11    1    3    3    0    0  0.71660332655E+02 -0.35812313822E+02  0.14831122885E+03  0.16856436664E+03  0.00000000000E+00 0. -1.
          2    1    6    6  502    0  0.43260555075E+02  0.56811162279E+02  0.16119049837E+03  0.17629906565E+03  0.00000000000E+00 0. -1.
          3    1    5    5  503    0 -0.80525036404E+02 -0.13079960130E+02 -0.64886627595E+02  0.10423838681E+03  0.00000000000E+00 0. -1.
         -4    1    5    5    0  503 -0.39385284260E+03  0.37005830253E+01 -0.54828140882E+03  0.67508981565E+03  0.00000000000E+00 0.  1.
         -1    1    6    6    0  502  0.29831281629E+02 -0.27446381441E+02  0.96965389290E+02  0.10509755439E+03  0.00000000000E+00 0.  1.
<mgrwt>
<rscale>  0 0.20047755E+04</rscale>
<asrwt>0</asrwt>
<pdfrwt beam="1">  1        2 0.20585485E+00 0.20047755E+04</pdfrwt>
<pdfrwt beam="2">  1       -2 0.11552705E+00 0.20047755E+04</pdfrwt>
<totfact> 0.85087860E+00</totfact>
</mgrwt>
</event>
<event>
12    1  0.1980523E-007  0.1725176E+04  0.7818608E-02  0.8747134E-01
         -1   -1    0    0    0  501 -0.00000000000E+00  0.00000000000E+00  0.70056425078E+03  0.70056425078E+03  0.00000000000E+00 0.  1.
          1   -1    0    0  501    0  0.00000000000E+00 -0.00000000000E+00 -0.10620842937E+04  0.10620842937E+04  0.00000000000E+00 0. -1.
         23    2    1    2    0    0 -0.82977367675E+02 -0.23650865844E+03  0.45173344632E+03  0.52636688063E+03  0.10088308797E+03 0.  0.
        254    2    1    2    0    0  0.82977367675E+02  0.23650865844E+03 -0.81325348922E+03  0.12362816638E+04  0.89676614875E+03 0.  0.
        -24    2    4    4    0    0  0.25423759850E+03 -0.24989642611E+03 -0.52671550328E+03  0.64096702238E+03  0.79526864085E+02 0.  0.
         24    2    4    4    0    0 -0.17126023083E+03  0.48640508456E+03 -0.28653798595E+03  0.59531464146E+03  0.79846928540E+02 0.  0.
         11    1    3    3    0    0 -0.92547572819E+02 -0.23362358167E+03  0.45107885358E+03  0.51634984583E+03  0.00000000000E+00 0.  1.
        -11    1    3    3    0    0  0.95702051443E+01 -0.28850767736E+01  0.65459274042E+00  0.10017034798E+02  0.00000000000E+00 0. -1.
          2    1    6    6  502    0 -0.15838983019E+03  0.47322828518E+03 -0.25914937004E+03  0.56230840665E+03  0.00000000000E+00 0. -1.
          1    1    5    5  503    0  0.21091874628E+03 -0.20780641141E+03 -0.48252571400E+03  0.56612833070E+03  0.00000000000E+00 0. -1.
         -2    1    5    5    0  503  0.43318852221E+02 -0.42090014703E+02 -0.44189789279E+02  0.74838691677E+02  0.00000000000E+00 0.  1.
         -1    1    6    6    0  502 -0.12870400637E+02  0.13176799374E+02 -0.27388615912E+02  0.33006234803E+02  0.00000000000E+00 0.  1.
<mgrwt>
<rscale>  0 0.17251763E+04</rscale>
<asrwt>0</asrwt>
<pdfrwt beam="1">  1        1 0.16339758E+00 0.17251763E+04</pdfrwt>
<pdfrwt beam="2">  1       -1 0.10777912E+00 0.17251763E+04</pdfrwt>
<totfact> 0.10304147E+01</totfact>
</mgrwt>
</event>
<event>
12    1  0.1980523E-007  0.1093989E+04  0.7818608E-02  0.9211070E-01
         -1   -1    0    0    0  501 -0.00000000000E+00  0.00000000000E+00  0.10915284707E+04  0.10915284707E+04  0.00000000000E+00 0.  1.
          1   -1    0    0  501    0  0.00000000000E+00 -0.00000000000E+00 -0.27411387461E+03  0.27411387461E+03  0.00000000000E+00 0. -1.
         23    2    1    2    0    0 -0.10738260964E+03 -0.68762706672E+02  0.23595461392E+03  0.28362823022E+03  0.92255398039E+02 0.  0.
        254    2    1    2    0    0  0.10738260964E+03  0.68762706672E+02  0.58145998213E+03  0.10820141150E+04  0.90354828296E+03 0.  0.
        -24    2    4    4    0    0  0.96839971011E+02 -0.40320962291E+03  0.35700488672E+03  0.55271341485E+03  0.77997755243E+02 0.  0.
         24    2    4    4    0    0  0.10542638625E+02  0.47197232958E+03  0.22445509541E+03  0.52930070019E+03  0.83127096938E+02 0.  0.
         13    1    3    3    0    0 -0.61972610774E+02 -0.16380037906E+02  0.18983029199E+03  0.20036079927E+03  0.00000000000E+00 0.  1.
        -13    1    3    3    0    0 -0.45409998861E+02 -0.52382668765E+02  0.46124321933E+02  0.83267430952E+02  0.00000000000E+00 0. -1.
          2    1    6    6  502    0  0.44833776045E+01  0.46138212602E+03  0.23039780210E+03  0.51572930312E+03  0.00000000000E+00 0. -1.
          3    1    5    5  503    0  0.56397838212E+02 -0.28567832846E+03  0.20377973034E+03  0.35541384611E+03  0.00000000000E+00 0. -1.
         -4    1    5    5    0  503  0.40442132798E+02 -0.11753129445E+03  0.15322515637E+03  0.19729956874E+03  0.00000000000E+00 0.  1.
         -1    1    6    6    0  502  0.60592610201E+01  0.10590203566E+02 -0.59427066898E+01  0.13571397071E+02  0.00000000000E+00 0.  1.
<mgrwt>
<rscale>  0 0.10939892E+04</rscale>
<asrwt>0</asrwt>
<pdfrwt beam="1">  1        1 0.42171366E-01 0.10939892E+04</pdfrwt>
<pdfrwt beam="2">  1       -1 0.16792745E+00 0.10939892E+04</pdfrwt>
<totfact> 0.25066008E+01</totfact>
</mgrwt>
</event>
<event>
12    1  0.1980523E-007  0.2855229E+04  0.7818608E-02  0.8286324E-01
         -1   -1    0    0    0  501 -0.00000000000E+00  0.00000000000E+00  0.10860756805E+04  0.10860756805E+04  0.00000000000E+00 0.  1.
          1   -1    0    0  501    0  0.00000000000E+00 -0.00000000000E+00 -0.18765575161E+04  0.18765575161E+04  0.00000000000E+00 0. -1.
         23    2    1    2    0    0  0.93046726530E+03 -0.57503898062E+03 -0.10531092525E+04  0.15210164117E+04  0.89513495810E+02 0.  0.
        254    2    1    2    0    0 -0.93046726530E+03  0.57503898062E+03  0.26262741681E+03  0.14416167849E+04  0.90158007605E+03 0.  0.
        -24    2    4    4    0    0 -0.82935280478E+03  0.78161770764E+03  0.95430653120E+02  0.11463754981E+04  0.79482434780E+02 0.  0.
         24    2    4    4    0    0 -0.10111446052E+03 -0.20657872702E+03  0.16719676369E+03  0.29524128682E+03  0.79459140903E+02 0.  0.
         13    1    3    3    0    0  0.24085511414E+03 -0.16046913992E+03 -0.33315776883E+03  0.44131126182E+03  0.00000000000E+00 0.  1.
        -13    1    3    3    0    0  0.68961215116E+03 -0.41456984070E+03 -0.71995148363E+03  0.10797051499E+04  0.00000000000E+00 0. -1.
          4    1    6    6  502    0 -0.34060985750E+02 -0.64624476445E+02  0.10150117091E+03  0.12505583314E+03  0.00000000000E+00 0. -1.
          3    1    5    5  503    0 -0.59840193778E+01  0.16234253859E+02  0.72411255416E+01  0.18756155933E+02  0.00000000000E+00 0. -1.
         -4    1    5    5    0  503 -0.82336878540E+03  0.76538345378E+03  0.88189527578E+02  0.11276193422E+04  0.00000000000E+00 0.  1.
         -3    1    6    6    0  502 -0.67053474773E+02 -0.14195425057E+03  0.65695592783E+02  0.17018545369E+03  0.00000000000E+00 0.  1.
<mgrwt>
<rscale>  0 0.28552292E+04</rscale>
<asrwt>0</asrwt>
<pdfrwt beam="1">  1        1 0.28870116E+00 0.28552292E+04</pdfrwt>
<pdfrwt beam="2">  1       -1 0.16708857E+00 0.28552292E+04</pdfrwt>
<totfact> 0.80518504E-01</totfact>
</mgrwt>
</event>
<event>
12    1  0.1980523E-007  0.1334881E+04  0.7818608E-02  0.9002352E-01
         -2   -1    0    0    0  501 -0.00000000000E+00  0.00000000000E+00  0.23371940169E+03  0.23371940169E+03  0.00000000000E+00 0.  1.
          2   -1    0    0  501    0  0.00000000000E+00 -0.00000000000E+00 -0.19060330065E+04  0.19060330065E+04  0.00000000000E+00 0. -1.
         23    2    1    2    0    0 -0.15986827231E+02  0.23757628285E+03 -0.88315708671E+03  0.91923522001E+03  0.91262703702E+02 0.  0.
        254    2    1    2    0    0  0.15986827231E+02 -0.23757628285E+03 -0.78915651810E+03  0.12205171882E+04  0.90010895326E+03 0.  0.
        -24    2    4    4    0    0  0.10425551905E+03  0.35149889791E+02 -0.89445181117E+03  0.90472662887E+03  0.79884306810E+02 0.  0.
         24    2    4    4    0    0 -0.88268691823E+02 -0.27272617264E+03  0.10529529307E+03  0.31579055930E+03  0.80409274366E+02 0.  0.
         11    1    3    3    0    0  0.27124162702E+02  0.91524856781E+02 -0.23980980780E+03  0.25811095197E+03  0.00000000000E+00 0.  1.
        -11    1    3    3    0    0 -0.43110989933E+02  0.14605142607E+03 -0.64334727891E+03  0.66112426804E+03  0.00000000000E+00 0. -1.
          2    1    6    6  502    0 -0.29030831431E+02 -0.71821077627E+02  0.67921083717E+02  0.10302587043E+03  0.00000000000E+00 0. -1.
          3    1    5    5  503    0  0.28966530909E+01 -0.10312682715E+01  0.67930081494E+00  0.31488986922E+01  0.00000000000E+00 0. -1.
         -4    1    5    5    0  503  0.10135886596E+03  0.36181158063E+02 -0.89513111199E+03  0.90157773018E+03  0.00000000000E+00 0.  1.
         -1    1    6    6    0  502 -0.59237860392E+02 -0.20090509501E+03  0.37374209351E+02  0.21276468887E+03  0.00000000000E+00 0.  1.
<mgrwt>
<rscale>  0 0.13348811E+04</rscale>
<asrwt>0</asrwt>
<pdfrwt beam="1">  1        2 0.29323585E+00 0.13348811E+04</pdfrwt>
<pdfrwt beam="2">  1       -2 0.35956831E-01 0.13348811E+04</pdfrwt>
<totfact> 0.53617074E+01</totfact>
</mgrwt>
</event>
<event>
12    1  0.1980523E-007  0.2038533E+04  0.7818608E-02  0.8588814E-01
          1   -1    0    0  501    0  0.00000000000E+00  0.00000000000E+00  0.57616241270E+03  0.57616241270E+03  0.00000000000E+00 0. -1.
         -1   -1    0    0    0  501 -0.00000000000E+00 -0.00000000000E+00 -0.18031454072E+04  0.18031454072E+04  0.00000000000E+00 0.  1.
         23    2    1    2    0    0 -0.15334879526E+02  0.65813017110E+03 -0.10633740414E+04  0.12538649201E+04  0.89679458139E+02 0.  0.
        254    2    1    2    0    0  0.15334879526E+02 -0.65813017110E+03 -0.16360895305E+03  0.11254428998E+04  0.89804418071E+03 0.  0.
        -24    2    4    4    0    0 -0.20089555707E+03  0.12873086775E+03 -0.17175031409E+03  0.30535404276E+03  0.82536415466E+02 0.  0.
         24    2    4    4    0    0  0.21623043660E+03 -0.78686103885E+03  0.81413610389E+01  0.82008885702E+03  0.81077465829E+02 0.  0.
         11    1    3    3    0    0 -0.21837239109E+02  0.97181362074E+02 -0.21273587051E+03  0.23489919699E+03  0.00000000000E+00 0.  1.
        -11    1    3    3    0    0  0.65023595826E+01  0.56094880903E+03 -0.85063817094E+03  0.10189657231E+04  0.00000000000E+00 0. -1.
          4    1    6    6  502    0  0.71713840181E+02 -0.41348839717E+03  0.71816463902E+01  0.41972265309E+03  0.00000000000E+00 0. -1.
          3    1    5    5  503    0 -0.14347213549E+03  0.13185765944E+03 -0.13625798650E+03  0.23777496694E+03  0.00000000000E+00 0. -1.
         -4    1    5    5    0  503 -0.57423421581E+02 -0.31267916849E+01 -0.35492327581E+02  0.67579075826E+02  0.00000000000E+00 0.  1.
         -3    1    6    6    0  502  0.14451659642E+03 -0.37337264168E+03  0.95971464878E+00  0.40036620393E+03  0.00000000000E+00 0.  1.
<mgrwt>
<rscale>  0 0.20385334E+04</rscale>
<asrwt>0</asrwt>
<pdfrwt beam="1">  1        1 0.88640372E-01 0.20385334E+04</pdfrwt>
<pdfrwt beam="2">  1       -1 0.27740698E+00 0.20385334E+04</pdfrwt>
<totfact> 0.15533857E+00</totfact>
</mgrwt>
</event>
<event>
12    1  0.1980523E-007  0.3763063E+04  0.7818608E-02  0.8054128E-01
         -1   -1    0    0    0  501 -0.00000000000E+00  0.00000000000E+00  0.18439034426E+04  0.18439034426E+04  0.00000000000E+00 0.  1.
          1   -1    0    0  501    0  0.00000000000E+00 -0.00000000000E+00 -0.19199275663E+04  0.19199275663E+04  0.00000000000E+00 0. -1.
         23    2    1    2    0    0  0.12328374995E+03  0.17351233011E+04 -0.37895151615E+03  0.17820048904E+04  0.78009133224E+02 0.  0.
        254    2    1    2    0    0 -0.12328374995E+03 -0.17351233011E+04  0.30292739248E+03  0.19818261185E+04  0.90001000324E+03 0.  0.
        -24    2    4    4    0    0 -0.33174165536E+02 -0.17607687222E+04  0.41932224108E+03  0.18120936625E+04  0.80282511114E+02 0.  0.
         24    2    4    4    0    0 -0.90109584413E+02  0.25645421107E+02 -0.11639484860E+03  0.16973245599E+03  0.80522798075E+02 0.  0.
         13    1    3    3    0    0  0.57356167118E+02  0.87415571460E+03 -0.15121935184E+03  0.88899113362E+03  0.00000000000E+00 0.  1.
        -13    1    3    3    0    0  0.65927582831E+02  0.86096758646E+03 -0.22773216431E+03  0.89301375677E+03  0.00000000000E+00 0. -1.
          4    1    6    6  502    0  0.63329030058E+01  0.60184294537E+01 -0.50593940901E+02  0.51342711357E+02  0.00000000000E+00 0. -1.
          3    1    5    5  503    0 -0.47417345990E+02 -0.55337292979E+03  0.12723169942E+03  0.56978760030E+03  0.00000000000E+00 0. -1.
         -4    1    5    5    0  503  0.14243180453E+02 -0.12073957924E+04  0.29209054166E+03  0.12423060622E+04  0.00000000000E+00 0.  1.
         -3    1    6    6    0  502 -0.96442487418E+02  0.19626991653E+02 -0.65800907697E+02  0.11838974463E+03  0.00000000000E+00 0.  1.
<mgrwt>
<rscale>  0 0.37630631E+04</rscale>
<asrwt>0</asrwt>
<pdfrwt beam="1">  1        1 0.29537347E+00 0.37630631E+04</pdfrwt>
<pdfrwt beam="2">  1       -1 0.28367745E+00 0.37630631E+04</pdfrwt>
<totfact> 0.11356909E-01</totfact>
</mgrwt>
</event>
<event>
12    1  0.1980523E-007  0.4154385E+04  0.7818608E-02  0.7974106E-01
         -2   -1    0    0    0  501 -0.00000000000E+00  0.00000000000E+00  0.12307530977E+04  0.12307530977E+04  0.00000000000E+00 0. -1.
          2   -1    0    0  501    0  0.00000000000E+00 -0.00000000000E+00 -0.35057633055E+04  0.35057633055E+04  0.00000000000E+00 0.  1.
         23    2    1    2    0    0 -0.15823996746E+04  0.11676445282E+04 -0.13341178367E+04  0.23781485769E+04  0.91311429031E+02 0.  0.
        254    2    1    2    0    0  0.15823996746E+04 -0.11676445282E+04 -0.94089237117E+03  0.23583678263E+04  0.89957649792E+03 0.  0.
        -24    2    4    4    0    0  0.79468258288E+03 -0.96390103214E+03 -0.22583590873E+03  0.12721829430E+04  0.82595251351E+02 0.  0.
         24    2    4    4    0    0  0.78771709173E+03 -0.20374349606E+03 -0.71505646245E+03  0.10861848833E+04  0.80512281208E+02 0.  0.
         13    1    3    3    0    0 -0.96229779612E+03  0.75152120881E+03 -0.86290166494E+03  0.14951255663E+04  0.00000000000E+00 0.  1.
        -13    1    3    3    0    0 -0.62010187849E+03  0.41612331939E+03 -0.47121617172E+03  0.88302301054E+03  0.00000000000E+00 0. -1.
          4    1    6    6  502    0  0.78753549476E+03 -0.20335682796E+03 -0.71695030021E+03  0.10842434634E+04  0.00000000000E+00 0. -1.
          3    1    5    5  503    0  0.47223585572E+03 -0.51943500554E+03 -0.10335232965E+03  0.70957813695E+03  0.00000000000E+00 0. -1.
         -4    1    5    5    0  503  0.32244672717E+03 -0.44446602660E+03 -0.12248357908E+03  0.56260480606E+03  0.00000000000E+00 0.  1.
         -3    1    6    6    0  502  0.18159696366E+00 -0.38666809911E+00  0.18938377622E+01  0.19414198787E+01  0.00000000000E+00 0.  1.
<mgrwt>
<rscale>  0 0.41543852E+04</rscale>
<asrwt>0</asrwt>
<pdfrwt beam="1">  1        2 0.53934819E+00 0.41543852E+04</pdfrwt>
<pdfrwt beam="2">  1       -2 0.18934663E+00 0.41543852E+04</pdfrwt>
<totfact> 0.98075696E-02</totfact>
</mgrwt>
</event>
<event>
12    1  0.2155185E-007  0.2472409E+04  0.7818608E-02  0.8412881E-01
          1   -1    0    0  501    0  0.00000000000E+00  0.00000000000E+00  0.15951184917E+04  0.15951184917E+04  0.00000000000E+00 0. -1.
         -1   -1    0    0    0  501 -0.00000000000E+00 -0.00000000000E+00 -0.95804888551E+03  0.95804888551E+03  0.00000000000E+00 0.  1.
         23    2    1    2    0    0 -0.70832829226E+03  0.71660812779E+03 -0.95433530539E+02  0.10162744623E+04  0.91924128825E+02 0.  0.
        254    2    1    2    0    0  0.70832829226E+03 -0.71660812779E+03  0.73250313676E+03  0.15368929150E+04  0.90012377390E+03 0.  0.
        -24    2    4    4    0    0  0.52021826325E+03 -0.54433867487E+03 -0.53569429355E+00  0.75727352027E+03  0.80816230791E+02 0.  0.
         24    2    4    4    0    0  0.18811002901E+03 -0.17226945292E+03  0.73303883105E+03  0.77961939471E+03  0.73473296926E+02 0.  0.
         13    1    3    3    0    0 -0.55603815620E+03  0.61248155425E+03 -0.73499795581E+02  0.83049040055E+03  0.00000000000E+00 0. -1.
        -13    1    3    3    0    0 -0.15229013606E+03  0.10412657354E+03 -0.21933734958E+02  0.18578406171E+03  0.00000000000E+00 0.  1.
          2    1    6    6  502    0  0.55188714472E+02 -0.10874695036E+02  0.16472756725E+03  0.17406672459E+03  0.00000000000E+00 0. -1.
          3    1    5    5  503    0  0.13730439632E+03 -0.19066418866E+03  0.18359414135E+02  0.23567434772E+03  0.00000000000E+00 0. -1.
         -4    1    5    5    0  503  0.38291386693E+03 -0.35367448621E+03 -0.18895108429E+02  0.52159917255E+03  0.00000000000E+00 0.  1.
         -1    1    6    6    0  502  0.13292131454E+03 -0.16139475789E+03  0.56831126380E+03  0.60555267012E+03  0.00000000000E+00 0.  1.
<mgrwt>
<rscale>  0 0.24724089E+04</rscale>
<asrwt>0</asrwt>
<pdfrwt beam="1">  1        1 0.24540285E+00 0.24724089E+04</pdfrwt>
<pdfrwt beam="2">  1       -1 0.14739214E+00 0.24724089E+04</pdfrwt>
<totfact> 0.18316373E+00</totfact>
</mgrwt>
</event>
<event>
12    1  0.1980523E-007  0.1087984E+04  0.7818608E-02  0.9216983E-01
         -2   -1    0    0    0  501 -0.00000000000E+00  0.00000000000E+00  0.16371931978E+03  0.16371931978E+03  0.00000000000E+00 0.  1.
          2   -1    0    0  501    0  0.00000000000E+00 -0.00000000000E+00 -0.18075296813E+04  0.18075296813E+04  0.00000000000E+00 0. -1.
         23    2    1    2    0    0 -0.33567370679E+02  0.72646062887E+02 -0.49236032414E+03  0.50688913812E+03  0.90076027477E+02 0.  0.
        254    2    1    2    0    0  0.33567370679E+02 -0.72646062887E+02 -0.11514500374E+04  0.14643598630E+04  0.90117057256E+03 0.  0.
        -24    2    4    4    0    0 -0.40811960216E+03 -0.14602081271E+03 -0.68064741682E+03  0.81067574963E+03  0.77656793676E+02 0.  0.
         24    2    4    4    0    0  0.44168697284E+03  0.73374749819E+02 -0.47080262055E+03  0.65368411333E+03  0.71948430241E+02 0.  0.
         13    1    3    3    0    0 -0.58323582762E+01  0.47973455593E+02 -0.44033086502E+03  0.44297487461E+03  0.00000000000E+00 0. -1.
        -13    1    3    3    0    0 -0.27735012402E+02  0.24672607294E+02 -0.52029459124E+02  0.63914263513E+02  0.00000000000E+00 0.  1.
          2    1    6    6  502    0  0.35625110855E+03  0.51973166682E+02 -0.41508255082E+03  0.54946299820E+03  0.00000000000E+00 0. -1.
          3    1    5    5  503    0 -0.39303264203E+03 -0.15115800972E+03 -0.63161792916E+03  0.75912094559E+03  0.00000000000E+00 0. -1.
         -4    1    5    5    0  503 -0.15086960131E+02  0.51371970100E+01 -0.49029487658E+02  0.51554804036E+02  0.00000000000E+00 0.  1.
         -1    1    6    6    0  502  0.85435864284E+02  0.21401583137E+02 -0.55720069730E+02  0.10422111512E+03  0.00000000000E+00 0.  1.
<mgrwt>
<rscale>  0 0.10879844E+04</rscale>
<asrwt>0</asrwt>
<pdfrwt beam="1">  1        2 0.27808148E+00 0.10879844E+04</pdfrwt>
<pdfrwt beam="2">  1       -2 0.25187589E-01 0.10879844E+04</pdfrwt>
<totfact> 0.12025231E+02</totfact>
</mgrwt>
</event>
<event>
12    1  0.1980523E-007  0.2100473E+04  0.7818608E-02  0.8561035E-01
          1   -1    0    0  501    0  0.00000000000E+00  0.00000000000E+00  0.10102810388E+04  0.10102810388E+04  0.00000000000E+00 0. -1.
         -1   -1    0    0    0  501 -0.00000000000E+00 -0.00000000000E+00 -0.10917723782E+04  0.10917723782E+04  0.00000000000E+00 0.  1.
         23    2    1    2    0    0  0.32485347011E+03  0.75393389565E+03 -0.27514359194E+03  0.86848521754E+03  0.67944689625E+02 0.  0.
        254    2    1    2    0    0 -0.32485347011E+03 -0.75393389565E+03  0.19365225248E+03  0.12335681995E+04  0.90013510751E+03 0.  0.
        -24    2    4    4    0    0 -0.56103236720E+03 -0.47506883405E+03 -0.11513927196E+03  0.74852594940E+03  0.81156212604E+02 0.  0.
         24    2    4    4    0    0  0.23617889710E+03 -0.27886506160E+03  0.30879152444E+03  0.48504225006E+03  0.79797147577E+02 0.  0.
         13    1    3    3    0    0  0.13549763303E+03  0.31654039523E+03 -0.80210167426E+02  0.35354080574E+03  0.00000000000E+00 0.  1.
        -13    1    3    3    0    0  0.18935583708E+03  0.43739350042E+03 -0.19493342451E+03  0.51494441179E+03  0.00000000000E+00 0. -1.
          4    1    6    6  502    0  0.15154955384E+03 -0.20343512574E+03  0.16792195054E+03  0.30422179266E+03  0.00000000000E+00 0. -1.
          1    1    5    5  503    0 -0.19814814756E+03 -0.11970932798E+03 -0.44391791998E+02  0.23571941537E+03  0.00000000000E+00 0. -1.
         -2    1    5    5    0  503 -0.36288421964E+03 -0.35535950607E+03 -0.70747479962E+02  0.51280653403E+03  0.00000000000E+00 0.  1.
         -3    1    6    6    0  502  0.84629343256E+02 -0.75429935853E+02  0.14086957390E+03  0.18082045740E+03  0.00000000000E+00 0.  1.
<mgrwt>
<rscale>  0 0.21004732E+04</rscale>
<asrwt>0</asrwt>
<pdfrwt beam="1">  1        1 0.15542785E+00 0.21004732E+04</pdfrwt>
<pdfrwt beam="2">  1       -1 0.16796498E+00 0.21004732E+04</pdfrwt>
<totfact> 0.34796738E+00</totfact>
</mgrwt>
</event>
<event>
12    1  0.1980523E-007  0.1702882E+04  0.7818608E-02  0.8759723E-01
          2   -1    0    0  501    0  0.00000000000E+00  0.00000000000E+00  0.22452711791E+04  0.22452711791E+04  0.00000000000E+00 0. -1.
         -2   -1    0    0    0  501 -0.00000000000E+00 -0.00000000000E+00 -0.32287928386E+03  0.32287928386E+03  0.00000000000E+00 0.  1.
         23    2    1    2    0    0  0.22687459054E+03 -0.50338052123E+03  0.11061894399E+04  0.12397124342E+04  0.91475754666E+02 0.  0.
        254    2    1    2    0    0 -0.22687459054E+03  0.50338052123E+03  0.81620245533E+03  0.13284380287E+04  0.89089680605E+03 0.  0.
        -24    2    4    4    0    0 -0.13252997350E+03  0.67048708271E+03  0.26089867846E+03  0.73556561035E+03  0.76625875208E+02 0.  0.
         24    2    4    4    0    0 -0.94344617042E+02 -0.16710656148E+03  0.55530377688E+03  0.59287241836E+03  0.79434943077E+02 0.  0.
         13    1    3    3    0    0  0.14636264130E+03 -0.30022241785E+03  0.76233579506E+03  0.83229284953E+03  0.00000000000E+00 0. -1.
        -13    1    3    3    0    0  0.80511949246E+02 -0.20315810339E+03  0.34385364482E+03  0.40741958470E+03  0.00000000000E+00 0.  1.
          4    1    6    6  502    0 -0.18578515052E+02 -0.40272170175E+02  0.52062019927E+02  0.68391979289E+02  0.00000000000E+00 0. -1.
          3    1    5    5  503    0 -0.20820666549E+02  0.12496159434E+03  0.81067006861E+02  0.15040199406E+03  0.00000000000E+00 0. -1.
         -4    1    5    5    0  503 -0.11170930695E+03  0.54552548838E+03  0.17983167160E+03  0.58516361630E+03  0.00000000000E+00 0.  1.
         -3    1    6    6    0  502 -0.75766101990E+02 -0.12683439130E+03  0.50324175695E+03  0.52448043907E+03  0.00000000000E+00 0.  1.
<mgrwt>
<rscale>  0 0.17028817E+04</rscale>
<asrwt>0</asrwt>
<pdfrwt beam="1">  1        2 0.34542633E+00 0.17028817E+04</pdfrwt>
<pdfrwt beam="2">  1       -2 0.49673737E-01 0.17028817E+04</pdfrwt>
<totfact> 0.17776088E+01</totfact>
</mgrwt>
</event>
<event>
12    1  0.1980523E-007  0.4604641E+04  0.7818608E-02  0.7892569E-01
         -2   -1    0    0    0  501 -0.00000000000E+00  0.00000000000E+00  0.20374357996E+04  0.20374357996E+04  0.00000000000E+00 0.  1.
          2   -1    0    0  501    0  0.00000000000E+00 -0.00000000000E+00 -0.26016428491E+04  0.26016428491E+04  0.00000000000E+00 0. -1.
         23    2    1    2    0    0 -0.24611731690E+03  0.20565723854E+04  0.51297252119E+03  0.21357737156E+04  0.91240596775E+02 0.  0.
        254    2    1    2    0    0  0.24611731690E+03 -0.20565723854E+04 -0.10771795706E+04  0.25033049331E+04  0.90341355455E+03 0.  0.
        -24    2    4    4    0    0  0.24986660355E+03 -0.55435350943E+03 -0.74095910673E+03  0.96186909041E+03  0.80191123223E+02 0.  0.
         24    2    4    4    0    0 -0.37492866492E+01 -0.15022188760E+04 -0.33622046388E+03  0.15414358427E+04  0.79401815182E+02 0.  0.
         13    1    3    3    0    0 -0.19830768075E+03  0.16307793936E+04  0.44452288672E+03  0.17018718999E+04  0.00000000000E+00 0.  1.
        -13    1    3    3    0    0 -0.47809636148E+02  0.42579299184E+03  0.68449634469E+02  0.43390181570E+03  0.00000000000E+00 0. -1.
          4    1    6    6  502    0 -0.37880766106E+02 -0.54602614197E+03 -0.11087689233E+03  0.55845607294E+03  0.00000000000E+00 0. -1.
          3    1    5    5  503    0  0.18417440837E+02 -0.83427591257E+02 -0.72450121794E+02  0.11201957533E+03  0.00000000000E+00 0. -1.
         -4    1    5    5    0  503  0.23144916271E+03 -0.47092591818E+03 -0.66850898493E+03  0.84984951507E+03  0.00000000000E+00 0.  1.
         -3    1    6    6    0  502  0.34131479457E+02 -0.95619273403E+03 -0.22534357155E+03  0.98297976975E+03  0.00000000000E+00 0.  1.
<mgrwt>
<rscale>  0 0.46046413E+04</rscale>
<asrwt>0</asrwt>
<pdfrwt beam="1">  1        2 0.40025275E+00 0.46046413E+04</pdfrwt>
<pdfrwt beam="2">  1       -2 0.31345166E+00 0.46046413E+04</pdfrwt>
<totfact> 0.59948626E-02</totfact>
</mgrwt>
</event>
<event>
12    1  0.1980523E-007  0.1296634E+04  0.7818608E-02  0.9032239E-01
         -2   -1    0    0    0  501 -0.00000000000E+00  0.00000000000E+00  0.99482592357E+03  0.99482592357E+03  0.00000000000E+00 0.  1.
          2   -1    0    0  501    0  0.00000000000E+00 -0.00000000000E+00 -0.42250086821E+03  0.42250086821E+03  0.00000000000E+00 0. -1.
         23    2    1    2    0    0  0.30935521166E+03 -0.90841693342E+02  0.88405134323E+02  0.34631369843E+03  0.90359557956E+02 0.  0.
        254    2    1    2    0    0 -0.30935521166E+03  0.90841693342E+02  0.48391992104E+03  0.10710130934E+04  0.89940963744E+03 0.  0.
        -24    2    4    4    0    0 -0.59796734248E+03  0.19600589623E+03  0.28296473175E+03  0.69467396158E+03  0.80744160506E+02 0.  0.
         24    2    4    4    0    0  0.28861213082E+03 -0.10516420289E+03  0.20095518929E+03  0.37633913177E+03  0.83016157306E+02 0.  0.
         13    1    3    3    0    0  0.23425178059E+03 -0.51959843880E+02  0.10187466847E+03  0.26067637054E+03  0.00000000000E+00 0.  1.
        -13    1    3    3    0    0  0.75103431077E+02 -0.38881849463E+02 -0.13469534152E+02  0.85637327886E+02  0.00000000000E+00 0. -1.
          4    1    6    6  502    0  0.24919517738E+03 -0.76889869437E+02  0.19855291188E+03  0.32777057108E+03  0.00000000000E+00 0. -1.
          3    1    5    5  503    0 -0.59248354545E+03  0.20230561739E+03  0.27964461175E+03  0.68568609680E+03  0.00000000000E+00 0. -1.
         -4    1    5    5    0  503 -0.54837970302E+01 -0.62997211634E+01  0.33201200004E+01  0.89878647866E+01  0.00000000000E+00 0.  1.
         -3    1    6    6    0  502  0.39416953443E+02 -0.28274333449E+02  0.24022774083E+01  0.48568560690E+02  0.00000000000E+00 0.  1.
<mgrwt>
<rscale>  0 0.12966338E+04</rscale>
<asrwt>0</asrwt>
<pdfrwt beam="1">  1        2 0.65000134E-01 0.12966338E+04</pdfrwt>
<pdfrwt beam="2">  1       -2 0.15305014E+00 0.12966338E+04</pdfrwt>
<totfact> 0.20786228E+01</totfact>
</mgrwt>
</event>
<event>
12    1  0.1980523E-007  0.1306171E+04  0.7818608E-02  0.9024686E-01
         -1   -1    0    0    0  501 -0.00000000000E+00  0.00000000000E+00  0.41804420185E+03  0.41804420185E+03  0.00000000000E+00 0.  1.
          1   -1    0    0  501    0  0.00000000000E+00 -0.00000000000E+00 -0.10202766716E+04  0.10202766716E+04  0.00000000000E+00 0. -1.
         23    2    1    2    0    0  0.30991939898E+03 -0.28202272262E+02 -0.17600106353E+02  0.32470211329E+03  0.90974153506E+02 0.  0.
        254    2    1    2    0    0 -0.30991939898E+03  0.28202272262E+02 -0.58463236336E+03  0.11136187601E+04  0.89526886496E+03 0.  0.
        -24    2    4    4    0    0 -0.14541092712E+03 -0.34444816274E+03 -0.58376658830E+03  0.69794658940E+03  0.80976153904E+02 0.  0.
         24    2    4    4    0    0 -0.16450847186E+03  0.37265043500E+03 -0.86577506496E+00  0.41567217072E+03  0.82772096284E+02 0.  0.
         13    1    3    3    0    0  0.47854466893E+02  0.27700377756E+02 -0.12518809001E+02  0.56692869994E+02  0.00000000000E+00 0. -1.
        -13    1    3    3    0    0  0.26206493209E+03 -0.55902650018E+02 -0.50812973526E+01  0.26800924329E+03  0.00000000000E+00 0.  1.
          4    1    6    6  502    0 -0.53160932845E+02  0.46304322009E+02  0.62857927973E+01  0.70779136819E+02  0.00000000000E+00 0. -1.
          3    1    5    5  503    0 -0.81747538963E+02 -0.27474177224E+03 -0.46470374793E+03  0.54599933597E+03  0.00000000000E+00 0. -1.
         -4    1    5    5    0  503 -0.63663388159E+02 -0.69706390503E+02 -0.11906284037E+03  0.15194725343E+03  0.00000000000E+00 0.  1.
         -1    1    6    6    0  502 -0.11134753901E+03  0.32634611299E+03 -0.71515678623E+01  0.34489303390E+03  0.00000000000E+00 0.  1.
<mgrwt>
<rscale>  0 0.13061711E+04</rscale>
<asrwt>0</asrwt>
<pdfrwt beam="1">  1        1 0.15696564E+00 0.13061711E+04</pdfrwt>
<pdfrwt beam="2">  1       -1 0.64314493E-01 0.13061711E+04</pdfrwt>
<totfact> 0.35130274E+01</totfact>
</mgrwt>
</event>
<event>
12    1  0.1980523E-007  0.1993612E+04  0.7818608E-02  0.8609613E-01
          2   -1    0    0  501    0  0.00000000000E+00  0.00000000000E+00  0.23783151380E+04  0.23783151380E+04  0.00000000000E+00 0. -1.
         -2   -1    0    0    0  501 -0.00000000000E+00 -0.00000000000E+00 -0.41778395616E+03  0.41778395616E+03  0.00000000000E+00 0.  1.
         23    2    1    2    0    0  0.61080864144E+03  0.48968718029E+03  0.63201326610E+03  0.10100758131E+04  0.89059804117E+02 0.  0.
        254    2    1    2    0    0 -0.61080864144E+03 -0.48968718029E+03  0.13285179157E+04  0.17860232810E+04  0.90113183108E+03 0.  0.
        -24    2    4    4    0    0 -0.11023348919E+03  0.95894266318E+02  0.86972537475E+03  0.88549834173E+03  0.79611263506E+02 0.  0.
         24    2    4    4    0    0 -0.50057515225E+03 -0.58558144661E+03  0.45879254097E+03  0.90052493930E+03  0.83507227111E+02 0.  0.
         13    1    3    3    0    0  0.47870134256E+03  0.35388386777E+03  0.43944832963E+03  0.73993486311E+03  0.00000000000E+00 0. -1.
        -13    1    3    3    0    0  0.13210729889E+03  0.13580331252E+03  0.19256493647E+03  0.27014095000E+03  0.00000000000E+00 0.  1.
          2    1    6    6  502    0 -0.35728957921E+03 -0.38924025217E+03  0.27392851530E+03  0.59514758574E+03  0.00000000000E+00 0. -1.
          3    1    5    5  503    0 -0.11003059919E+03  0.51306886246E+02  0.66221926200E+03  0.67325588026E+03  0.00000000000E+00 0. -1.
         -4    1    5    5    0  503 -0.20289000493E+00  0.44587380072E+02  0.20750611275E+03  0.21224246148E+03  0.00000000000E+00 0.  1.
         -1    1    6    6    0  502 -0.14328557304E+03 -0.19634119444E+03  0.18486402567E+03  0.30537735355E+03  0.00000000000E+00 0.  1.
<mgrwt>
<rscale>  0 0.19936117E+04</rscale>
<asrwt>0</asrwt>
<pdfrwt beam="1">  1        2 0.36589463E+00 0.19936117E+04</pdfrwt>
<pdfrwt beam="2">  1       -2 0.64274456E-01 0.19936117E+04</pdfrwt>
<totfact> 0.85069693E+00</totfact>
</mgrwt>
</event>
<event>
12    1  0.1980523E-007  0.1942697E+04  0.7818608E-02  0.8633890E-01
         -1   -1    0    0    0  501 -0.00000000000E+00  0.00000000000E+00  0.57700981616E+03  0.57700981616E+03  0.00000000000E+00 0.  1.
          1   -1    0    0  501    0  0.00000000000E+00 -0.00000000000E+00 -0.16351858289E+04  0.16351858289E+04  0.00000000000E+00 0. -1.
         23    2    1    2    0    0 -0.59430556549E+03 -0.44885576206E+03 -0.59578552550E+03  0.95814600121E+03  0.91721136818E+02 0.  0.
        254    2    1    2    0    0  0.59430556549E+03  0.44885576206E+03 -0.46239048727E+03  0.12540496439E+04  0.89675244425E+03 0.  0.
        -24    2    4    4    0    0 -0.15493556954E+03  0.35791610327E+03 -0.88301963715E+02  0.40790901046E+03  0.80520533589E+02 0.  0.
         24    2    4    4    0    0  0.74924113503E+03  0.90939658789E+02 -0.37408852355E+03  0.84614063341E+03  0.79871447288E+02 0.  0.
         11    1    3    3    0    0 -0.29026419871E+03 -0.19820240626E+03 -0.22670810610E+03  0.41825119758E+03  0.00000000000E+00 0.  1.
        -11    1    3    3    0    0 -0.30404136678E+03 -0.25065335580E+03 -0.36907741939E+03  0.53989480364E+03  0.00000000000E+00 0. -1.
          4    1    6    6  502    0  0.14785879228E+03  0.44038361482E+02 -0.55411182882E+02  0.16392680965E+03  0.00000000000E+00 0. -1.
          3    1    5    5  503    0 -0.33458133418E+02  0.41190743580E+02  0.11522699114E+02  0.54303744285E+02  0.00000000000E+00 0. -1.
         -4    1    5    5    0  503 -0.12147743612E+03  0.31672535969E+03 -0.99824662828E+02  0.35360526617E+03  0.00000000000E+00 0.  1.
         -3    1    6    6    0  502  0.60138234276E+03  0.46901297307E+02 -0.31867734067E+03  0.68221382376E+03  0.00000000000E+00 0.  1.
<mgrwt>
<rscale>  0 0.19426974E+04</rscale>
<asrwt>0</asrwt>
<pdfrwt beam="1">  1        1 0.25156705E+00 0.19426974E+04</pdfrwt>
<pdfrwt beam="2">  1       -1 0.88770742E-01 0.19426974E+04</pdfrwt>
<totfact> 0.61262118E+00</totfact>
</mgrwt>
</event>
<event>
12    1  0.1980523E-007  0.2070258E+04  0.7818608E-02  0.8574459E-01
         -1   -1    0    0    0  501 -0.00000000000E+00  0.00000000000E+00  0.28720832279E+03  0.28720832279E+03  0.00000000000E+00 0.  1.
          1   -1    0    0  501    0  0.00000000000E+00 -0.00000000000E+00 -0.37307131149E+04  0.37307131149E+04  0.00000000000E+00 0. -1.
         23    2    1    2    0    0 -0.33788511225E+03  0.76066769915E+03 -0.15634163652E+04  0.17736058725E+04  0.92872829330E+02 0.  0.
        254    2    1    2    0    0  0.33788511225E+03 -0.76066769915E+03 -0.18800884269E+04  0.22443155652E+04  0.89968781556E+03 0.  0.
        -24    2    4    4    0    0  0.11208232218E+03 -0.12902556675E+03 -0.14072253881E+04  0.14197260485E+04  0.78286115777E+02 0.  0.
         24    2    4    4    0    0  0.22580279008E+03 -0.63164213241E+03 -0.47286303882E+03  0.82458951673E+03  0.79935812852E+02 0.  0.
         11    1    3    3    0    0 -0.17169856235E+03  0.49174637557E+03 -0.10027812678E+04  0.11299845863E+04  0.00000000000E+00 0.  1.
        -11    1    3    3    0    0 -0.16618654990E+03  0.26892132359E+03 -0.56063509733E+03  0.64362128617E+03  0.00000000000E+00 0. -1.
          2    1    6    6  502    0  0.22875106306E+03 -0.60161321515E+03 -0.43824903994E+03  0.77867048904E+03  0.00000000000E+00 0. -1.
          3    1    5    5  503    0  0.70564518568E+02 -0.12812746594E+03 -0.11214144088E+04  0.11309139114E+04  0.00000000000E+00 0. -1.
         -4    1    5    5    0  503  0.41517803608E+02 -0.89810080756E+00 -0.28581097933E+03  0.28881213705E+03  0.00000000000E+00 0.  1.
         -1    1    6    6    0  502 -0.29482729865E+01 -0.30028917260E+02 -0.34613998877E+02  0.45919027686E+02  0.00000000000E+00 0.  1.
<mgrwt>
<rscale>  0 0.20702578E+04</rscale>
<asrwt>0</asrwt>
<pdfrwt beam="1">  1        1 0.57395584E+00 0.20702578E+04</pdfrwt>
<pdfrwt beam="2">  1       -1 0.44185898E-01 0.20702578E+04</pdfrwt>
<totfact> 0.76449716E-01</totfact>
</mgrwt>
</event>
<event>
12    1  0.1980523E-007  0.3068479E+04  0.7818608E-02  0.8224442E-01
         -2   -1    0    0    0  501 -0.00000000000E+00  0.00000000000E+00  0.12008772764E+04  0.12008772764E+04  0.00000000000E+00 0.  1.
          2   -1    0    0  501    0  0.00000000000E+00 -0.00000000000E+00 -0.19601431936E+04  0.19601431936E+04  0.00000000000E+00 0. -1.
         23    2    1    2    0    0 -0.66705787690E+03 -0.94084020292E+03  0.47075159328E+03  0.12489818761E+04  0.90565809146E+02 0.  0.
        254    2    1    2    0    0  0.66705787690E+03  0.94084020292E+03 -0.12300175104E+04  0.19120385939E+04  0.90155532834E+03 0.  0.
        -24    2    4    4    0    0  0.52626271263E+03  0.39799638554E+02 -0.32600891257E+03  0.62545345503E+03  0.79835827832E+02 0.  0.
         24    2    4    4    0    0  0.14079516428E+03  0.90104056437E+03 -0.90400859788E+03  0.12865851389E+04  0.79827298928E+02 0.  0.
         13    1    3    3    0    0 -0.47401556139E+03 -0.73568320142E+03  0.35522268467E+03  0.94451240383E+03  0.00000000000E+00 0.  1.
        -13    1    3    3    0    0 -0.19304231551E+03 -0.20515700150E+03  0.11552890862E+03  0.30446947231E+03  0.00000000000E+00 0. -1.
          4    1    6    6  502    0  0.30362154609E+01  0.94009783653E+01 -0.73087621030E+00  0.99061182399E+01  0.00000000000E+00 0. -1.
          1    1    5    5  503    0  0.90112479848E+02  0.37053602432E+02 -0.53361087363E+02  0.11108840679E+03  0.00000000000E+00 0. -1.
         -2    1    5    5    0  503  0.43615023278E+03  0.27460361226E+01 -0.27264782521E+03  0.51436504825E+03  0.00000000000E+00 0.  1.
         -3    1    6    6    0  502  0.13775894882E+03  0.89163958600E+03 -0.90327772167E+03  0.12766790206E+04  0.00000000000E+00 0.  1.
<mgrwt>
<rscale>  0 0.30684794E+04</rscale>
<asrwt>0</asrwt>
<pdfrwt beam="1">  1        2 0.30156049E+00 0.30684794E+04</pdfrwt>
<pdfrwt beam="2">  1       -2 0.18475035E+00 0.30684794E+04</pdfrwt>
<totfact> 0.10068342E+00</totfact>
</mgrwt>
</event>
<event>
12    1  0.2523102E-007  0.2671993E+04  0.7818608E-02  0.8344150E-01
          1   -1    0    0  501    0  0.00000000000E+00  0.00000000000E+00  0.19438124655E+04  0.19438124655E+04  0.00000000000E+00 0. -1.
         -1   -1    0    0    0  501 -0.00000000000E+00 -0.00000000000E+00 -0.91823992655E+03  0.91823992655E+03  0.00000000000E+00 0.  1.
         23    2    1    2    0    0 -0.64174243672E+03 -0.98752679288E+03  0.57567835077E+03  0.13140452720E+04  0.90922447538E+02 0.  0.
        254    2    1    2    0    0  0.64174243672E+03  0.98752679288E+03  0.44989418823E+03  0.15480071201E+04  0.89826429387E+03 0.  0.
        -24    2    4    4    0    0  0.22453353717E+03  0.68494849297E+03  0.66492701901E+03  0.98387978032E+03  0.79509333942E+02 0.  0.
         24    2    4    4    0    0  0.41720889955E+03  0.30257829991E+03 -0.21503283078E+03  0.56412733982E+03  0.79897708191E+02 0.  0.
         13    1    3    3    0    0 -0.29702245554E+03 -0.38975397331E+03  0.26776989310E+03  0.55841849402E+03  0.00000000000E+00 0. -1.
        -13    1    3    3    0    0 -0.34471998118E+03 -0.59777281956E+03  0.30790845767E+03  0.75562677794E+03  0.00000000000E+00 0.  1.
          4    1    6    6  502    0  0.13645381913E+03  0.57849898904E+02 -0.76166721730E+02  0.16663620572E+03  0.00000000000E+00 0. -1.
          1    1    5    5  503    0  0.89025551404E+02  0.20438657407E+03  0.16530550908E+03  0.27753437948E+03  0.00000000000E+00 0. -1.
         -2    1    5    5    0  503  0.13550798577E+03  0.48056191890E+03  0.49962150993E+03  0.70634540084E+03  0.00000000000E+00 0.  1.
         -3    1    6    6    0  502  0.28075508042E+03  0.24472840100E+03 -0.13886610905E+03  0.39749113410E+03  0.00000000000E+00 0.  1.
<mgrwt>
<rscale>  0 0.26719927E+04</rscale>
<asrwt>0</asrwt>
<pdfrwt beam="1">  1        1 0.29904807E+00 0.26719927E+04</pdfrwt>
<pdfrwt beam="2">  1       -1 0.14126768E+00 0.26719927E+04</pdfrwt>
<totfact> 0.11656011E+00</totfact>
</mgrwt>
</event>
<event>
12    1  0.1980523E-007  0.3158232E+04  0.7818608E-02  0.8199936E-01
          2   -1    0    0  501    0  0.00000000000E+00  0.00000000000E+00  0.25620863792E+04  0.25620863792E+04  0.00000000000E+00 0. -1.
         -2   -1    0    0    0  501 -0.00000000000E+00 -0.00000000000E+00 -0.97327242309E+03  0.97327242309E+03  0.00000000000E+00 0.  1.
         23    2    1    2    0    0 -0.14253783336E+04 -0.18043470773E+03  0.94664993380E+03  0.17230859699E+04  0.92839026864E+02 0.  0.
        254    2    1    2    0    0  0.14253783336E+04  0.18043470773E+03  0.64216402230E+03  0.18122728324E+04  0.89872026228E+03 0.  0.
        -24    2    4    4    0    0  0.46927856181E+03 -0.15613232127E+03 -0.15055725291E+03  0.52293806021E+03  0.78721395352E+02 0.  0.
         24    2    4    4    0    0  0.95609977177E+03  0.33656702900E+03  0.79272127522E+03  0.12893347722E+04  0.81074015344E+02 0.  0.
         11    1    3    3    0    0 -0.30000256530E+03 -0.25488237591E+02  0.15659757142E+03  0.33937293472E+03  0.00000000000E+00 0.  1.
        -11    1    3    3    0    0 -0.11253757683E+04 -0.15494647014E+03  0.79005236238E+03  0.13837130352E+04  0.00000000000E+00 0. -1.
          4    1    6    6  502    0  0.66296643761E+02  0.41108269111E+02  0.78898694084E+02  0.11095106440E+03  0.00000000000E+00 0. -1.
          1    1    5    5  503    0  0.39133499485E+03 -0.12287331469E+03 -0.93253179952E+02  0.42063890123E+03  0.00000000000E+00 0. -1.
         -2    1    5    5    0  503  0.77943566967E+02 -0.33259006579E+02 -0.57304072961E+02  0.10229915898E+03  0.00000000000E+00 0.  1.
         -3    1    6    6    0  502  0.88980312801E+03  0.29545875989E+03  0.71382258113E+03  0.11783837078E+04  0.00000000000E+00 0.  1.
<mgrwt>
<rscale>  0 0.31582324E+04</rscale>
<asrwt>0</asrwt>
<pdfrwt beam="1">  1        2 0.39416713E+00 0.31582324E+04</pdfrwt>
<pdfrwt beam="2">  1       -2 0.14973422E+00 0.31582324E+04</pdfrwt>
<totfact> 0.81451444E-01</totfact>
</mgrwt>
</event>
<event>
12    1  0.1980523E-007  0.1246091E+04  0.7818608E-02  0.9073443E-01
         -2   -1    0    0    0  501 -0.00000000000E+00  0.00000000000E+00  0.51414582848E+03  0.51414582848E+03  0.00000000000E+00 0.  1.
          2   -1    0    0  501    0  0.00000000000E+00 -0.00000000000E+00 -0.75501028953E+03  0.75501028953E+03  0.00000000000E+00 0. -1.
         23    2    1    2    0    0 -0.64032611586E+02  0.27920901515E+03 -0.39160005618E+02  0.30364981228E+03  0.92800069884E+02 0.  0.
        254    2    1    2    0    0  0.64032611586E+02 -0.27920901515E+03 -0.20170445542E+03  0.96550630573E+03  0.89969988862E+03 0.  0.
        -24    2    4    4    0    0  0.10785756670E+03 -0.51009091728E+03  0.13752234721E+03  0.54494648409E+03  0.78919427016E+02 0.  0.
         24    2    4    4    0    0 -0.43824955109E+02  0.23088190213E+03 -0.33922680263E+03  0.42055982164E+03  0.81047273416E+02 0.  0.
         13    1    3    3    0    0 -0.36121590740E+02  0.89342645849E+02  0.27961859307E+02  0.10034312762E+03  0.00000000000E+00 0.  1.
        -13    1    3    3    0    0 -0.27911020847E+02  0.18986636930E+03 -0.67121864925E+02  0.20330668466E+03  0.00000000000E+00 0. -1.
          2    1    6    6  502    0 -0.53293049195E+02  0.76916172410E+02 -0.14422807907E+03  0.17192435971E+03  0.00000000000E+00 0. -1.
          1    1    5    5  503    0  0.98195117020E+02 -0.47446441149E+03  0.14792161016E+03  0.50659605361E+03  0.00000000000E+00 0. -1.
         -2    1    5    5    0  503  0.96624496754E+01 -0.35626505787E+02 -0.10399262956E+02  0.38350430484E+02  0.00000000000E+00 0.  1.
         -1    1    6    6    0  502  0.94680940859E+01  0.15396572972E+03 -0.19499872356E+03  0.24863546192E+03  0.00000000000E+00 0.  1.
<mgrwt>
<rscale>  0 0.12460905E+04</rscale>
<asrwt>0</asrwt>
<pdfrwt beam="1">  1        2 0.11615543E+00 0.12460905E+04</pdfrwt>
<pdfrwt beam="2">  1       -2 0.79099358E-01 0.12460905E+04</pdfrwt>
<totfact> 0.51881939E+01</totfact>
</mgrwt>
</event>
<event>
12    1  0.1980523E-007  0.5790103E+04  0.7818608E-02  0.7716985E-01
         -2   -1    0    0    0  501 -0.00000000000E+00  0.00000000000E+00  0.27213579197E+04  0.27213579197E+04  0.00000000000E+00 0.  1.
          2   -1    0    0  501    0  0.00000000000E+00 -0.00000000000E+00 -0.30798315541E+04  0.30798315541E+04  0.00000000000E+00 0. -1.
         23    2    1    2    0    0  0.26469648717E+04 -0.73040295450E+03  0.48531744650E+03  0.27899409731E+04  0.91247474284E+02 0.  0.
        254    2    1    2    0    0 -0.26469648717E+04  0.73040295450E+03 -0.84379108091E+03  0.30112485006E+04  0.90317364689E+03 0.  0.
        -24    2    4    4    0    0 -0.24643987101E+03 -0.11012050499E+03 -0.29585718758E+03  0.40827266780E+03  0.79347086836E+02 0.  0.
         24    2    4    4    0    0 -0.24005250007E+04  0.84052345949E+03 -0.54793389333E+03  0.26029758328E+04  0.79067502661E+02 0.  0.
         11    1    3    3    0    0  0.23787408452E+04 -0.64496411621E+03  0.46119304259E+03  0.25074061782E+04  0.00000000000E+00 0. -1.
        -11    1    3    3    0    0  0.26822402646E+03 -0.85438838286E+02  0.24124403907E+02  0.28253479489E+03  0.00000000000E+00 0.  1.
          2    1    6    6  502    0 -0.20217287810E+04  0.73095104479E+03 -0.48193013644E+03  0.22031643947E+04  0.00000000000E+00 0. -1.
          1    1    5    5  503    0 -0.18636935108E+03 -0.11577339825E+03 -0.24906085347E+03  0.33191613925E+03  0.00000000000E+00 0. -1.
         -2    1    5    5    0  503 -0.60070519925E+02  0.56528932523E+01 -0.46796334109E+02  0.76356528550E+02  0.00000000000E+00 0.  1.
         -1    1    6    6    0  502 -0.37879621974E+03  0.10957241471E+03 -0.66003756888E+02  0.39981143815E+03  0.00000000000E+00 0.  1.
<mgrwt>
<rscale>  0 0.57901033E+04</rscale>
<asrwt>0</asrwt>
<pdfrwt beam="1">  1        2 0.47382024E+00 0.57901033E+04</pdfrwt>
<pdfrwt beam="2">  1       -2 0.41867045E+00 0.57901033E+04</pdfrwt>
<totfact> 0.59416958E-03</totfact>
</mgrwt>
</event>
<event>
12    1  0.1980523E-007  0.1738023E+04  0.7818608E-02  0.8739971E-01
         -2   -1    0    0    0  501 -0.00000000000E+00  0.00000000000E+00  0.23627175437E+03  0.23627175437E+03  0.00000000000E+00 0.  1.
          2   -1    0    0  501    0  0.00000000000E+00 -0.00000000000E+00 -0.31962400360E+04  0.31962400360E+04  0.00000000000E+00 0. -1.
         23    2    1    2    0    0  0.22671627170E+02 -0.42454595939E+03 -0.16441708040E+03  0.46504041114E+03  0.92067004690E+02 0.  0.
        254    2    1    2    0    0 -0.22671627170E+02  0.42454595939E+03 -0.27955512012E+04  0.29674713792E+04  0.90001477408E+03 0.  0.
        -24    2    4    4    0    0  0.27796056902E+03 -0.16209667117E+03 -0.94888083660E+03  0.10051092042E+04  0.79575509029E+02 0.  0.
         24    2    4    4    0    0 -0.30063219619E+03  0.58664263056E+03 -0.18466703646E+04  0.19623621750E+04  0.78387351468E+02 0.  0.
         11    1    3    3    0    0  0.19999590457E+02 -0.16448437103E+03 -0.18230919499E+02  0.16669570587E+03  0.00000000000E+00 0.  1.
        -11    1    3    3    0    0  0.26720367124E+01 -0.26006158837E+03 -0.14618616090E+03  0.29834470527E+03  0.00000000000E+00 0. -1.
          2    1    6    6  502    0 -0.14059926696E+02  0.78298571054E+02 -0.19321652757E+03  0.20895208612E+03  0.00000000000E+00 0. -1.
          1    1    5    5  503    0 -0.25655936148E+01  0.44428932495E+01 -0.11921347902E+02  0.12978447782E+02  0.00000000000E+00 0. -1.
         -2    1    5    5    0  503  0.28052616264E+03 -0.16653956442E+03 -0.93695948870E+03  0.99213075646E+03  0.00000000000E+00 0.  1.
         -1    1    6    6    0  502 -0.28657226950E+03  0.50834405951E+03 -0.16534538370E+04  0.17534100889E+04  0.00000000000E+00 0.  1.
<mgrwt>
<rscale>  0 0.17380233E+04</rscale>
<asrwt>0</asrwt>
<pdfrwt beam="1">  1        2 0.49172919E+00 0.17380233E+04</pdfrwt>
<pdfrwt beam="2">  1       -2 0.36349504E-01 0.17380233E+04</pdfrwt>
<totfact> 0.88676451E+00</totfact>
</mgrwt>
</event>
<event>
12    1  0.1980523E-007  0.2997355E+04  0.7818608E-02  0.8244487E-01
         -2   -1    0    0    0  501 -0.00000000000E+00  0.00000000000E+00  0.12024780728E+04  0.12024780728E+04  0.00000000000E+00 0. -1.
          2   -1    0    0  501    0  0.00000000000E+00 -0.00000000000E+00 -0.18678381616E+04  0.18678381616E+04  0.00000000000E+00 0.  1.
         23    2    1    2    0    0 -0.96252964545E+03  0.60253589646E+03  0.46828055924E+03  0.12317337890E+04  0.91480160968E+02 0.  0.
        254    2    1    2    0    0  0.96252964545E+03 -0.60253589646E+03 -0.11336406481E+04  0.18385824454E+04  0.89762545906E+03 0.  0.
        -24    2    4    4    0    0  0.73951106855E+02  0.43218485236E+02 -0.60714511136E+03  0.61765454388E+03  0.74399903583E+02 0.  0.
         24    2    4    4    0    0  0.88857853860E+03 -0.64575438169E+03 -0.52649553675E+03  0.12209279016E+04  0.83047274863E+02 0.  0.
         11    1    3    3    0    0 -0.59705191597E+03  0.38847138013E+03  0.33920495665E+03  0.78894930519E+03  0.00000000000E+00 0. -1.
        -11    1    3    3    0    0 -0.36547772949E+03  0.21406451633E+03  0.12907560259E+03  0.44278448379E+03  0.00000000000E+00 0.  1.
          4    1    6    6  502    0  0.87506759837E+03 -0.61994444787E+03 -0.51393876146E+03  0.11892045538E+04  0.00000000000E+00 0. -1.
          1    1    5    5  503    0  0.70086079229E+02  0.60338494771E+02 -0.55454409770E+03  0.56220276480E+03  0.00000000000E+00 0. -1.
         -2    1    5    5    0  503  0.38650276256E+01 -0.17120009535E+02 -0.52601013666E+02  0.55451779086E+02  0.00000000000E+00 0.  1.
         -3    1    6    6    0  502  0.13510940225E+02 -0.25809933822E+02 -0.12556775294E+02  0.31723347797E+02  0.00000000000E+00 0.  1.
<mgrwt>
<rscale>  0 0.29973551E+04</rscale>
<asrwt>0</asrwt>
<pdfrwt beam="1">  1        2 0.28735972E+00 0.29973551E+04</pdfrwt>
<pdfrwt beam="2">  1       -2 0.18499663E+00 0.29973551E+04</pdfrwt>
<totfact> 0.11352535E+00</totfact>
</mgrwt>
</event>
<event>
12    1  0.1980523E-007  0.2815560E+04  0.7818608E-02  0.8298454E-01
          4   -1    0    0  501    0  0.00000000000E+00  0.00000000000E+00  0.10280952274E+04  0.10280952274E+04  0.00000000000E+00 0. -1.
         -4   -1    0    0    0  501 -0.00000000000E+00 -0.00000000000E+00 -0.19276862971E+04  0.19276862971E+04  0.00000000000E+00 0.  1.
         23    2    1    2    0    0 -0.75297503962E+03  0.25969952820E+03  0.62449282669E+03  0.10153212202E+04  0.80440253052E+02 0.  0.
        254    2    1    2    0    0  0.75297503962E+03 -0.25969952820E+03 -0.15240838964E+04  0.19404603043E+04  0.89896563559E+03 0.  0.
        -24    2    4    4    0    0  0.13713004092E+03  0.26789660989E+03 -0.15673740361E+03  0.34870163049E+03  0.80330390936E+02 0.  0.
         24    2    4    4    0    0  0.61584499870E+03 -0.52759613809E+03 -0.13673464928E+04  0.15917586738E+04  0.80227781099E+02 0.  0.
         13    1    3    3    0    0 -0.66086197276E+03  0.20864950350E+03  0.56650570472E+03  0.89509880786E+03  0.00000000000E+00 0.  1.
        -13    1    3    3    0    0 -0.92113066855E+02  0.51050024703E+02  0.57987121965E+02  0.12022241231E+03  0.00000000000E+00 0. -1.
          4    1    6    6  502    0  0.42176774371E+03 -0.40331843054E+03 -0.94646385986E+03  0.11119116980E+04  0.00000000000E+00 0. -1.
          1    1    5    5  503    0  0.11036431315E+03  0.14615536581E+03 -0.11921895315E+03  0.21852878840E+03  0.00000000000E+00 0. -1.
         -2    1    5    5    0  503  0.26765727774E+02  0.12174124408E+03 -0.37518450456E+02  0.13017284209E+03  0.00000000000E+00 0.  1.
         -3    1    6    6    0  502  0.19407725499E+03 -0.12427770755E+03 -0.42088263296E+03  0.47984697584E+03  0.00000000000E+00 0.  1.
<mgrwt>
<rscale>  0 0.28155604E+04</rscale>
<asrwt>0</asrwt>
<pdfrwt beam="1">  1        4 0.15816850E+00 0.28155604E+04</pdfrwt>
<pdfrwt beam="2">  1       -4 0.29656712E+00 0.28155604E+04</pdfrwt>
<totfact> 0.14482640E-02</totfact>
</mgrwt>
</event>
<event>
12    1  0.1980523E-007  0.1815347E+04  0.7818608E-02  0.8698181E-01
          2   -1    0    0  501    0  0.00000000000E+00  0.00000000000E+00  0.31461262320E+04  0.31461262320E+04  0.00000000000E+00 0. -1.
         -2   -1    0    0    0  501 -0.00000000000E+00 -0.00000000000E+00 -0.26186832913E+03  0.26186832913E+03  0.00000000000E+00 0.  1.
         23    2    1    2    0    0  0.14496989995E+03  0.54796862590E+03  0.38550094100E+03  0.69120820211E+03  0.88723820305E+02 0.  0.
        254    2    1    2    0    0 -0.14496989995E+03 -0.54796862590E+03  0.24987569618E+04  0.27167863590E+04  0.90324740755E+03 0.  0.
        -24    2    4    4    0    0  0.26359304371E+01 -0.75306634908E+03  0.14605364387E+04  0.16451920478E+04  0.79839281954E+02 0.  0.
         24    2    4    4    0    0 -0.14760583038E+03  0.20509772318E+03  0.10382205231E+04  0.10715943112E+04  0.80993555503E+02 0.  0.
         13    1    3    3    0    0  0.11139096561E+03  0.27973742039E+03  0.23390753761E+03  0.38127904183E+03  0.00000000000E+00 0. -1.
        -13    1    3    3    0    0  0.33578934335E+02  0.26823120551E+03  0.15159340338E+03  0.30992916028E+03  0.00000000000E+00 0.  1.
          2    1    6    6  502    0 -0.50189453080E+01 -0.65984686687E+01  0.62291089010E+02  0.62840348271E+02  0.00000000000E+00 0. -1.
          3    1    5    5  503    0  0.27611911967E+02 -0.19129712173E+03  0.32725816658E+03  0.38007224847E+03  0.00000000000E+00 0. -1.
         -4    1    5    5    0  503 -0.24975981530E+02 -0.56176922735E+03  0.11332782722E+04  0.12651197993E+04  0.00000000000E+00 0.  1.
         -1    1    6    6    0  502 -0.14258688508E+03  0.21169619185E+03  0.97592943409E+03  0.10087539629E+04  0.00000000000E+00 0.  1.
<mgrwt>
<rscale>  0 0.18153466E+04</rscale>
<asrwt>0</asrwt>
<pdfrwt beam="1">  1        2 0.48401939E+00 0.18153466E+04</pdfrwt>
<pdfrwt beam="2">  1       -2 0.40287437E-01 0.18153466E+04</pdfrwt>
<totfact> 0.77660378E+00</totfact>
</mgrwt>
</event>
<event>
12    1  0.1980523E-007  0.2378544E+04  0.7818608E-02  0.8447580E-01
          2   -1    0    0  501    0  0.00000000000E+00  0.00000000000E+00  0.34121476057E+04  0.34121476057E+04  0.00000000000E+00 0. -1.
         -2   -1    0    0    0  501 -0.00000000000E+00 -0.00000000000E+00 -0.41450970567E+03  0.41450970567E+03  0.00000000000E+00 0.  1.
         23    2    1    2    0    0 -0.75364324081E+03 -0.49283430495E+02  0.23600347717E+04  0.24796956890E+04  0.93378775464E+02 0.  0.
        254    2    1    2    0    0  0.75364324081E+03  0.49283430495E+02  0.63760312833E+03  0.13469616223E+04  0.91507424390E+03 0.  0.
        -24    2    4    4    0    0 -0.44554695605E+02 -0.16172262008E+03 -0.12214350897E+03  0.22209682474E+03  0.79174718394E+02 0.  0.
         24    2    4    4    0    0  0.79819793641E+03  0.21100605057E+03  0.75974663730E+03  0.11248647976E+04  0.80388810775E+02 0.  0.
         11    1    3    3    0    0 -0.36608727853E+03 -0.69871007422E+02  0.11273012235E+04  0.11873120490E+04  0.00000000000E+00 0. -1.
        -11    1    3    3    0    0 -0.38755596228E+03  0.20587576927E+02  0.12327335481E+04  0.12923836400E+04  0.00000000000E+00 0.  1.
          2    1    6    6  502    0  0.37349536448E+02  0.15613016774E+02  0.62820352159E+02  0.74733866560E+02  0.00000000000E+00 0. -1.
          1    1    5    5  503    0 -0.29461402008E+02 -0.11576045390E+02 -0.73565766637E+01  0.32497665384E+02  0.00000000000E+00 0. -1.
         -2    1    5    5    0  503 -0.15093293597E+02 -0.15014657469E+03 -0.11478693231E+03  0.18959915936E+03  0.00000000000E+00 0.  1.
         -1    1    6    6    0  502  0.76084839996E+03  0.19539303380E+03  0.69692628514E+03  0.10501309310E+04  0.00000000000E+00 0.  1.
<mgrwt>
<rscale>  0 0.23785443E+04</rscale>
<asrwt>0</asrwt>
<pdfrwt beam="1">  1        2 0.52494577E+00 0.23785443E+04</pdfrwt>
<pdfrwt beam="2">  1       -2 0.63770726E-01 0.23785443E+04</pdfrwt>
<totfact> 0.19197941E+00</totfact>
</mgrwt>
</event>
<event>
12    1  0.1980523E-007  0.1205802E+04  0.7818608E-02  0.9107793E-01
         -2   -1    0    0    0  501 -0.00000000000E+00  0.00000000000E+00  0.29915409780E+03  0.29915409780E+03  0.00000000000E+00 0.  1.
          2   -1    0    0  501    0  0.00000000000E+00 -0.00000000000E+00 -0.12150586086E+04  0.12150586086E+04  0.00000000000E+00 0. -1.
         23    2    1    2    0    0  0.24877102312E+03  0.43351144212E+02 -0.17318051656E+03  0.32063618753E+03  0.95130067745E+02 0.  0.
        254    2    1    2    0    0 -0.24877102312E+03 -0.43351144212E+02 -0.74272399426E+03  0.11935765189E+04  0.89956635728E+03 0.  0.
        -24    2    4    4    0    0  0.29386138874E+01  0.24932048339E+03 -0.75498135120E+03  0.79923753497E+03  0.81329316750E+02 0.  0.
         24    2    4    4    0    0 -0.25170963701E+03 -0.29267162760E+03  0.12257356934E+02  0.39433898392E+03  0.79615127180E+02 0.  0.
         13    1    3    3    0    0  0.56869295379E+02 -0.16989479713E+02 -0.78207105256E+02  0.98178971732E+02  0.00000000000E+00 0. -1.
        -13    1    3    3    0    0  0.19190172774E+03  0.60340623925E+02 -0.94973411300E+02  0.22245721580E+03  0.00000000000E+00 0.  1.
          2    1    6    6  502    0 -0.73033852670E+02 -0.41845900048E+02 -0.13732797782E+02  0.85285477789E+02  0.00000000000E+00 0. -1.
          1    1    5    5  503    0  0.20873338360E+02  0.15688953619E+03 -0.36116961587E+03  0.39432665932E+03  0.00000000000E+00 0. -1.
         -2    1    5    5    0  503 -0.17934724472E+02  0.92430947197E+02 -0.39381173533E+03  0.40491087565E+03  0.00000000000E+00 0.  1.
         -1    1    6    6    0  502 -0.17867578434E+03 -0.25082572755E+03  0.25990154716E+02  0.30905350613E+03  0.00000000000E+00 0.  1.
<mgrwt>
<rscale>  0 0.12058022E+04</rscale>
<asrwt>0</asrwt>
<pdfrwt beam="1">  1        2 0.18693209E+00 0.12058022E+04</pdfrwt>
<pdfrwt beam="2">  1       -2 0.46023707E-01 0.12058022E+04</pdfrwt>
<totfact> 0.81883095E+01</totfact>
</mgrwt>
</event>
<event>
12    1  0.1980523E-007  0.3289590E+04  0.7818608E-02  0.8165549E-01
          1   -1    0    0  501    0  0.00000000000E+00  0.00000000000E+00  0.20060572971E+04  0.20060572971E+04  0.00000000000E+00 0. -1.
         -1   -1    0    0    0  501 -0.00000000000E+00 -0.00000000000E+00 -0.13485910724E+04  0.13485910724E+04  0.00000000000E+00 0.  1.
         23    2    1    2    0    0  0.42008186306E+03 -0.10693055328E+04 -0.70562750538E+03  0.13542083365E+04  0.12683433362E+03 0.  0.
        254    2    1    2    0    0 -0.42008186306E+03  0.10693055328E+04  0.13630937301E+04  0.20004400329E+04  0.90766332647E+03 0.  0.
        -24    2    4    4    0    0 -0.58775515017E+03  0.55946363395E+03  0.11671017477E+04  0.14236711661E+04  0.79103889757E+02 0.  0.
         24    2    4    4    0    0  0.16767328711E+03  0.50984189888E+03  0.19599198234E+03  0.57676886684E+03  0.78717060084E+02 0.  0.
         13    1    3    3    0    0  0.40348921368E+03 -0.94333416279E+03 -0.65604719859E+03  0.12178180550E+04  0.00000000000E+00 0.  1.
        -13    1    3    3    0    0  0.16592649377E+02 -0.12597137005E+03 -0.49580306796E+02  0.13639028157E+03  0.00000000000E+00 0. -1.
          4    1    6    6  502    0  0.17042768674E+03  0.50320451618E+03  0.20097497676E+03  0.56802405124E+03  0.00000000000E+00 0. -1.
          1    1    5    5  503    0 -0.57820099290E+03  0.55325106581E+03  0.11286468358E+04  0.13835630849E+04  0.00000000000E+00 0. -1.
         -2    1    5    5    0  503 -0.95541572659E+01  0.62125681434E+01  0.38454911936E+02  0.40108081181E+02  0.00000000000E+00 0.  1.
         -3    1    6    6    0  502 -0.27543996253E+01  0.66373827079E+01 -0.49829944181E+01  0.87448156000E+01  0.00000000000E+00 0.  1.
<mgrwt>
<rscale>  0 0.32895902E+04</rscale>
<asrwt>0</asrwt>
<pdfrwt beam="1">  1        1 0.30862420E+00 0.32895902E+04</pdfrwt>
<pdfrwt beam="2">  1       -1 0.20747555E+00 0.32895902E+04</pdfrwt>
<totfact> 0.32783913E-01</totfact>
</mgrwt>
</event>
<event>
12    1  0.1980523E-007  0.2760415E+04  0.7818608E-02  0.8315664E-01
         -1   -1    0    0    0  501 -0.00000000000E+00  0.00000000000E+00  0.92849653875E+03  0.92849653875E+03  0.00000000000E+00 0.  1.
          1   -1    0    0  501    0  0.00000000000E+00 -0.00000000000E+00 -0.20516747054E+04  0.20516747054E+04  0.00000000000E+00 0. -1.
         23    2    1    2    0    0 -0.12229715623E+04  0.13917135363E+03 -0.44687445508E+03  0.13125939365E+04  0.90432049402E+02 0.  0.
        254    2    1    2    0    0  0.12229715623E+04 -0.13917135363E+03 -0.67630371157E+03  0.16675773077E+04  0.89911025956E+03 0.  0.
        -24    2    4    4    0    0  0.83531093566E+03 -0.20609024388E+03 -0.86624624336E+03  0.12235856323E+04  0.81004305246E+02 0.  0.
         24    2    4    4    0    0  0.38766062667E+03  0.66918890249E+02  0.18994253179E+03  0.44399167542E+03  0.79319248077E+02 0.  0.
         13    1    3    3    0    0 -0.64235697473E+03  0.35707419204E+02 -0.26046092503E+03  0.69407304820E+03  0.00000000000E+00 0. -1.
        -13    1    3    3    0    0 -0.58061458759E+03  0.10346393443E+03 -0.18641353005E+03  0.61852088828E+03  0.00000000000E+00 0.  1.
          4    1    6    6  502    0  0.10184696842E+03  0.32925489480E+02  0.17494056773E+02  0.10845706457E+03  0.00000000000E+00 0. -1.
          3    1    5    5  503    0  0.28534223064E+01 -0.41057645718E+01  0.42751526938E+00  0.50181760515E+01  0.00000000000E+00 0. -1.
         -4    1    5    5    0  503  0.83245751335E+03 -0.20198447931E+03 -0.86667375863E+03  0.12185674562E+04  0.00000000000E+00 0.  1.
         -3    1    6    6    0  502  0.28581365825E+03  0.33993400768E+02  0.17244847502E+03  0.33553461084E+03  0.00000000000E+00 0.  1.
<mgrwt>
<rscale>  0 0.27604151E+04</rscale>
<asrwt>0</asrwt>
<pdfrwt beam="1">  1        1 0.31564226E+00 0.27604151E+04</pdfrwt>
<pdfrwt beam="2">  1       -1 0.14284562E+00 0.27604151E+04</pdfrwt>
<totfact> 0.94907455E-01</totfact>
</mgrwt>
</event>
<event>
12    1  0.1980523E-007  0.5888512E+04  0.7818608E-02  0.7704381E-01
         -2   -1    0    0    0  501 -0.00000000000E+00  0.00000000000E+00  0.26264375887E+04  0.26264375887E+04  0.00000000000E+00 0.  1.
          2   -1    0    0  501    0  0.00000000000E+00 -0.00000000000E+00 -0.33005325740E+04  0.33005325740E+04  0.00000000000E+00 0. -1.
         23    2    1    2    0    0  0.28564823435E+04 -0.24843367551E+02 -0.65450651844E+03  0.29319576220E+04  0.88815216180E+02 0.  0.
        254    2    1    2    0    0 -0.28564823435E+04  0.24843367551E+02 -0.19588466796E+02  0.29950125407E+04  0.89978210667E+03 0.  0.
        -24    2    4    4    0    0 -0.15129541246E+04  0.39575619740E+03  0.21080509685E+03  0.15799653105E+04  0.78730189070E+02 0.  0.
         24    2    4    4    0    0 -0.13435282189E+04 -0.37091282985E+03 -0.23039356365E+03  0.14150472302E+04  0.81443644509E+02 0.  0.
         13    1    3    3    0    0  0.92553487805E+03  0.96633356754E+01 -0.17356613191E+03  0.94171831918E+03  0.00000000000E+00 0. -1.
        -13    1    3    3    0    0  0.19309474655E+04 -0.34506703226E+02 -0.48094038653E+03  0.19902393028E+04  0.00000000000E+00 0.  1.
          4    1    6    6  502    0 -0.11224818335E+04 -0.27838816637E+03 -0.18645055976E+03  0.11714218920E+04  0.00000000000E+00 0. -1.
          3    1    5    5  503    0 -0.13854292303E+04  0.34282739799E+03  0.20403895880E+03  0.14417269761E+04  0.00000000000E+00 0. -1.
         -4    1    5    5    0  503 -0.12752489435E+03  0.52928799406E+02  0.67661380542E+01  0.13823833444E+03  0.00000000000E+00 0.  1.
         -1    1    6    6    0  502 -0.22104638538E+03 -0.92524663475E+02 -0.43943003892E+02  0.24362533823E+03  0.00000000000E+00 0.  1.
<mgrwt>
<rscale>  0 0.58885118E+04</rscale>
<asrwt>0</asrwt>
<pdfrwt beam="1">  1        2 0.50777424E+00 0.58885118E+04</pdfrwt>
<pdfrwt beam="2">  1       -2 0.40406732E+00 0.58885118E+04</pdfrwt>
<totfact> 0.52752745E-03</totfact>
</mgrwt>
</event>
<event>
12    1  0.1980523E-007  0.1528141E+04  0.7818608E-02  0.8865952E-01
         -1   -1    0    0    0  501 -0.00000000000E+00  0.00000000000E+00  0.60707444120E+03  0.60707444120E+03  0.00000000000E+00 0.  1.
          1   -1    0    0  501    0  0.00000000000E+00 -0.00000000000E+00 -0.96166782265E+03  0.96166782265E+03  0.00000000000E+00 0. -1.
         23    2    1    2    0    0  0.35530877240E+03 -0.22564862497E+03  0.14808435901E+03  0.45546050184E+03  0.91398389800E+02 0.  0.
        254    2    1    2    0    0 -0.35530877240E+03  0.22564862497E+03 -0.50267774046E+03  0.11132817620E+04  0.89974982366E+03 0.  0.
        -24    2    4    4    0    0 -0.45616688386E+03 -0.14936024533E+02  0.79988243184E+02  0.46988892453E+03  0.78013919182E+02 0.  0.
         24    2    4    4    0    0  0.10085811146E+03  0.24058464950E+03 -0.58266598364E+03  0.64339283748E+03  0.80008515845E+02 0.  0.
         13    1    3    3    0    0  0.30949238152E+03 -0.16112592529E+03  0.10044533762E+03  0.36309277584E+03  0.00000000000E+00 0. -1.
        -13    1    3    3    0    0  0.45816390879E+02 -0.64522699678E+02  0.47639021385E+02  0.92367725995E+02  0.00000000000E+00 0.  1.
          2    1    6    6  502    0  0.45133554607E+01  0.84697437226E+00 -0.61751139020E+02  0.61921651411E+02  0.00000000000E+00 0. -1.
          3    1    5    5  503    0 -0.32480815116E+02 -0.18678494725E+01 -0.14465550986E+02  0.35605398152E+02  0.00000000000E+00 0. -1.
         -4    1    5    5    0  503 -0.42368606874E+03 -0.13068175060E+02  0.94453794170E+02  0.43428352637E+03  0.00000000000E+00 0.  1.
         -1    1    6    6    0  502  0.96344756000E+02  0.23973767513E+03 -0.52091484462E+03  0.58147118607E+03  0.00000000000E+00 0.  1.
<mgrwt>
<rscale>  0 0.15281413E+04</rscale>
<asrwt>0</asrwt>
<pdfrwt beam="1">  1        1 0.14794890E+00 0.15281413E+04</pdfrwt>
<pdfrwt beam="2">  1       -1 0.93396068E-01 0.15281413E+04</pdfrwt>
<totfact> 0.17422971E+01</totfact>
</mgrwt>
</event>
<event>
12    1  0.1980523E-007  0.2942770E+04  0.7818608E-02  0.8260265E-01
          1   -1    0    0  501    0  0.00000000000E+00  0.00000000000E+00  0.31831652559E+04  0.31831652559E+04  0.00000000000E+00 0. -1.
         -1   -1    0    0    0  501 -0.00000000000E+00 -0.00000000000E+00 -0.68013249261E+03  0.68013249261E+03  0.00000000000E+00 0.  1.
         23    2    1    2    0    0  0.84942041521E+03 -0.10015420529E+04  0.14644846972E+04  0.19691934180E+04  0.91682951406E+02 0.  0.
        254    2    1    2    0    0 -0.84942041521E+03  0.10015420529E+04  0.10385480661E+04  0.18941043306E+04  0.88569046731E+03 0.  0.
        -24    2    4    4    0    0 -0.24386057163E+03  0.70257115137E+02 -0.11552062706E+03  0.29029862906E+03  0.80772756149E+02 0.  0.
         24    2    4    4    0    0 -0.60555984358E+03  0.93128493777E+03  0.11540686932E+04  0.16038057015E+04  0.79522450244E+02 0.  0.
         13    1    3    3    0    0  0.35720161762E+03 -0.44916558166E+03  0.70250754446E+03  0.90711607053E+03  0.00000000000E+00 0. -1.
        -13    1    3    3    0    0  0.49221879759E+03 -0.55237647124E+03  0.76197715271E+03  0.10620773474E+04  0.00000000000E+00 0.  1.
          2    1    6    6  502    0 -0.46686754422E+03  0.69707133395E+03  0.82356038717E+03  0.11756383201E+04  0.00000000000E+00 0. -1.
          1    1    5    5  503    0 -0.22342571502E+03  0.84185954709E+02 -0.11625141190E+03  0.26555736832E+03  0.00000000000E+00 0. -1.
         -2    1    5    5    0  503 -0.20434856611E+02 -0.13928839573E+02  0.73078483531E+00  0.24741260740E+02  0.00000000000E+00 0.  1.
         -1    1    6    6    0  502 -0.13869229936E+03  0.23421360382E+03  0.33050830600E+03  0.42816738135E+03  0.00000000000E+00 0.  1.
<mgrwt>
<rscale>  0 0.29427702E+04</rscale>
<asrwt>0</asrwt>
<pdfrwt beam="1">  1        1 0.48971773E+00 0.29427702E+04</pdfrwt>
<pdfrwt beam="2">  1       -1 0.10463577E+00 0.29427702E+04</pdfrwt>
<totfact> 0.32097544E-01</totfact>
</mgrwt>
</event>
<event>
12    1  0.1980523E-007  0.1723691E+04  0.7818608E-02  0.8747967E-01
          1   -1    0    0  501    0  0.00000000000E+00  0.00000000000E+00  0.22864843523E+04  0.22864843523E+04  0.00000000000E+00 0. -1.
         -1   -1    0    0    0  501 -0.00000000000E+00 -0.00000000000E+00 -0.32485584522E+03  0.32485584522E+03  0.00000000000E+00 0.  1.
         23    2    1    2    0    0  0.56808125806E+02  0.60544563777E+03  0.51605187530E+03  0.80275525776E+03  0.91185977046E+02 0.  0.
        254    2    1    2    0    0 -0.56808125806E+02 -0.60544563777E+03  0.14455766318E+04  0.18085849398E+04  0.90083078462E+03 0.  0.
        -24    2    4    4    0    0 -0.16808035068E+03  0.47516554323E+02  0.97076181848E+03  0.98976165822E+03  0.82102403361E+02 0.  0.
         24    2    4    4    0    0  0.11127222488E+03 -0.65296219209E+03  0.47481481333E+03  0.81882328157E+03  0.79254824116E+02 0.  0.
         11    1    3    3    0    0  0.61489625349E+02  0.50355935009E+03  0.46722954380E+03  0.68967850458E+03  0.00000000000E+00 0. -1.
        -11    1    3    3    0    0 -0.46814995427E+01  0.10188628768E+03  0.48822331497E+02  0.11307675318E+03  0.00000000000E+00 0.  1.
          4    1    6    6  502    0  0.12314682186E+03 -0.61695192748E+03  0.45033332195E+03  0.77368916331E+03  0.00000000000E+00 0. -1.
          1    1    5    5  503    0 -0.16969718930E+03  0.59540861605E+02  0.93016328187E+03  0.94738903371E+03  0.00000000000E+00 0. -1.
         -2    1    5    5    0  503  0.16168386138E+01 -0.12024307281E+02  0.40598536611E+02  0.42372624507E+02  0.00000000000E+00 0.  1.
         -3    1    6    6    0  502 -0.11874596986E+02 -0.36010264614E+02  0.24481491377E+02  0.45134118261E+02  0.00000000000E+00 0.  1.
<mgrwt>
<rscale>  0 0.17236912E+04</rscale>
<asrwt>0</asrwt>
<pdfrwt beam="1">  1        1 0.35176681E+00 0.17236912E+04</pdfrwt>
<pdfrwt beam="2">  1       -1 0.49977824E-01 0.17236912E+04</pdfrwt>
<totfact> 0.72596431E+00</totfact>
</mgrwt>
</event>
<event>
12    1  0.1980523E-007  0.1771613E+04  0.7818608E-02  0.8721543E-01
         -2   -1    0    0    0  501 -0.00000000000E+00  0.00000000000E+00  0.11564636686E+04  0.11564636686E+04  0.00000000000E+00 0.  1.
          2   -1    0    0  501    0  0.00000000000E+00 -0.00000000000E+00 -0.67849370898E+03  0.67849370898E+03  0.00000000000E+00 0. -1.
         23    2    1    2    0    0 -0.61188431306E+03 -0.20423252053E+03  0.69450615631E+02  0.65516232563E+03  0.91109548884E+02 0.  0.
        254    2    1    2    0    0  0.61188431306E+03  0.20423252053E+03  0.40851934398E+03  0.11797950519E+04  0.89939700643E+03 0.  0.
        -24    2    4    4    0    0 -0.21901189847E+03 -0.33536102394E+02  0.12288987562E+03  0.26617022670E+03  0.81570743608E+02 0.  0.
         24    2    4    4    0    0  0.83089621153E+03  0.23776862293E+03  0.28562946836E+03  0.91362482525E+03  0.78763543156E+02 0.  0.
         11    1    3    3    0    0 -0.47933622047E+03 -0.15813465675E+03  0.16025542852E+02  0.50500158410E+03  0.00000000000E+00 0. -1.
        -11    1    3    3    0    0 -0.13254809259E+03 -0.46097863783E+02  0.53425072778E+02  0.15016074152E+03  0.00000000000E+00 0.  1.
          4    1    6    6  502    0  0.45691936670E+03  0.90941867751E+02  0.14409423488E+03  0.48765651796E+03  0.00000000000E+00 0. -1.
          3    1    5    5  503    0 -0.30319260932E+02  0.24126054448E+02  0.18165675045E+02  0.42793876157E+02  0.00000000000E+00 0. -1.
         -4    1    5    5    0  503 -0.18869263754E+03 -0.57662156842E+02  0.10472420058E+03  0.22337635054E+03  0.00000000000E+00 0.  1.
         -3    1    6    6    0  502  0.37397684483E+03  0.14682675517E+03  0.14153523347E+03  0.42596830729E+03  0.00000000000E+00 0.  1.
<mgrwt>
<rscale>  0 0.17716132E+04</rscale>
<asrwt>0</asrwt>
<pdfrwt beam="1">  1        2 0.10438365E+00 0.17716132E+04</pdfrwt>
<pdfrwt beam="2">  1       -2 0.17791749E+00 0.17716132E+04</pdfrwt>
<totfact> 0.75538697E+00</totfact>
</mgrwt>
</event>
<event>
12    1  0.1980523E-007  0.1392757E+04  0.7818608E-02  0.8959078E-01
          2   -1    0    0  501    0  0.00000000000E+00  0.00000000000E+00  0.12240094962E+04  0.12240094962E+04  0.00000000000E+00 0.  1.
         -2   -1    0    0    0  501 -0.00000000000E+00 -0.00000000000E+00 -0.39619204373E+03  0.39619204373E+03  0.00000000000E+00 0. -1.
         23    2    1    2    0    0 -0.25201404550E+03  0.13060408696E+03 -0.84136051027E+02  0.30987581945E+03  0.91518532225E+02 0.  0.
        254    2    1    2    0    0  0.25201404550E+03 -0.13060408696E+03  0.91195350348E+03  0.13103257205E+04  0.89706510050E+03 0.  0.
        -24    2    4    4    0    0  0.32057102517E+03  0.20684628233E+03  0.87118291604E+03  0.95433193817E+03  0.78984861311E+02 0.  0.
         24    2    4    4    0    0 -0.68556979672E+02 -0.33745036929E+03  0.40770587442E+02  0.35599378230E+03  0.80600998996E+02 0.  0.
         11    1    3    3    0    0 -0.14267610436E+03  0.66045707321E+02  0.60184442553E+00  0.15722235346E+03  0.00000000000E+00 0.  1.
        -11    1    3    3    0    0 -0.10933794114E+03  0.64558379637E+02 -0.84737895453E+02  0.15265346599E+03  0.00000000000E+00 0. -1.
          4    1    6    6  502    0 -0.57164686656E+00 -0.86969891328E+02 -0.20416638512E+02  0.89336039233E+02  0.00000000000E+00 0. -1.
          1    1    5    5  503    0 -0.98561184296E+00  0.56727050090E+01  0.43468961316E+02  0.43848621537E+02  0.00000000000E+00 0. -1.
         -2    1    5    5    0  503  0.32155663701E+03  0.20117357732E+03  0.82771395473E+03  0.91048331663E+03  0.00000000000E+00 0.  1.
         -3    1    6    6    0  502 -0.67985332806E+02 -0.25048047796E+03  0.61187225954E+02  0.26665774306E+03  0.00000000000E+00 0.  1.
<mgrwt>
<rscale>  0 0.13927567E+04</rscale>
<asrwt>0</asrwt>
<pdfrwt beam="1">  1        2 0.18830915E+00 0.13927567E+04</pdfrwt>
<pdfrwt beam="2">  1       -2 0.60952623E-01 0.13927567E+04</pdfrwt>
<totfact> 0.44702130E+01</totfact>
</mgrwt>
</event>
<event>
12    1  0.1980523E-007  0.1802473E+04  0.7818608E-02  0.8704985E-01
         -2   -1    0    0    0  501 -0.00000000000E+00  0.00000000000E+00  0.93234731940E+03  0.93234731940E+03  0.00000000000E+00 0. -1.
          2   -1    0    0  501    0  0.00000000000E+00 -0.00000000000E+00 -0.87116374263E+03  0.87116374263E+03  0.00000000000E+00 0.  1.
         23    2    1    2    0    0 -0.45680710605E+03  0.29714500022E+03  0.41624507574E+03  0.69173066910E+03  0.90903642398E+02 0.  0.
        254    2    1    2    0    0  0.45680710605E+03 -0.29714500022E+03 -0.35506149897E+03  0.11117803929E+04  0.90167571263E+03 0.  0.
        -24    2    4    4    0    0  0.38794607524E+03  0.24703186419E+03 -0.29942466709E+03  0.55454209006E+03  0.79592079746E+02 0.  0.
         24    2    4    4    0    0  0.68861030810E+02 -0.54417686441E+03 -0.55636831875E+02  0.55723830287E+03  0.80924457373E+02 0.  0.
         11    1    3    3    0    0 -0.83014724675E+02  0.71119347843E+02  0.12827098268E+03  0.16853145448E+03  0.00000000000E+00 0. -1.
        -11    1    3    3    0    0 -0.37379238138E+03  0.22602565238E+03  0.28797409305E+03  0.52319921462E+03  0.00000000000E+00 0.  1.
          4    1    6    6  502    0 -0.16565240923E+02 -0.55366206702E+02 -0.12658797142E+02  0.59161382645E+02  0.00000000000E+00 0. -1.
          3    1    5    5  503    0  0.78746983838E+01 -0.59185046231E+01 -0.34046675344E+01  0.10422635589E+02  0.00000000000E+00 0. -1.
         -2    1    5    5    0  503  0.38007137686E+03  0.25295036881E+03 -0.29601999956E+03  0.54411945447E+03  0.00000000000E+00 0.  1.
         -3    1    6    6    0  502  0.85426271733E+02 -0.48881065771E+03 -0.42978034733E+02  0.49807692023E+03  0.00000000000E+00 0.  1.
<mgrwt>
<rscale>  0 0.18024729E+04</rscale>
<asrwt>0</asrwt>
<pdfrwt beam="1">  1        2 0.13402519E+00 0.18024729E+04</pdfrwt>
<pdfrwt beam="2">  1       -2 0.14343805E+00 0.18024729E+04</pdfrwt>
<totfact> 0.97611700E+00</totfact>
</mgrwt>
</event>
<event>
12    1  0.1980523E-007  0.3195353E+04  0.7818608E-02  0.8190045E-01
          2   -1    0    0  501    0  0.00000000000E+00  0.00000000000E+00  0.38693755127E+04  0.38693755127E+04  0.00000000000E+00 0.  1.
         -2   -1    0    0    0  501 -0.00000000000E+00 -0.00000000000E+00 -0.65968550833E+03  0.65968550833E+03  0.00000000000E+00 0. -1.
         23    2    1    2    0    0 -0.12190931196E+04  0.56506449257E+03  0.23229451660E+04  0.26850620457E+04  0.89431705060E+02 0.  0.
        254    2    1    2    0    0  0.12190931196E+04 -0.56506449257E+03  0.88674483833E+03  0.18439989753E+04  0.89918290565E+03 0.  0.
        -24    2    4    4    0    0  0.85014160151E+03  0.88312181274E+02  0.53131372629E+03  0.10099291086E+04  0.84396354841E+02 0.  0.
         24    2    4    4    0    0  0.36895151805E+03 -0.65337667384E+03  0.35543111204E+03  0.83406986671E+03  0.79466763884E+02 0.  0.
         13    1    3    3    0    0 -0.28497158148E+03  0.15124014403E+03  0.62745269035E+03  0.70553473483E+03  0.00000000000E+00 0.  1.
        -13    1    3    3    0    0 -0.93412153807E+03  0.41382434854E+03  0.16954924757E+04  0.19795273109E+04  0.00000000000E+00 0. -1.
          4    1    6    6  502    0  0.16848038785E+00 -0.11117975938E-01 -0.27091396347E+01  0.27143962148E+01  0.00000000000E+00 0. -1.
          3    1    5    5  503    0  0.35427967451E+03  0.77478766600E+02  0.23621563838E+03  0.43279888500E+03  0.00000000000E+00 0. -1.
         -4    1    5    5    0  503  0.49586192700E+03  0.10833414674E+02  0.29509808791E+03  0.57713022361E+03  0.00000000000E+00 0.  1.
         -3    1    6    6    0  502  0.36878303766E+03 -0.65336555587E+03  0.35814025167E+03  0.83135547050E+03  0.00000000000E+00 0.  1.
<mgrwt>
<rscale>  0 0.31953535E+04</rscale>
<asrwt>0</asrwt>
<pdfrwt beam="1">  1        2 0.59528853E+00 0.31953535E+04</pdfrwt>
<pdfrwt beam="2">  1       -2 0.10149008E+00 0.31953535E+04</pdfrwt>
<totfact> 0.29131124E-01</totfact>
</mgrwt>
</event>
<event>
12    1  0.1980523E-007  0.1467672E+04  0.7818608E-02  0.8906240E-01
          2   -1    0    0  501    0  0.00000000000E+00  0.00000000000E+00  0.71573718209E+03  0.71573718209E+03  0.00000000000E+00 0. -1.
         -2   -1    0    0    0  501 -0.00000000000E+00 -0.00000000000E+00 -0.75239243448E+03  0.75239243448E+03  0.00000000000E+00 0.  1.
         23    2    1    2    0    0 -0.13469742026E+03  0.42212912844E+03 -0.11199093854E+03  0.46611085300E+03  0.91547587959E+02 0.  0.
        254    2    1    2    0    0  0.13469742026E+03 -0.42212912844E+03  0.75335686157E+02  0.10020187636E+04  0.89556113183E+03 0.  0.
        -24    2    4    4    0    0 -0.24750213426E+03 -0.41671608467E+03 -0.19341382232E+03  0.52768828863E+03  0.78335315179E+02 0.  0.
         24    2    4    4    0    0  0.38219955453E+03 -0.54130437777E+01  0.26874950848E+03  0.47433047495E+03  0.81592282933E+02 0.  0.
         13    1    3    3    0    0 -0.49975180058E+02  0.11378661021E+03  0.80824219017E+01  0.12454010129E+03  0.00000000000E+00 0. -1.
        -13    1    3    3    0    0 -0.84722240206E+02  0.30834251823E+03 -0.12007336044E+03  0.34157075171E+03  0.00000000000E+00 0.  1.
          4    1    6    6  502    0  0.17438728982E+03 -0.42649557841E+02  0.13108490312E+03  0.22229071834E+03  0.00000000000E+00 0. -1.
          1    1    5    5  503    0 -0.12940123526E+03 -0.19829976564E+03 -0.13515765623E+03  0.27264458325E+03  0.00000000000E+00 0. -1.
         -2    1    5    5    0  503 -0.11810089901E+03 -0.21841631903E+03 -0.58256166090E+02  0.25504370538E+03  0.00000000000E+00 0.  1.
         -3    1    6    6    0  502  0.20781226471E+03  0.37236514063E+02  0.13766460536E+03  0.25203975661E+03  0.00000000000E+00 0.  1.
<mgrwt>
<rscale>  0 0.14676720E+04</rscale>
<asrwt>0</asrwt>
<pdfrwt beam="1">  1        2 0.11011341E+00 0.14676720E+04</pdfrwt>
<pdfrwt beam="2">  1       -2 0.11575268E+00 0.14676720E+04</pdfrwt>
<totfact> 0.22384987E+01</totfact>
</mgrwt>
</event>
<event>
12    1  0.1980523E-007  0.3988423E+04  0.7818608E-02  0.8006886E-01
          1   -1    0    0  501    0  0.00000000000E+00  0.00000000000E+00  0.33739864470E+04  0.33739864470E+04  0.00000000000E+00 0. -1.
         -1   -1    0    0    0  501 -0.00000000000E+00 -0.00000000000E+00 -0.11786883711E+04  0.11786883711E+04  0.00000000000E+00 0.  1.
         23    2    1    2    0    0 -0.15379837266E+04  0.10908613129E+04  0.12356121610E+04  0.22561660419E+04  0.90418190308E+02 0.  0.
        254    2    1    2    0    0  0.15379837266E+04 -0.10908613129E+04  0.95968591483E+03  0.22965087761E+04  0.89307511240E+03 0.  0.
        -24    2    4    4    0    0  0.40703936389E+03 -0.61043701940E+03  0.74176527111E+03  0.10461077859E+04  0.76232433779E+02 0.  0.
         24    2    4    4    0    0  0.11309443627E+04 -0.48042429347E+03  0.21792064372E+03  0.12504009902E+04  0.78553013532E+02 0.  0.
         13    1    3    3    0    0 -0.39763511932E+03  0.33114753579E+03  0.33323459334E+03  0.61548165917E+03  0.00000000000E+00 0. -1.
        -13    1    3    3    0    0 -0.11403486073E+04  0.75971377707E+03  0.90237756770E+03  0.16406843828E+04  0.00000000000E+00 0.  1.
          2    1    6    6  502    0  0.39621688214E+03 -0.20933798050E+03  0.77814723295E+02  0.45482451444E+03  0.00000000000E+00 0. -1.
          3    1    5    5  503    0  0.20403212919E+03 -0.26467316689E+03  0.29451526873E+03  0.44544386687E+03  0.00000000000E+00 0. -1.
         -4    1    5    5    0  503  0.20300723470E+03 -0.34576385251E+03  0.44725000238E+03  0.60066391907E+03  0.00000000000E+00 0.  1.
         -1    1    6    6    0  502  0.73472748058E+03 -0.27108631296E+03  0.14010592042E+03  0.79557647573E+03  0.00000000000E+00 0.  1.
<mgrwt>
<rscale>  0 0.39884225E+04</rscale>
<asrwt>0</asrwt>
<pdfrwt beam="1">  1        1 0.51907483E+00 0.39884225E+04</pdfrwt>
<pdfrwt beam="2">  1       -1 0.18133667E+00 0.39884225E+04</pdfrwt>
<totfact> 0.49911285E-02</totfact>
</mgrwt>
</event>
<event>
12    1  0.1980523E-007  0.2405673E+04  0.7818608E-02  0.8437383E-01
          2   -1    0    0  501    0  0.00000000000E+00  0.00000000000E+00  0.14050039453E+04  0.14050039453E+04  0.00000000000E+00 0. -1.
         -2   -1    0    0    0  501 -0.00000000000E+00 -0.00000000000E+00 -0.10297593951E+04  0.10297593951E+04  0.00000000000E+00 0.  1.
         23    2    1    2    0    0  0.10101468089E+04 -0.22648980601E+02 -0.43321910794E+02  0.10188540354E+04  0.12360099391E+03 0.  0.
        254    2    1    2    0    0 -0.10101468089E+04  0.22648980601E+02  0.41856646096E+03  0.14159093050E+04  0.89927288738E+03 0.  0.
        -24    2    4    4    0    0 -0.71023225182E+03  0.42791868674E+03  0.17608272290E+03  0.85079115119E+03  0.72775020793E+02 0.  0.
         24    2    4    4    0    0 -0.29991455708E+03 -0.40526970614E+03  0.24248373806E+03  0.56511815384E+03  0.79799049535E+02 0.  0.
         11    1    3    3    0    0  0.31672259506E+03 -0.58848724436E+02 -0.38793420749E+02  0.32447080621E+03  0.00000000000E+00 0. -1.
        -11    1    3    3    0    0  0.69342421384E+03  0.36199743835E+02 -0.45284900453E+01  0.69438322922E+03  0.00000000000E+00 0.  1.
          2    1    6    6  502    0 -0.22028672951E+03 -0.34957899347E+03  0.19227128267E+03  0.45574111292E+03  0.00000000000E+00 0. -1.
          1    1    5    5  503    0 -0.57452143055E+03  0.32230650267E+03  0.11768869753E+03  0.66918382030E+03  0.00000000000E+00 0. -1.
         -2    1    5    5    0  503 -0.13571082127E+03  0.10561218408E+03  0.58394025368E+02  0.18160733089E+03  0.00000000000E+00 0.  1.
         -1    1    6    6    0  502 -0.79627827574E+02 -0.55690712676E+02  0.50212455391E+02  0.10937704091E+03  0.00000000000E+00 0.  1.
<mgrwt>
<rscale>  0 0.24056733E+04</rscale>
<asrwt>0</asrwt>
<pdfrwt beam="1">  1        2 0.21615445E+00 0.24056733E+04</pdfrwt>
<pdfrwt beam="2">  1       -2 0.15842452E+00 0.24056733E+04</pdfrwt>
<totfact> 0.33439645E+00</totfact>
</mgrwt>
</event>
<event>
12    1  0.1980523E-007  0.3564529E+04  0.7818608E-02  0.8098666E-01
          1   -1    0    0  501    0  0.00000000000E+00  0.00000000000E+00  0.40713884074E+04  0.40713884074E+04  0.00000000000E+00 0. -1.
         -1   -1    0    0    0  501 -0.00000000000E+00 -0.00000000000E+00 -0.78019231979E+03  0.78019231979E+03  0.00000000000E+00 0.  1.
         23    2    1    2    0    0  0.12743273488E+04 -0.95625248155E+03  0.87308807987E+03  0.18189879421E+04  0.90029649650E+02 0.  0.
        254    2    1    2    0    0 -0.12743273488E+04  0.95625248155E+03  0.24181080077E+04  0.30325927851E+04  0.90057962610E+03 0.  0.
        -24    2    4    4    0    0 -0.27699221180E+03 -0.13213334216E+03  0.68324847289E+03  0.75320987653E+03  0.79452733669E+02 0.  0.
         24    2    4    4    0    0 -0.99733513698E+03  0.10883858237E+04  0.17348595348E+04  0.22793829086E+04  0.81165027038E+02 0.  0.
         13    1    3    3    0    0  0.36095141867E+03 -0.31728982004E+03  0.28371578480E+03  0.55808010454E+03  0.00000000000E+00 0. -1.
        -13    1    3    3    0    0  0.91337593012E+03 -0.63896266151E+03  0.58937229507E+03  0.12609078375E+04  0.00000000000E+00 0.  1.
          4    1    6    6  502    0 -0.52296314218E+03  0.61200097008E+03  0.90014626164E+03  0.12076004835E+04  0.00000000000E+00 0. -1.
          1    1    5    5  503    0 -0.65931473302E+02  0.36728708407E+01  0.14277223130E+03  0.15730339851E+03  0.00000000000E+00 0. -1.
         -2    1    5    5    0  503 -0.21106073850E+03 -0.13580621300E+03  0.54047624159E+03  0.59590647802E+03  0.00000000000E+00 0.  1.
         -3    1    6    6    0  502 -0.47437199480E+03  0.47638485363E+03  0.83471327316E+03  0.10717824250E+04  0.00000000000E+00 0.  1.
<mgrwt>
<rscale>  0 0.35645286E+04</rscale>
<asrwt>0</asrwt>
<pdfrwt beam="1">  1        1 0.62636744E+00 0.35645286E+04</pdfrwt>
<pdfrwt beam="2">  1       -1 0.12002959E+00 0.35645286E+04</pdfrwt>
<totfact> 0.41505398E-02</totfact>
</mgrwt>
</event>
<event>
12    1  0.1980523E-007  0.1774119E+04  0.7818608E-02  0.8720185E-01
          1   -1    0    0  501    0  0.00000000000E+00  0.00000000000E+00  0.89767215979E+03  0.89767215979E+03  0.00000000000E+00 0. -1.
         -1   -1    0    0    0  501 -0.00000000000E+00 -0.00000000000E+00 -0.87657219206E+03  0.87657219206E+03  0.00000000000E+00 0.  1.
         23    2    1    2    0    0 -0.59107474927E+02 -0.14523268708E+03  0.64344700640E+03  0.66806975485E+03  0.87789067163E+02 0.  0.
        254    2    1    2    0    0  0.59107474927E+02  0.14523268708E+03 -0.62234703867E+03  0.11061745970E+04  0.90095514624E+03 0.  0.
        -24    2    4    4    0    0 -0.16130204742E+03 -0.45014340185E+02  0.17288036412E+03  0.25575598563E+03  0.86480417222E+02 0.  0.
         24    2    4    4    0    0  0.22040952235E+03  0.19024702726E+03 -0.79522740279E+03  0.85041861138E+03  0.77787553699E+02 0.  0.
         13    1    3    3    0    0 -0.67320380082E+02 -0.12888223707E+03  0.43162373209E+03  0.45545769365E+03  0.00000000000E+00 0. -1.
        -13    1    3    3    0    0  0.82129051553E+01 -0.16350450010E+02  0.21182327431E+03  0.21261206120E+03  0.00000000000E+00 0.  1.
          2    1    6    6  502    0  0.64887084664E+02  0.25077356970E+02 -0.12807068233E+03  0.14574397847E+03  0.00000000000E+00 0. -1.
          3    1    5    5  503    0  0.22236806650E+01  0.18111567084E+01  0.39488310314E+02  0.39592318646E+02  0.00000000000E+00 0. -1.
         -4    1    5    5    0  503 -0.16352572808E+03 -0.46825496894E+02  0.13339205380E+03  0.21616366698E+03  0.00000000000E+00 0.  1.
         -1    1    6    6    0  502  0.15552243768E+03  0.16516967029E+03 -0.66715672046E+03  0.70467463290E+03  0.00000000000E+00 0.  1.
<mgrwt>
<rscale>  0 0.17741189E+04</rscale>
<asrwt>0</asrwt>
<pdfrwt beam="1">  1        1 0.13810341E+00 0.17741189E+04</pdfrwt>
<pdfrwt beam="2">  1       -1 0.13485726E+00 0.17741189E+04</pdfrwt>
<totfact> 0.79847153E+00</totfact>
</mgrwt>
</event>
<event>
12    1  0.1980523E-007  0.1740257E+04  0.7818608E-02  0.8738732E-01
          2   -1    0    0  501    0  0.00000000000E+00  0.00000000000E+00  0.16077495416E+04  0.16077495416E+04  0.00000000000E+00 0. -1.
         -2   -1    0    0    0  501 -0.00000000000E+00 -0.00000000000E+00 -0.47092142423E+03  0.47092142423E+03  0.00000000000E+00 0.  1.
         23    2    1    2    0    0 -0.25110865042E+03 -0.40112665744E+03 -0.84553170635E+02  0.48881017646E+03  0.88475987293E+02 0.  0.
        254    2    1    2    0    0  0.25110865042E+03  0.40112665744E+03  0.12213812880E+04  0.15898607894E+04  0.90106988034E+03 0.  0.
        -24    2    4    4    0    0  0.82019579313E+02  0.36825140301E+03  0.33638680171E+02  0.38703136256E+03  0.79532431035E+02 0.  0.
         24    2    4    4    0    0  0.16908907110E+03  0.32875254422E+02  0.11877426078E+04  0.12028294268E+04  0.79963936956E+02 0.  0.
         11    1    3    3    0    0 -0.20334470808E+03 -0.26788537462E+03 -0.32057262735E+02  0.33784510110E+03  0.00000000000E+00 0. -1.
        -11    1    3    3    0    0 -0.47763942334E+02 -0.13324128281E+03 -0.52495907900E+02  0.15096507536E+03  0.00000000000E+00 0.  1.
          2    1    6    6  502    0  0.12120749111E+03  0.55220358622E+02  0.94958220502E+03  0.95887794218E+03  0.00000000000E+00 0. -1.
          3    1    5    5  503    0  0.50712939281E+01  0.20472419875E+03  0.14668919120E+02  0.20531169661E+03  0.00000000000E+00 0. -1.
         -4    1    5    5    0  503  0.76948285385E+02  0.16352720426E+03  0.18969761051E+02  0.18171966595E+03  0.00000000000E+00 0.  1.
         -1    1    6    6    0  502  0.47881579997E+02 -0.22345104199E+02  0.23816040281E+03  0.24395148463E+03  0.00000000000E+00 0.  1.
<mgrwt>
<rscale>  0 0.17402571E+04</rscale>
<asrwt>0</asrwt>
<pdfrwt beam="1">  1        2 0.24734608E+00 0.17402571E+04</pdfrwt>
<pdfrwt beam="2">  1       -2 0.72449451E-01 0.17402571E+04</pdfrwt>
<totfact> 0.18051473E+01</totfact>
</mgrwt>
</event>
<event>
12    1  0.1980523E-007  0.2604610E+04  0.7818608E-02  0.8366637E-01
         -2   -1    0    0    0  501 -0.00000000000E+00  0.00000000000E+00  0.10050660842E+04  0.10050660842E+04  0.00000000000E+00 0.  1.
          2   -1    0    0  501    0  0.00000000000E+00 -0.00000000000E+00 -0.16874492103E+04  0.16874492103E+04  0.00000000000E+00 0. -1.
         23    2    1    2    0    0 -0.92460134520E+03 -0.43815576353E+03  0.22986568211E+03  0.10524995462E+04  0.89715897065E+02 0.  0.
        254    2    1    2    0    0  0.92460134520E+03  0.43815576353E+03 -0.91224880824E+03  0.16400157483E+04  0.90032530005E+03 0.  0.
        -24    2    4    4    0    0  0.46887508520E+03 -0.89290169142E+02 -0.79198597668E+03  0.92809247441E+03  0.79355365103E+02 0.  0.
         24    2    4    4    0    0  0.45572626000E+03  0.52744593268E+03 -0.12026283156E+03  0.71192327390E+03  0.80535478643E+02 0.  0.
         13    1    3    3    0    0 -0.64880919965E+03 -0.27577813208E+03  0.18881405680E+03  0.72983402478E+03  0.00000000000E+00 0.  1.
        -13    1    3    3    0    0 -0.27579214555E+03 -0.16237763146E+03  0.41051625307E+02  0.32266552138E+03  0.00000000000E+00 0. -1.
          4    1    6    6  502    0  0.45693398871E+03  0.51221541714E+03 -0.11716091142E+03  0.69633324117E+03  0.00000000000E+00 0. -1.
          1    1    5    5  503    0  0.44152206136E+03 -0.66213386652E+02 -0.71099779225E+03  0.83954976257E+03  0.00000000000E+00 0. -1.
         -2    1    5    5    0  503  0.27353023838E+02 -0.23076782491E+02 -0.80988184430E+02  0.88542711842E+02  0.00000000000E+00 0.  1.
         -3    1    6    6    0  502 -0.12077287067E+01  0.15230515535E+02 -0.31019201441E+01  0.15590032735E+02  0.00000000000E+00 0.  1.
<mgrwt>
<rscale>  0 0.26046097E+04</rscale>
<asrwt>0</asrwt>
<pdfrwt beam="1">  1        2 0.25960757E+00 0.26046097E+04</pdfrwt>
<pdfrwt beam="2">  1       -2 0.15462555E+00 0.26046097E+04</pdfrwt>
<totfact> 0.24352960E+00</totfact>
</mgrwt>
</event>
<event>
12    1  0.1980523E-007  0.2819882E+04  0.7818608E-02  0.8297122E-01
         -1   -1    0    0    0  501 -0.00000000000E+00  0.00000000000E+00  0.21735978600E+04  0.21735978600E+04  0.00000000000E+00 0. -1.
          1   -1    0    0  501    0  0.00000000000E+00 -0.00000000000E+00 -0.91458198908E+03  0.91458198908E+03  0.00000000000E+00 0.  1.
         23    2    1    2    0    0  0.10481376510E+04 -0.21323401131E+03  0.13044470664E+04  0.16915369113E+04  0.12511472429E+03 0.  0.
        254    2    1    2    0    0 -0.10481376510E+04  0.21323401131E+03 -0.45431195457E+02  0.13966429378E+04  0.89693155992E+03 0.  0.
        -24    2    4    4    0    0 -0.10368051808E+04  0.23551727319E+02  0.21786189381E+03  0.10625869688E+04  0.78151101788E+02 0.  0.
         24    2    4    4    0    0 -0.11332470204E+02  0.18968228399E+03 -0.26329308927E+03  0.33405596900E+03  0.78500610367E+02 0.  0.
         13    1    3    3    0    0  0.10258559383E+04 -0.21401288132E+03  0.12981978871E+04  0.16683823523E+04  0.00000000000E+00 0.  1.
        -13    1    3    3    0    0  0.22281712679E+02  0.77887001472E+00  0.62491793025E+01  0.23154558954E+02  0.00000000000E+00 0. -1.
          2    1    6    6  502    0  0.12084575089E+02  0.11514408624E+03 -0.99800109015E+02  0.15285371866E+03  0.00000000000E+00 0. -1.
          3    1    5    5  503    0 -0.42215520296E+03  0.46682526690E+01  0.49888984364E+02  0.42511847611E+03  0.00000000000E+00 0. -1.
         -4    1    5    5    0  503 -0.61464997783E+03  0.18883474650E+02  0.16797290945E+03  0.63746849269E+03  0.00000000000E+00 0.  1.
         -1    1    6    6    0  502 -0.23417045293E+02  0.74538197754E+02 -0.16349298026E+03  0.18120225034E+03  0.00000000000E+00 0.  1.
<mgrwt>
<rscale>  0 0.28198819E+04</rscale>
<asrwt>0</asrwt>
<pdfrwt beam="1">  1        1 0.14070492E+00 0.28198819E+04</pdfrwt>
<pdfrwt beam="2">  1       -1 0.33439967E+00 0.28198819E+04</pdfrwt>
<totfact> 0.30133618E-01</totfact>
</mgrwt>
</event>
<event>
12    1  0.1980523E-007  0.1665970E+04  0.7818608E-02  0.8781015E-01
         -2   -1    0    0    0  501 -0.00000000000E+00  0.00000000000E+00  0.45832016529E+03  0.45832016529E+03  0.00000000000E+00 0.  1.
          2   -1    0    0  501    0  0.00000000000E+00 -0.00000000000E+00 -0.15139285272E+04  0.15139285272E+04  0.00000000000E+00 0. -1.
         23    2    1    2    0    0  0.19658975868E+03 -0.24754661894E+02 -0.10285812849E+04  0.10512870942E+04  0.89245549991E+02 0.  0.
        254    2    1    2    0    0 -0.19658975868E+03  0.24754661894E+02 -0.27027077030E+02  0.92096159835E+03  0.89898802898E+03 0.  0.
        -24    2    4    4    0    0  0.12123718266E+03 -0.36001565557E+03  0.96600669692E+02  0.40037436395E+03  0.81597887302E+02 0.  0.
         24    2    4    4    0    0 -0.31782694135E+03  0.38477031746E+03 -0.12362774672E+03  0.52058723440E+03  0.81639984177E+02 0.  0.
         13    1    3    3    0    0  0.11070480002E+03  0.27387436973E+02 -0.46208591340E+03  0.47595064430E+03  0.00000000000E+00 0. -1.
        -13    1    3    3    0    0  0.85884958658E+02 -0.52142098867E+02 -0.56649537153E+03  0.57533644988E+03  0.00000000000E+00 0.  1.
          2    1    6    6  502    0 -0.25084353572E+03  0.33620722478E+03 -0.79928592526E+02  0.42702032424E+03  0.00000000000E+00 0. -1.
          1    1    5    5  503    0  0.48457175054E+02 -0.23136016315E+03  0.30098144150E+02  0.23828873491E+03  0.00000000000E+00 0. -1.
         -2    1    5    5    0  503  0.72780007610E+02 -0.12865549242E+03  0.66502525542E+02  0.16208562904E+03  0.00000000000E+00 0.  1.
         -1    1    6    6    0  502 -0.66983405629E+02  0.48563092675E+02 -0.43699154196E+02  0.93566910162E+02  0.00000000000E+00 0.  1.
<mgrwt>
<rscale>  0 0.16659700E+04</rscale>
<asrwt>0</asrwt>
<pdfrwt beam="1">  1        2 0.23291208E+00 0.16659700E+04</pdfrwt>
<pdfrwt beam="2">  1       -2 0.70510796E-01 0.16659700E+04</pdfrwt>
<totfact> 0.21758516E+01</totfact>
</mgrwt>
</event>
<event>
12    1  0.1980523E-007  0.2496629E+04  0.7818608E-02  0.8404187E-01
         -1   -1    0    0    0  501 -0.00000000000E+00  0.00000000000E+00  0.11705228383E+04  0.11705228383E+04  0.00000000000E+00 0.  1.
          1   -1    0    0  501    0  0.00000000000E+00 -0.00000000000E+00 -0.13312760664E+04  0.13312760664E+04  0.00000000000E+00 0. -1.
         23    2    1    2    0    0 -0.63128282342E+03  0.50023141341E+03  0.66531233368E+03  0.10483893000E+04  0.87921288051E+02 0.  0.
        254    2    1    2    0    0  0.63128282342E+03 -0.50023141341E+03 -0.82606556174E+03  0.14534096048E+04  0.88389235589E+03 0.  0.
        -24    2    4    4    0    0  0.12161839224E+03 -0.45982153623E+02 -0.74588188132E+03  0.76147878133E+03  0.81269685260E+02 0.  0.
         24    2    4    4    0    0  0.50966443118E+03 -0.45424925979E+03 -0.80183680419E+02  0.69193082343E+03  0.78984931368E+02 0.  0.
         13    1    3    3    0    0 -0.66931367374E+02  0.71202518387E+02  0.50437207801E+02  0.10997053466E+03  0.00000000000E+00 0. -1.
        -13    1    3    3    0    0 -0.56435145605E+03  0.42902889502E+03  0.61487512588E+03  0.93841876533E+03  0.00000000000E+00 0.  1.
          4    1    6    6  502    0  0.27391576331E+01  0.30410130084E+01 -0.25564638709E+01  0.48255830922E+01  0.00000000000E+00 0. -1.
          3    1    5    5  503    0  0.42768409430E+02  0.77803990801E+01 -0.10675780481E+03  0.11526881774E+03  0.00000000000E+00 0. -1.
         -4    1    5    5    0  503  0.78849982812E+02 -0.53762552703E+02 -0.63912407651E+03  0.64620996359E+03  0.00000000000E+00 0.  1.
         -3    1    6    6    0  502  0.50692527355E+03 -0.45729027280E+03 -0.77627216548E+02  0.68710524034E+03  0.00000000000E+00 0.  1.
<mgrwt>
<rscale>  0 0.24966290E+04</rscale>
<asrwt>0</asrwt>
<pdfrwt beam="1">  1        1 0.20481170E+00 0.24966290E+04</pdfrwt>
<pdfrwt beam="2">  1       -1 0.18008044E+00 0.24966290E+04</pdfrwt>
<totfact> 0.15870869E+00</totfact>
</mgrwt>
</event>
<event>
12    1  0.1980523E-007  0.4172252E+04  0.7818608E-02  0.7970672E-01
          1   -1    0    0  501    0  0.00000000000E+00  0.00000000000E+00  0.48982416155E+04  0.48982416155E+04  0.00000000000E+00 0. -1.
         -1   -1    0    0    0  501 -0.00000000000E+00 -0.00000000000E+00 -0.88846595225E+03  0.88846595225E+03  0.00000000000E+00 0.  1.
         23    2    1    2    0    0 -0.83132481385E+03 -0.16065321920E+04  0.76860202777E+03  0.19675115533E+04  0.91137287645E+02 0.  0.
        254    2    1    2    0    0  0.83132481385E+03  0.16065321920E+04  0.32411736355E+04  0.38191960144E+04  0.89944706993E+03 0.  0.
        -24    2    4    4    0    0  0.86135054517E+03  0.10743945477E+04  0.28047280709E+04  0.31255841734E+04  0.80798930608E+02 0.  0.
         24    2    4    4    0    0 -0.30025731313E+02  0.53213764431E+03  0.43644556453E+03  0.69361184109E+03  0.80874212621E+02 0.  0.
         13    1    3    3    0    0 -0.79249852132E+03 -0.14818063642E+04  0.70708186704E+03  0.18231206142E+04  0.00000000000E+00 0.  1.
        -13    1    3    3    0    0 -0.38826292535E+02 -0.12472582782E+03  0.61520160726E+02  0.14439093909E+03  0.00000000000E+00 0. -1.
          2    1    6    6  502    0 -0.53170227632E+02  0.24175887898E+03  0.19001866342E+03  0.31206012421E+03  0.00000000000E+00 0. -1.
          3    1    5    5  503    0  0.61111068733E+02  0.50809943288E+02  0.14021426426E+03  0.16117150170E+03  0.00000000000E+00 0. -1.
         -4    1    5    5    0  503  0.80023947643E+03  0.10235846044E+04  0.26645138067E+04  0.29644126717E+04  0.00000000000E+00 0.  1.
         -1    1    6    6    0  502  0.23144496319E+02  0.29037876533E+03  0.24642690111E+03  0.38155171688E+03  0.00000000000E+00 0.  1.
<mgrwt>
<rscale>  0 0.41722516E+04</rscale>
<asrwt>0</asrwt>
<pdfrwt beam="1">  1        1 0.75357562E+00 0.41722516E+04</pdfrwt>
<pdfrwt beam="2">  1       -1 0.13668707E+00 0.41722516E+04</pdfrwt>
<totfact> 0.39491392E-03</totfact>
</mgrwt>
</event>
<event>
12    1  0.1980523E-007  0.1444815E+04  0.7818608E-02  0.8922003E-01
          2   -1    0    0  501    0  0.00000000000E+00  0.00000000000E+00  0.53543407508E+03  0.53543407508E+03  0.00000000000E+00 0. -1.
         -2   -1    0    0    0  501 -0.00000000000E+00 -0.00000000000E+00 -0.97467215556E+03  0.97467215556E+03  0.00000000000E+00 0.  1.
         23    2    1    2    0    0  0.18670232497E+03 -0.27644733065E+02 -0.54537383435E+03  0.58444325179E+03  0.92300086431E+02 0.  0.
        254    2    1    2    0    0 -0.18670232497E+03  0.27644733065E+02  0.10613575387E+03  0.92566297885E+03  0.89998064576E+03 0.  0.
        -24    2    4    4    0    0 -0.11801721889E+03 -0.33514851644E+03 -0.22093935067E+03  0.42640334866E+03  0.82176803608E+02 0.  0.
         24    2    4    4    0    0 -0.68685106082E+02  0.36279324950E+03  0.32707510454E+03  0.49925963019E+03  0.77106865095E+02 0.  0.
         13    1    3    3    0    0  0.14366858375E+03 -0.49378479503E+02 -0.32354045365E+03  0.35743156176E+03  0.00000000000E+00 0. -1.
        -13    1    3    3    0    0  0.43033741220E+02  0.21733746438E+02 -0.22183338070E+03  0.22701169003E+03  0.00000000000E+00 0.  1.
          4    1    6    6  502    0 -0.53903923152E+02  0.34986190714E+03  0.32299234653E+03  0.47920042041E+03  0.00000000000E+00 0. -1.
          1    1    5    5  503    0 -0.51800339295E+02 -0.25732337177E+03 -0.16150410197E+03  0.30819177108E+03  0.00000000000E+00 0. -1.
         -2    1    5    5    0  503 -0.66216879596E+02 -0.77825144670E+02 -0.59435248700E+02  0.11821157758E+03  0.00000000000E+00 0.  1.
         -3    1    6    6    0  502 -0.14781182930E+02  0.12931342363E+02  0.40827580035E+01  0.20059209781E+02  0.00000000000E+00 0.  1.
<mgrwt>
<rscale>  0 0.14448151E+04</rscale>
<asrwt>0</asrwt>
<pdfrwt beam="1">  1        2 0.82374474E-01 0.14448151E+04</pdfrwt>
<pdfrwt beam="2">  1       -2 0.14994956E+00 0.14448151E+04</pdfrwt>
<totfact> 0.16519637E+01</totfact>
</mgrwt>
</event>
<event>
12    1  0.1980523E-007  0.1226193E+04  0.7818608E-02  0.9090234E-01
         -2   -1    0    0    0  501 -0.00000000000E+00  0.00000000000E+00  0.43543675892E+03  0.43543675892E+03  0.00000000000E+00 0.  1.
          2   -1    0    0  501    0  0.00000000000E+00 -0.00000000000E+00 -0.86324231218E+03  0.86324231218E+03  0.00000000000E+00 0. -1.
         23    2    1    2    0    0 -0.22373226899E+02 -0.16445007213E+03  0.12481417540E+03  0.22713115246E+03  0.92008665502E+02 0.  0.
        254    2    1    2    0    0  0.22373226899E+02  0.16445007213E+03 -0.55261972867E+03  0.10715479186E+04  0.90292967053E+03 0.  0.
        -24    2    4    4    0    0  0.39244539361E+03  0.16580895809E+03 -0.54040965203E+03  0.69255753418E+03  0.78021462410E+02 0.  0.
         24    2    4    4    0    0 -0.37007216671E+03 -0.13588859510E+01 -0.12210076639E+02  0.37899038447E+03  0.80804519711E+02 0.  0.
         11    1    3    3    0    0 -0.13663629368E+02 -0.83754433754E+02  0.84836756456E+01  0.85284656846E+02  0.00000000000E+00 0. -1.
        -11    1    3    3    0    0 -0.87095975312E+01 -0.80695638381E+02  0.11633049976E+03  0.14184649561E+03  0.00000000000E+00 0.  1.
          4    1    6    6  502    0 -0.36509773321E+03  0.20335526004E+01 -0.23853999285E+02  0.36588181618E+03  0.00000000000E+00 0. -1.
          1    1    5    5  503    0  0.23807680851E+03  0.72365149395E+02 -0.26705194926E+03  0.36501236308E+03  0.00000000000E+00 0. -1.
         -2    1    5    5    0  503  0.15436858510E+03  0.93443808690E+02 -0.27335770277E+03  0.32754517110E+03  0.00000000000E+00 0.  1.
         -3    1    6    6    0  502 -0.49744334987E+01 -0.33924385514E+01  0.11643922646E+02  0.13108568287E+02  0.00000000000E+00 0.  1.
<mgrwt>
<rscale>  0 0.12261932E+04</rscale>
<asrwt>0</asrwt>
<pdfrwt beam="1">  1        2 0.13280651E+00 0.12261932E+04</pdfrwt>
<pdfrwt beam="2">  1       -2 0.66990271E-01 0.12261932E+04</pdfrwt>
<totfact> 0.62630868E+01</totfact>
</mgrwt>
</event>
<event>
12    1  0.1980523E-007  0.1766811E+04  0.7818608E-02  0.8724151E-01
         -2   -1    0    0    0  501 -0.00000000000E+00  0.00000000000E+00  0.12832976346E+04  0.12832976346E+04  0.00000000000E+00 0.  1.
          2   -1    0    0  501    0  0.00000000000E+00 -0.00000000000E+00 -0.60812522842E+03  0.60812522842E+03  0.00000000000E+00 0. -1.
         23    2    1    2    0    0  0.11861744501E+03 -0.18590510184E+03 -0.40480042719E+03  0.46969401396E+03  0.90101474711E+02 0.  0.
        254    2    1    2    0    0 -0.11861744501E+03  0.18590510184E+03  0.10799728334E+04  0.14217288491E+04  0.89796480682E+03 0.  0.
        -24    2    4    4    0    0  0.68356668653E+02  0.51379834721E+03  0.74432497898E+03  0.91053816354E+03  0.79991856972E+02 0.  0.
         24    2    4    4    0    0 -0.18697411366E+03 -0.32789324536E+03  0.33564785439E+03  0.51119068552E+03  0.78632914707E+02 0.  0.
         11    1    3    3    0    0  0.90944373086E+02 -0.14357372036E+03 -0.37315465722E+03  0.41003498678E+03  0.00000000000E+00 0. -1.
        -11    1    3    3    0    0  0.27673071924E+02 -0.42331381478E+02 -0.31645769969E+02  0.59659027184E+02  0.00000000000E+00 0.  1.
          2    1    6    6  502    0 -0.14898802770E+03 -0.20616069020E+03  0.18925212389E+03  0.31704262959E+03  0.00000000000E+00 0. -1.
          1    1    5    5  503    0  0.77220334525E+02  0.39476884616E+03  0.61173964486E+03  0.73214125349E+03  0.00000000000E+00 0. -1.
         -4    1    5    5    0  503 -0.88636658720E+01  0.11902950104E+03  0.13258533412E+03  0.17839691005E+03  0.00000000000E+00 0.  1.
         -3    1    6    6    0  502 -0.37986085962E+02 -0.12173255517E+03  0.14639573050E+03  0.19414805594E+03  0.00000000000E+00 0.  1.
<mgrwt>
<rscale>  0 0.17668114E+04</rscale>
<asrwt>0</asrwt>
<pdfrwt beam="1">  1        2 0.93557728E-01 0.17668114E+04</pdfrwt>
<pdfrwt beam="2">  1       -2 0.19743040E+00 0.17668114E+04</pdfrwt>
<totfact> 0.63815010E+00</totfact>
</mgrwt>
</event>
<event>
12    1  0.1980523E-007  0.1765085E+04  0.7818608E-02  0.8725091E-01
          2   -1    0    0  501    0  0.00000000000E+00  0.00000000000E+00  0.13538116257E+04  0.13538116257E+04  0.00000000000E+00 0.  1.
         -2   -1    0    0    0  501 -0.00000000000E+00 -0.00000000000E+00 -0.57532438446E+03  0.57532438446E+03  0.00000000000E+00 0. -1.
         23    2    1    2    0    0  0.51954158240E+03 -0.41780667141E+02  0.71305322309E+03  0.88795421107E+03  0.91371231820E+02 0.  0.
        254    2    1    2    0    0 -0.51954158240E+03  0.41780667141E+02  0.65434018098E+02  0.10411817990E+04  0.89894874601E+03 0.  0.
        -24    2    4    4    0    0 -0.13129668919E+03 -0.60281515795E+02 -0.39353690903E+03  0.42640388406E+03  0.77950573014E+02 0.  0.
         24    2    4    4    0    0 -0.38824489321E+03  0.10206218294E+03  0.45897092712E+03  0.61477791499E+03  0.78401444643E+02 0.  0.
         11    1    3    3    0    0  0.62471693147E+02  0.90471314299E+01  0.47636043564E+02  0.79080690931E+02  0.00000000000E+00 0. -1.
        -11    1    3    3    0    0  0.45706988926E+03 -0.50827798571E+02  0.66541717953E+03  0.80887352014E+03  0.00000000000E+00 0.  1.
          4    1    6    6  502    0 -0.79001845362E+02  0.53203343993E+02  0.92317346798E+02  0.13264380838E+03  0.00000000000E+00 0. -1.
          3    1    5    5  503    0  0.44921175326E+01  0.39769442539E+01 -0.97348153083E+00  0.60780648085E+01  0.00000000000E+00 0. -1.
         -4    1    5    5    0  503 -0.13578880673E+03 -0.64258460049E+02 -0.39256342750E+03  0.42032581925E+03  0.00000000000E+00 0.  1.
         -3    1    6    6    0  502 -0.30924304785E+03  0.48858838943E+02  0.36665358033E+03  0.48213410660E+03  0.00000000000E+00 0.  1.
<mgrwt>
<rscale>  0 0.17650845E+04</rscale>
<asrwt>0</asrwt>
<pdfrwt beam="1">  1        2 0.20827871E+00 0.17650845E+04</pdfrwt>
<pdfrwt beam="2">  1       -2 0.88511444E-01 0.17650845E+04</pdfrwt>
<totfact> 0.15995696E+01</totfact>
</mgrwt>
</event>
<event>
12    1  0.1980523E-007  0.2252359E+04  0.7818608E-02  0.8496946E-01
         -1   -1    0    0    0  501 -0.00000000000E+00  0.00000000000E+00  0.94221829336E+03  0.94221829336E+03  0.00000000000E+00 0.  1.
          1   -1    0    0  501    0  0.00000000000E+00 -0.00000000000E+00 -0.13460574133E+04  0.13460574133E+04  0.00000000000E+00 0. -1.
         23    2    1    2    0    0 -0.76921490229E+03 -0.54062478779E+03 -0.25781890873E+03  0.97960005179E+03  0.95806809261E+02 0.  0.
        254    2    1    2    0    0  0.76921490229E+03  0.54062478779E+03 -0.14602021122E+03  0.13086756549E+04  0.89852286588E+03 0.  0.
        -24    2    4    4    0    0  0.71000219090E+03  0.35293054119E+02 -0.29483392619E+03  0.77369213636E+03  0.79522116927E+02 0.  0.
         24    2    4    4    0    0  0.59212711390E+02  0.50533173367E+03  0.14881371497E+03  0.53498351852E+03  0.72080074100E+02 0.  0.
         11    1    3    3    0    0 -0.66897286418E+03 -0.42745317839E+03 -0.21758908635E+03  0.82315607464E+03  0.00000000000E+00 0. -1.
        -11    1    3    3    0    0 -0.10024203811E+03 -0.11317160939E+03 -0.40229822385E+02  0.15644397715E+03  0.00000000000E+00 0.  1.
          2    1    6    6  502    0  0.74009309659E+02  0.43276407028E+03  0.13742680985E+03  0.46005243887E+03  0.00000000000E+00 0. -1.
          3    1    5    5  503    0  0.69411076252E+02  0.10030847647E+02 -0.55312830248E+02  0.89319788407E+02  0.00000000000E+00 0. -1.
         -4    1    5    5    0  503  0.64059111464E+03  0.25262206472E+02 -0.23952109594E+03  0.68437234795E+03  0.00000000000E+00 0.  1.
         -1    1    6    6    0  502 -0.14796598268E+02  0.72567663385E+02  0.11386905127E+02  0.74931079652E+02  0.00000000000E+00 0.  1.
<mgrwt>
<rscale>  0 0.22523587E+04</rscale>
<asrwt>0</asrwt>
<pdfrwt beam="1">  1        1 0.20708576E+00 0.22523587E+04</pdfrwt>
<pdfrwt beam="2">  1       -1 0.14495666E+00 0.22523587E+04</pdfrwt>
<totfact> 0.29110210E+00</totfact>
</mgrwt>
</event>
<event>
12    1  0.1980523E-007  0.2376587E+04  0.7818608E-02  0.8448322E-01
          2   -1    0    0  501    0  0.00000000000E+00  0.00000000000E+00  0.14879404792E+04  0.14879404792E+04  0.00000000000E+00 0. -1.
         -2   -1    0    0    0  501 -0.00000000000E+00 -0.00000000000E+00 -0.94899016947E+03  0.94899016947E+03  0.00000000000E+00 0.  1.
         23    2    1    2    0    0  0.21862382147E+03  0.15423085847E+03  0.12374372407E+04  0.12693217476E+04  0.91341344849E+02 0.  0.
        254    2    1    2    0    0 -0.21862382147E+03 -0.15423085847E+03 -0.69848693094E+03  0.11676089011E+04  0.89657293075E+03 0.  0.
        -24    2    4    4    0    0 -0.55451126007E+03 -0.13405734585E+03 -0.33620441661E+03  0.66703102247E+03  0.80267463374E+02 0.  0.
         24    2    4    4    0    0  0.33588743860E+03 -0.20173512624E+02 -0.36228251433E+03  0.50057787860E+03  0.78116901747E+02 0.  0.
         11    1    3    3    0    0  0.39875732940E+02  0.75226445272E+02  0.30737650829E+03  0.31895048204E+03  0.00000000000E+00 0.  1.
        -11    1    3    3    0    0  0.17874808853E+03  0.79004413199E+02  0.93006073237E+03  0.95037126554E+03  0.00000000000E+00 0. -1.
          2    1    6    6  502    0  0.12519078656E+03  0.30079771273E+02 -0.14031571177E+03  0.19043640579E+03  0.00000000000E+00 0. -1.
          1    1    5    5  503    0 -0.54500779905E+03 -0.12680239927E+03 -0.31357473889E+03  0.64143703226E+03  0.00000000000E+00 0. -1.
         -2    1    5    5    0  503 -0.95034610141E+01 -0.72549465718E+01 -0.22629677723E+02  0.25593990210E+02  0.00000000000E+00 0.  1.
         -1    1    6    6    0  502  0.21069665204E+03 -0.50253283897E+02 -0.22196680255E+03  0.31014147281E+03  0.00000000000E+00 0.  1.
<mgrwt>
<rscale>  0 0.23765865E+04</rscale>
<asrwt>0</asrwt>
<pdfrwt beam="1">  1        2 0.22891392E+00 0.23765865E+04</pdfrwt>
<pdfrwt beam="2">  1       -2 0.14599849E+00 0.23765865E+04</pdfrwt>
<totfact> 0.37393806E+00</totfact>
</mgrwt>
</event>
<event>
12    1  0.1980523E-007  0.1211484E+04  0.7818608E-02  0.9102863E-01
         -4   -1    0    0    0  501 -0.00000000000E+00  0.00000000000E+00  0.59198377078E+03  0.59198377078E+03  0.00000000000E+00 0.  1.
          4   -1    0    0  501    0  0.00000000000E+00 -0.00000000000E+00 -0.61982023758E+03  0.61982023758E+03  0.00000000000E+00 0. -1.
         23    2    1    2    0    0 -0.91257375133E+02  0.21958031855E+03 -0.11369184488E+03  0.27844808838E+03  0.89800208927E+02 0.  0.
        254    2    1    2    0    0  0.91257375133E+02 -0.21958031855E+03  0.85855378085E+02  0.93335591997E+03  0.89846463625E+03 0.  0.
        -24    2    4    4    0    0 -0.19935620017E+02 -0.47581442255E+03 -0.20272412613E+03  0.52371487359E+03  0.79896206733E+02 0.  0.
         24    2    4    4    0    0  0.11119299515E+03  0.25623410401E+03  0.28857950422E+03  0.40964104638E+03  0.80671298490E+02 0.  0.
         11    1    3    3    0    0 -0.14677888728E+02  0.14988879512E+03 -0.65251256423E+02  0.16413353644E+03  0.00000000000E+00 0.  1.
        -11    1    3    3    0    0 -0.76579486405E+02  0.69691523422E+02 -0.48440588460E+02  0.11431455194E+03  0.00000000000E+00 0. -1.
          2    1    6    6  502    0  0.81017592128E+02  0.24219191084E+03  0.23798703973E+03  0.34908251602E+03  0.00000000000E+00 0. -1.
          1    1    5    5  503    0 -0.32588010338E+02 -0.39965343111E+03 -0.14161601147E+03  0.42525279320E+03  0.00000000000E+00 0. -1.
         -2    1    5    5    0  503  0.12652390321E+02 -0.76160991437E+02 -0.61108114660E+02  0.98462080390E+02  0.00000000000E+00 0.  1.
         -1    1    6    6    0  502  0.30175403022E+02  0.14042193161E+02  0.50592464493E+02  0.60558530363E+02  0.00000000000E+00 0.  1.
<mgrwt>
<rscale>  0 0.12114842E+04</rscale>
<asrwt>0</asrwt>
<pdfrwt beam="1">  1        4 0.95356960E-01 0.12114842E+04</pdfrwt>
<pdfrwt beam="2">  1       -4 0.91074426E-01 0.12114842E+04</pdfrwt>
<totfact> 0.18710043E+00</totfact>
</mgrwt>
</event>
<event>
12    1  0.1980523E-007  0.2180104E+04  0.7818608E-02  0.8526755E-01
         -2   -1    0    0    0  501 -0.00000000000E+00  0.00000000000E+00  0.67455699072E+03  0.67455699072E+03  0.00000000000E+00 0.  1.
          2   -1    0    0  501    0  0.00000000000E+00 -0.00000000000E+00 -0.17614718096E+04  0.17614718096E+04  0.00000000000E+00 0. -1.
         23    2    1    2    0    0 -0.33353880772E+03 -0.41262673641E+03  0.36196112018E+03  0.64869795638E+03  0.91017724815E+02 0.  0.
        254    2    1    2    0    0  0.33353880772E+03  0.41262673641E+03 -0.14488759391E+04  0.17873308440E+04  0.90210925010E+03 0.  0.
        -24    2    4    4    0    0  0.42192306279E+03  0.38148390564E+03 -0.15337273665E+04  0.16378916286E+04  0.82585173960E+02 0.  0.
         24    2    4    4    0    0 -0.88384255067E+02  0.31142830766E+02  0.84851427416E+02  0.14943921542E+03  0.79691040388E+02 0.  0.
         11    1    3    3    0    0 -0.14527017908E+03 -0.23051464168E+03  0.22355347734E+03  0.35244372912E+03  0.00000000000E+00 0. -1.
        -11    1    3    3    0    0 -0.18826862864E+03 -0.18211209472E+03  0.13840764284E+03  0.29625422726E+03  0.00000000000E+00 0.  1.
          2    1    6    6  502    0 -0.20021783200E+02  0.40588525982E+02  0.76697678617E+01  0.45903437594E+02  0.00000000000E+00 0. -1.
          3    1    5    5  503    0  0.13508570267E+03  0.73047554083E+02 -0.40610960667E+03  0.43417635225E+03  0.00000000000E+00 0. -1.
         -4    1    5    5    0  503  0.28683736012E+03  0.30843635156E+03 -0.11276177599E+04  0.12037152763E+04  0.00000000000E+00 0.  1.
         -1    1    6    6    0  502 -0.68362471867E+02 -0.94456952162E+01  0.77181659555E+02  0.10353577782E+03  0.00000000000E+00 0.  1.
<mgrwt>
<rscale>  0 0.21801038E+04</rscale>
<asrwt>0</asrwt>
<pdfrwt beam="1">  1        2 0.27099566E+00 0.21801038E+04</pdfrwt>
<pdfrwt beam="2">  1       -2 0.10377800E+00 0.21801038E+04</pdfrwt>
<totfact> 0.62744408E+00</totfact>
</mgrwt>
</event>
<event>
12    1  0.1980523E-007  0.1568533E+04  0.7818608E-02  0.8840116E-01
          1   -1    0    0  501    0  0.00000000000E+00  0.00000000000E+00  0.98718491641E+03  0.98718491641E+03  0.00000000000E+00 0. -1.
         -1   -1    0    0    0  501 -0.00000000000E+00 -0.00000000000E+00 -0.62305880560E+03  0.62305880560E+03  0.00000000000E+00 0.  1.
         23    2    1    2    0    0  0.33174913864E+03  0.18697470569E+03 -0.24162765096E+03  0.46107889173E+03  0.95879044299E+02 0.  0.
        254    2    1    2    0    0 -0.33174913864E+03 -0.18697470569E+03  0.60575376177E+03  0.11491648303E+04  0.89923587323E+03 0.  0.
        -24    2    4    4    0    0 -0.39941819607E+03 -0.19689391978E+01  0.77621927328E+03  0.87660975862E+03  0.79934577103E+02 0.  0.
         24    2    4    4    0    0  0.67669057432E+02 -0.18500576649E+03 -0.17046551152E+03  0.27255507166E+03  0.80134521289E+02 0.  0.
         11    1    3    3    0    0  0.17722181106E+03  0.69324841656E+02 -0.16644152752E+03  0.25281670449E+03  0.00000000000E+00 0.  1.
        -11    1    3    3    0    0  0.15452732758E+03  0.11764986403E+03 -0.75186123433E+02  0.20826218724E+03  0.00000000000E+00 0. -1.
          2    1    6    6  502    0 -0.16018533350E+02 -0.54843538772E+02 -0.35839276478E+02  0.67445243674E+02  0.00000000000E+00 0. -1.
          1    1    5    5  503    0  0.27934420144E+01  0.17715554668E+01  0.13690621771E+01  0.35799522768E+01  0.00000000000E+00 0. -1.
         -2    1    5    5    0  503 -0.40221163809E+03 -0.37404946645E+01  0.77485021111E+03  0.87302980635E+03  0.00000000000E+00 0.  1.
         -1    1    6    6    0  502  0.83687590782E+02 -0.13016222772E+03 -0.13462623504E+03  0.20510982798E+03  0.00000000000E+00 0.  1.
<mgrwt>
<rscale>  0 0.15685334E+04</rscale>
<asrwt>0</asrwt>
<pdfrwt beam="1">  1        1 0.15187460E+00 0.15685334E+04</pdfrwt>
<pdfrwt beam="2">  1       -1 0.95855201E-01 0.15685334E+04</pdfrwt>
<totfact> 0.15636361E+01</totfact>
</mgrwt>
</event>
<event>
12    1  0.1980523E-007  0.2131310E+04  0.7818608E-02  0.8547575E-01
          3   -1    0    0  501    0  0.00000000000E+00  0.00000000000E+00  0.16185915455E+04  0.16185915455E+04  0.00000000000E+00 0. -1.
         -3   -1    0    0    0  501 -0.00000000000E+00 -0.00000000000E+00 -0.70161058386E+03  0.70161058386E+03  0.00000000000E+00 0.  1.
         23    2    1    2    0    0 -0.59263718444E+03  0.41635824378E+03 -0.14189179539E+03  0.74386759298E+03  0.92912295939E+02 0.  0.
        254    2    1    2    0    0  0.59263718444E+03 -0.41635824378E+03  0.10588727571E+04  0.15763345364E+04  0.91599456086E+03 0.  0.
        -24    2    4    4    0    0 -0.85196269282E+02  0.14665253847E+03  0.48588566343E+03  0.52217471635E+03  0.88409191410E+02 0.  0.
         24    2    4    4    0    0  0.67783345373E+03 -0.56301078225E+03  0.57298709363E+03  0.10541598201E+04  0.80618762543E+02 0.  0.
         11    1    3    3    0    0 -0.48418740907E+02  0.11782311436E+02  0.47808858549E+01  0.50060505424E+02  0.00000000000E+00 0. -1.
        -11    1    3    3    0    0 -0.54421844354E+03  0.40457593235E+03 -0.14667268124E+03  0.69380708756E+03  0.00000000000E+00 0.  1.
          4    1    6    6  502    0 -0.97995415189E+00 -0.77891439601E+01  0.43176483912E+01  0.89595290837E+01  0.00000000000E+00 0. -1.
          3    1    5    5  503    0 -0.52567063459E+01  0.90477591611E+02  0.18860628781E+03  0.20925142616E+03  0.00000000000E+00 0. -1.
         -4    1    5    5    0  503 -0.79939562936E+02  0.56174946856E+02  0.29727937562E+03  0.31292329019E+03  0.00000000000E+00 0.  1.
         -3    1    6    6    0  502  0.67881340788E+03 -0.55522163829E+03  0.56866944524E+03  0.10452002910E+04  0.00000000000E+00 0.  1.
<mgrwt>
<rscale>  0 0.21313104E+04</rscale>
<asrwt>0</asrwt>
<pdfrwt beam="1">  1        3 0.24901408E+00 0.21313104E+04</pdfrwt>
<pdfrwt beam="2">  1       -3 0.10794009E+00 0.21313104E+04</pdfrwt>
<totfact> 0.13106581E-01</totfact>
</mgrwt>
</event>
<event>
12    1  0.1980523E-007  0.2235098E+04  0.7818608E-02  0.8503960E-01
          2   -1    0    0  501    0  0.00000000000E+00  0.00000000000E+00  0.50595312984E+03  0.50595312984E+03  0.00000000000E+00 0. -1.
         -2   -1    0    0    0  501 -0.00000000000E+00 -0.00000000000E+00 -0.24684426451E+04  0.24684426451E+04  0.00000000000E+00 0.  1.
         23    2    1    2    0    0  0.37115551714E+03  0.84574130093E+03 -0.93654019703E+03  0.13184476519E+04  0.90343257483E+02 0.  0.
        254    2    1    2    0    0 -0.37115551714E+03 -0.84574130093E+03 -0.10259493182E+04  0.16559481230E+04  0.91463512760E+03 0.  0.
        -24    2    4    4    0    0  0.19569463598E+03 -0.62769782581E+03 -0.37113756424E+03  0.75929373694E+03  0.80516683246E+02 0.  0.
         24    2    4    4    0    0 -0.56685015312E+03 -0.21804347512E+03 -0.65481175400E+03  0.89665438611E+03  0.79678113834E+02 0.  0.
         11    1    3    3    0    0  0.13531613289E+03  0.30322940953E+03 -0.39949243471E+03  0.51947351810E+03  0.00000000000E+00 0.  1.
        -11    1    3    3    0    0  0.23583938425E+03  0.54251189140E+03 -0.53704776233E+03  0.79897413381E+03  0.00000000000E+00 0. -1.
          4    1    6    6  502    0 -0.45685387153E+03 -0.14823535801E+03 -0.54334215816E+03  0.72519644382E+03  0.00000000000E+00 0. -1.
          3    1    5    5  503    0  0.70260773168E+02 -0.27132491587E+03 -0.11556055290E+03  0.30316336785E+03  0.00000000000E+00 0. -1.
         -4    1    5    5    0  503  0.12543386281E+03 -0.35637290994E+03 -0.25557701134E+03  0.45613036909E+03  0.00000000000E+00 0.  1.
         -3    1    6    6    0  502 -0.10999628159E+03 -0.69808117111E+02 -0.11146959584E+03  0.17145794229E+03  0.00000000000E+00 0.  1.
<mgrwt>
<rscale>  0 0.22350985E+04</rscale>
<asrwt>0</asrwt>
<pdfrwt beam="1">  1        2 0.77838943E-01 0.22350985E+04</pdfrwt>
<pdfrwt beam="2">  1       -2 0.37976041E+00 0.22350985E+04</pdfrwt>
<totfact> 0.55702881E-01</totfact>
</mgrwt>
</event>
<event>
12    1  0.1980523E-007  0.2816558E+04  0.7818608E-02  0.8298146E-01
          1   -1    0    0  501    0  0.00000000000E+00  0.00000000000E+00  0.53471623422E+04  0.53471623422E+04  0.00000000000E+00 0. -1.
         -1   -1    0    0    0  501 -0.00000000000E+00 -0.00000000000E+00 -0.37089752432E+03  0.37089752432E+03  0.00000000000E+00 0.  1.
         23    2    1    2    0    0  0.52056168456E+03  0.85328580810E+03  0.38022516282E+04  0.39325349740E+04  0.92912538946E+02 0.  0.
        254    2    1    2    0    0 -0.52056168456E+03 -0.85328580810E+03  0.11740131897E+04  0.17855248925E+04  0.90039493253E+03 0.  0.
        -24    2    4    4    0    0 -0.76612813285E+03 -0.69622078474E+03  0.96718532556E+03  0.14190323465E+04  0.80806246596E+02 0.  0.
         24    2    4    4    0    0  0.24556644830E+03 -0.15706502336E+03  0.20682786415E+03  0.36649254600E+03  0.81035293503E+02 0.  0.
         11    1    3    3    0    0  0.19541083259E+03  0.39846897089E+03  0.17681682636E+04  0.18230145152E+04  0.00000000000E+00 0. -1.
        -11    1    3    3    0    0  0.32515085197E+03  0.45481683721E+03  0.20340833646E+04  0.21095204588E+04  0.00000000000E+00 0.  1.
          4    1    6    6  502    0  0.17699441108E+03 -0.12418169168E+03  0.19168954817E+03  0.28895154780E+03  0.00000000000E+00 0. -1.
          3    1    5    5  503    0 -0.73507490820E+03 -0.65829782293E+03  0.89770782891E+03  0.13340054312E+04  0.00000000000E+00 0. -1.
         -4    1    5    5    0  503 -0.31053224652E+02 -0.37922961810E+02  0.69477496656E+02  0.85026915358E+02  0.00000000000E+00 0.  1.
         -3    1    6    6    0  502  0.68572037220E+02 -0.32883331682E+02  0.15138315984E+02  0.77540998200E+02  0.00000000000E+00 0.  1.
<mgrwt>
<rscale>  0 0.28165577E+04</rscale>
<asrwt>0</asrwt>
<pdfrwt beam="1">  1        1 0.82264030E+00 0.28165577E+04</pdfrwt>
<pdfrwt beam="2">  1       -1 0.57061161E-01 0.28165577E+04</pdfrwt>
<totfact> 0.74520347E-03</totfact>
</mgrwt>
</event>
<event>
12    1  0.1980523E-007  0.2390679E+04  0.7818608E-02  0.8443001E-01
         -2   -1    0    0    0  501 -0.00000000000E+00  0.00000000000E+00  0.74722818029E+03  0.74722818029E+03  0.00000000000E+00 0.  1.
          2   -1    0    0  501    0  0.00000000000E+00 -0.00000000000E+00 -0.19121830985E+04  0.19121830985E+04  0.00000000000E+00 0. -1.
         23    2    1    2    0    0  0.49841182932E+03  0.50303337341E+03 -0.13234560617E+04  0.15033761528E+04  0.84539831398E+02 0.  0.
        254    2    1    2    0    0 -0.49841182932E+03 -0.50303337341E+03  0.15850114351E+03  0.11560351260E+04  0.89990981419E+03 0.  0.
        -24    2    4    4    0    0  0.20222096097E+02  0.22414931365E+03  0.95486332075E+02  0.25715109719E+03  0.79732046220E+02 0.  0.
         24    2    4    4    0    0 -0.51863392541E+03 -0.72718268705E+03  0.63014811439E+02  0.89888402881E+03  0.79030512091E+02 0.  0.
         13    1    3    3    0    0  0.23777202486E+03  0.29461870541E+03 -0.73986025042E+03  0.83110102125E+03  0.00000000000E+00 0. -1.
        -13    1    3    3    0    0  0.26063980445E+03  0.20841466800E+03 -0.58359581132E+03  0.67227513154E+03  0.00000000000E+00 0.  1.
          2    1    6    6  502    0 -0.19498066573E+03 -0.33943384145E+03  0.35617455447E+02  0.39306665575E+03  0.00000000000E+00 0. -1.
          1    1    5    5  503    0 -0.30731428191E+02  0.90787633035E+02  0.42890096653E+02  0.10500654923E+03  0.00000000000E+00 0. -1.
         -2    1    5    5    0  503  0.50953524288E+02  0.13336168061E+03  0.52596235422E+02  0.15214454796E+03  0.00000000000E+00 0.  1.
         -1    1    6    6    0  502 -0.32365325968E+03 -0.38774884561E+03  0.27397355992E+02  0.50581737306E+03  0.00000000000E+00 0.  1.
<mgrwt>
<rscale>  0 0.23906795E+04</rscale>
<asrwt>0</asrwt>
<pdfrwt beam="1">  1        2 0.29418201E+00 0.23906795E+04</pdfrwt>
<pdfrwt beam="2">  1       -2 0.11495818E+00 0.23906795E+04</pdfrwt>
<totfact> 0.39706807E+00</totfact>
</mgrwt>
</event>
<event>
12    1  0.1980523E-007  0.1549863E+04  0.7818608E-02  0.8851956E-01
          2   -1    0    0  501    0  0.00000000000E+00  0.00000000000E+00  0.15859726017E+04  0.15859726017E+04  0.00000000000E+00 0. -1.
         -2   -1    0    0    0  501 -0.00000000000E+00 -0.00000000000E+00 -0.37864364612E+03  0.37864364612E+03  0.00000000000E+00 0.  1.
         23    2    1    2    0    0  0.89377597342E+02 -0.48348436695E+03  0.56960154367E+03  0.75664524275E+03  0.79502307055E+02 0.  0.
        254    2    1    2    0    0 -0.89377597342E+02  0.48348436695E+03  0.63772741186E+03  0.12079710050E+04  0.90041779699E+03 0.  0.
        -24    2    4    4    0    0 -0.39166424393E+03 -0.18558054779E+02  0.41226250333E+03  0.57443648608E+03  0.79193582523E+02 0.  0.
         24    2    4    4    0    0  0.30228664659E+03  0.50204242173E+03  0.22546490853E+03  0.63353451894E+03  0.84307483595E+02 0.  0.
         11    1    3    3    0    0  0.63077570798E+02 -0.14341552118E+03  0.16714174945E+03  0.22909202531E+03  0.00000000000E+00 0. -1.
        -11    1    3    3    0    0  0.26300026544E+02 -0.34006884577E+03  0.40245979422E+03  0.52755321744E+03  0.00000000000E+00 0.  1.
          2    1    6    6  502    0  0.14570958709E+03  0.30908825420E+03  0.10568629509E+03  0.35768201747E+03  0.00000000000E+00 0. -1.
          1    1    5    5  503    0 -0.16364231838E+03 -0.43210536524E+02  0.15137314100E+03  0.22706780187E+03  0.00000000000E+00 0. -1.
         -2    1    5    5    0  503 -0.22802192555E+03  0.24652481745E+02  0.26088936233E+03  0.34736868421E+03  0.00000000000E+00 0.  1.
         -1    1    6    6    0  502  0.15657705950E+03  0.19295416753E+03  0.11977861344E+03  0.27585250147E+03  0.00000000000E+00 0.  1.
<mgrwt>
<rscale>  0 0.15498625E+04</rscale>
<asrwt>0</asrwt>
<pdfrwt beam="1">  1        2 0.24399578E+00 0.15498625E+04</pdfrwt>
<pdfrwt beam="2">  1       -2 0.58252869E-01 0.15498625E+04</pdfrwt>
<totfact> 0.30127616E+01</totfact>
</mgrwt>
</event>
<event>
12    1  0.1980523E-007  0.1712699E+04  0.7818608E-02  0.8754154E-01
         -1   -1    0    0    0  501 -0.00000000000E+00  0.00000000000E+00  0.52340800658E+03  0.52340800658E+03  0.00000000000E+00 0.  1.
          1   -1    0    0  501    0  0.00000000000E+00 -0.00000000000E+00 -0.14010766739E+04  0.14010766739E+04  0.00000000000E+00 0. -1.
         23    2    1    2    0    0 -0.37104234754E+03 -0.48975935974E+03 -0.36081472650E+03  0.71809436673E+03  0.89081976587E+02 0.  0.
        254    2    1    2    0    0  0.37104234754E+03  0.48975935974E+03 -0.51685394086E+03  0.12063903138E+04  0.90039043691E+03 0.  0.
        -24    2    4    4    0    0  0.44525886755E+03  0.38673189891E+03 -0.73304746258E+03  0.94418615742E+03  0.79447446131E+02 0.  0.
         24    2    4    4    0    0 -0.74216520015E+02  0.10302746083E+03  0.21619352172E+03  0.26220415636E+03  0.76737417532E+02 0.  0.
         13    1    3    3    0    0 -0.16238553625E+03 -0.28764898342E+03 -0.18736724982E+03  0.37975977453E+03  0.00000000000E+00 0.  1.
        -13    1    3    3    0    0 -0.20865681129E+03 -0.20211037632E+03 -0.17344747667E+03  0.33833459220E+03  0.00000000000E+00 0. -1.
          2    1    6    6  502    0 -0.28901163656E+02  0.39329613890E+02  0.15624805656E+03  0.16369346648E+03  0.00000000000E+00 0. -1.
          1    1    5    5  503    0  0.13415712414E+03  0.16572791244E+03 -0.27607230379E+03  0.34882630611E+03  0.00000000000E+00 0. -1.
         -2    1    5    5    0  503  0.31110174342E+03  0.22100398647E+03 -0.45697515879E+03  0.59535985130E+03  0.00000000000E+00 0.  1.
         -1    1    6    6    0  502 -0.45315356359E+02  0.63697846942E+02  0.59945465158E+02  0.98510689877E+02  0.00000000000E+00 0.  1.
<mgrwt>
<rscale>  0 0.17126993E+04</rscale>
<asrwt>0</asrwt>
<pdfrwt beam="1">  1        1 0.21555026E+00 0.17126993E+04</pdfrwt>
<pdfrwt beam="2">  1       -1 0.80524308E-01 0.17126993E+04</pdfrwt>
<totfact> 0.11215015E+01</totfact>
</mgrwt>
</event>
<event>
12    1  0.2320771E-007  0.2123882E+04  0.7818608E-02  0.8550795E-01
         -1   -1    0    0    0  501 -0.00000000000E+00  0.00000000000E+00  0.13752213723E+04  0.13752213723E+04  0.00000000000E+00 0.  1.
          1   -1    0    0  501    0  0.00000000000E+00 -0.00000000000E+00 -0.82002723614E+03  0.82002723614E+03  0.00000000000E+00 0. -1.
         23    2    1    2    0    0  0.64043915799E+03 -0.44965993346E+03 -0.13794825368E+03  0.79982997918E+03  0.91334024600E+02 0.  0.
        254    2    1    2    0    0 -0.64043915799E+03  0.44965993346E+03  0.69314238982E+03  0.13954186292E+04  0.92433241175E+03 0.  0.
        -24    2    4    4    0    0 -0.19492162915E+03  0.66762885686E+03  0.48588398546E+03  0.85210480883E+03  0.79225159383E+02 0.  0.
         24    2    4    4    0    0 -0.44551752885E+03 -0.21796892340E+03  0.20725840436E+03  0.54331382042E+03  0.78978105809E+02 0.  0.
         13    1    3    3    0    0  0.28191204822E+03 -0.15062437555E+03 -0.33117533870E+02  0.32133919228E+03  0.00000000000E+00 0.  1.
        -13    1    3    3    0    0  0.35852710977E+03 -0.29903555791E+03 -0.10483071981E+03  0.47849078690E+03  0.00000000000E+00 0. -1.
          2    1    6    6  502    0 -0.47040715839E+02 -0.49750020706E+02  0.41791404397E+02  0.80214805294E+02  0.00000000000E+00 0. -1.
          3    1    5    5  503    0 -0.65648472105E+02  0.11798237935E+03  0.83445466643E+02  0.15872211449E+03  0.00000000000E+00 0. -1.
         -4    1    5    5    0  503 -0.12927315704E+03  0.54964647751E+03  0.40243851881E+03  0.69338269433E+03  0.00000000000E+00 0.  1.
         -1    1    6    6    0  502 -0.39847681301E+03 -0.16821890269E+03  0.16546699997E+03  0.46309901512E+03  0.00000000000E+00 0.  1.
<mgrwt>
<rscale>  0 0.21238823E+04</rscale>
<asrwt>0</asrwt>
<pdfrwt beam="1">  1        1 0.12615804E+00 0.21238823E+04</pdfrwt>
<pdfrwt beam="2">  1       -1 0.21157252E+00 0.21238823E+04</pdfrwt>
<totfact> 0.24452651E+00</totfact>
</mgrwt>
</event>
<event>
12    1  0.1980523E-007  0.2096513E+04  0.7818608E-02  0.8562781E-01
         -4   -1    0    0    0  501 -0.00000000000E+00  0.00000000000E+00  0.11197791828E+04  0.11197791828E+04  0.00000000000E+00 0.  1.
          4   -1    0    0  501    0  0.00000000000E+00 -0.00000000000E+00 -0.98130258962E+03  0.98130258962E+03  0.00000000000E+00 0. -1.
         23    2    1    2    0    0  0.14026007902E+03 -0.77151178834E+03 -0.27781667257E+03  0.83681116452E+03  0.90374178835E+02 0.  0.
        254    2    1    2    0    0 -0.14026007902E+03  0.77151178834E+03  0.41629326575E+03  0.12642706079E+04  0.90009819329E+03 0.  0.
        -24    2    4    4    0    0  0.25261925494E+03  0.36931884812E+03 -0.13333321316E+03  0.47395295862E+03  0.81490868894E+02 0.  0.
         24    2    4    4    0    0 -0.39287933396E+03  0.40219294022E+03  0.54962647891E+03  0.79031764927E+03  0.79996176225E+02 0.  0.
         13    1    3    3    0    0  0.10151696512E+03 -0.49337546183E+03 -0.22216038315E+03  0.55052727124E+03  0.00000000000E+00 0. -1.
        -13    1    3    3    0    0  0.38743113896E+02 -0.27813632651E+03 -0.55656289422E+02  0.28628389328E+03  0.00000000000E+00 0.  1.
          2    1    6    6  502    0 -0.91087650231E+01 -0.20172728369E+01  0.16895140055E+02  0.19299863922E+02  0.00000000000E+00 0. -1.
          3    1    5    5  503    0  0.13324460913E+02 -0.10982625591E+01 -0.76521468656E+01  0.15404635372E+02  0.00000000000E+00 0. -1.
         -4    1    5    5    0  503  0.23929479402E+03  0.37041711068E+03 -0.12568106630E+03  0.45854832325E+03  0.00000000000E+00 0.  1.
         -1    1    6    6    0  502 -0.38377056893E+03  0.40421021306E+03  0.53273133886E+03  0.77101778535E+03  0.00000000000E+00 0.  1.
<mgrwt>
<rscale>  0 0.20965135E+04</rscale>
<asrwt>0</asrwt>
<pdfrwt beam="1">  1        4 0.15096963E+00 0.20965135E+04</pdfrwt>
<pdfrwt beam="2">  1       -4 0.17227372E+00 0.20965135E+04</pdfrwt>
<totfact> 0.10996367E-01</totfact>
</mgrwt>
</event>
<event>
12    1  0.1980523E-007  0.2601567E+04  0.7818608E-02  0.8367669E-01
          2   -1    0    0  501    0  0.00000000000E+00  0.00000000000E+00  0.14354250008E+04  0.14354250008E+04  0.00000000000E+00 0. -1.
         -2   -1    0    0    0  501 -0.00000000000E+00 -0.00000000000E+00 -0.11787709716E+04  0.11787709716E+04  0.00000000000E+00 0.  1.
         23    2    1    2    0    0  0.56165601565E+03 -0.92004516985E+03 -0.26822307156E+03  0.11147009750E+04  0.93134596133E+02 0.  0.
        254    2    1    2    0    0 -0.56165601565E+03  0.92004516985E+03  0.52487710079E+03  0.14994949974E+04  0.90058241262E+03 0.  0.
        -24    2    4    4    0    0 -0.94771985864E+02  0.88511639201E+03  0.49869256380E+03  0.10235461942E+04  0.80868917521E+02 0.  0.
         24    2    4    4    0    0 -0.46688402979E+03  0.34928777831E+02  0.26184536997E+02  0.47594880320E+03  0.81491818604E+02 0.  0.
         11    1    3    3    0    0  0.49724900612E+03 -0.74756572154E+03 -0.22270454557E+03  0.92504507821E+03  0.00000000000E+00 0.  1.
        -11    1    3    3    0    0  0.64407009535E+02 -0.17247944831E+03 -0.45518525997E+02  0.18965589676E+03  0.00000000000E+00 0. -1.
          4    1    6    6  502    0 -0.30034935079E+03 -0.13014647479E+02 -0.34514465759E+00  0.30063139006E+03  0.00000000000E+00 0. -1.
          3    1    5    5  503    0 -0.77219335351E+02  0.37397152475E+03  0.23073054658E+03  0.44615480744E+03  0.00000000000E+00 0. -1.
         -4    1    5    5    0  503 -0.17552650513E+02  0.51114486726E+03  0.26796201722E+03  0.57739138679E+03  0.00000000000E+00 0.  1.
         -3    1    6    6    0  502 -0.16653467900E+03  0.47943425311E+02  0.26529681655E+02  0.17531741314E+03  0.00000000000E+00 0.  1.
<mgrwt>
<rscale>  0 0.26015667E+04</rscale>
<asrwt>0</asrwt>
<pdfrwt beam="1">  1        2 0.22083461E+00 0.26015667E+04</pdfrwt>
<pdfrwt beam="2">  1       -2 0.18134938E+00 0.26015667E+04</pdfrwt>
<totfact> 0.21682971E+00</totfact>
</mgrwt>
</event>
<event>
12    1  0.1980523E-007  0.1470436E+04  0.7818608E-02  0.8904354E-01
         -2   -1    0    0    0  501 -0.00000000000E+00  0.00000000000E+00  0.50158117867E+03  0.50158117867E+03  0.00000000000E+00 0.  1.
          2   -1    0    0  501    0  0.00000000000E+00 -0.00000000000E+00 -0.10776833464E+04  0.10776833464E+04  0.00000000000E+00 0. -1.
         23    2    1    2    0    0 -0.27358049171E+03  0.20361940277E+03  0.14252500403E+03  0.38129471815E+03  0.93622319410E+02 0.  0.
        254    2    1    2    0    0  0.27358049171E+03 -0.20361940277E+03 -0.71862717179E+03  0.11979698069E+04  0.89576754780E+03 0.  0.
        -24    2    4    4    0    0  0.14175022561E+03  0.70967122363E+01  0.19171314367E+03  0.25097731052E+03  0.78052489764E+02 0.  0.
         24    2    4    4    0    0  0.13183026609E+03 -0.21071611501E+03 -0.91034031545E+03  0.94699249642E+03  0.79339763994E+02 0.  0.
         11    1    3    3    0    0 -0.13825117845E+03  0.66646425690E+02  0.24416046019E+02  0.15540681356E+03  0.00000000000E+00 0. -1.
        -11    1    3    3    0    0 -0.13532931326E+03  0.13697297708E+03  0.11810895801E+03  0.22588790459E+03  0.00000000000E+00 0.  1.
          2    1    6    6  502    0  0.43964624020E+02 -0.20204458438E+02 -0.23019860254E+03  0.23522862266E+03  0.00000000000E+00 0. -1.
          1    1    5    5  503    0  0.36749998340E+02 -0.29956294425E+02  0.35911041502E+02  0.59477263348E+02  0.00000000000E+00 0. -1.
         -2    1    5    5    0  503  0.10500022727E+03  0.37053006661E+02  0.15580210216E+03  0.19150004718E+03  0.00000000000E+00 0.  1.
         -1    1    6    6    0  502  0.87865642074E+02 -0.19051165657E+03 -0.68014171291E+03  0.71176387376E+03  0.00000000000E+00 0.  1.
<mgrwt>
<rscale>  0 0.14704362E+04</rscale>
<asrwt>0</asrwt>
<pdfrwt beam="1">  1        2 0.16579744E+00 0.14704362E+04</pdfrwt>
<pdfrwt beam="2">  1       -2 0.77166335E-01 0.14704362E+04</pdfrwt>
<totfact> 0.32647782E+01</totfact>
</mgrwt>
</event>
<event>
12    1  0.1980523E-007  0.2212050E+04  0.7818608E-02  0.8513429E-01
         -1   -1    0    0    0  501 -0.00000000000E+00  0.00000000000E+00  0.14046191155E+04  0.14046191155E+04  0.00000000000E+00 0.  1.
          1   -1    0    0  501    0  0.00000000000E+00 -0.00000000000E+00 -0.87090603374E+03  0.87090603374E+03  0.00000000000E+00 0. -1.
         23    2    1    2    0    0  0.85164966372E+03  0.17083052718E+03 -0.92082485897E+02  0.87783424794E+03  0.87313022543E+02 0.  0.
        254    2    1    2    0    0 -0.85164966372E+03 -0.17083052718E+03  0.62579556766E+03  0.13976909013E+04  0.89857083434E+03 0.  0.
        -24    2    4    4    0    0 -0.57405086325E+02 -0.24407179263E+03 -0.13219040078E+03  0.29441820125E+03  0.79632852989E+02 0.  0.
         24    2    4    4    0    0 -0.79424457740E+03  0.73241265451E+02  0.75798596844E+03  0.11032727000E+04  0.80493419644E+02 0.  0.
         11    1    3    3    0    0  0.51948757955E+03  0.90634649962E+02 -0.15032376320E+02  0.52754900949E+03  0.00000000000E+00 0.  1.
        -11    1    3    3    0    0  0.33216208417E+03  0.80195877220E+02 -0.77050109577E+02  0.35028523844E+03  0.00000000000E+00 0. -1.
          2    1    6    6  502    0 -0.77505893638E+03  0.73055789456E+02  0.75379667398E+03  0.10836341306E+04  0.00000000000E+00 0. -1.
          3    1    5    5  503    0  0.79455781986E+01 -0.13004491737E+03 -0.80760284562E+02  0.15328743037E+03  0.00000000000E+00 0. -1.
         -4    1    5    5    0  503 -0.65350664523E+02 -0.11402687526E+03 -0.51430116221E+02  0.14113077088E+03  0.00000000000E+00 0.  1.
         -1    1    6    6    0  502 -0.19185641020E+02  0.18547599509E+00  0.41892944605E+01  0.19638569468E+02  0.00000000000E+00 0.  1.
<mgrwt>
<rscale>  0 0.22120500E+04</rscale>
<asrwt>0</asrwt>
<pdfrwt beam="1">  1        1 0.13398554E+00 0.22120500E+04</pdfrwt>
<pdfrwt beam="2">  1       -1 0.21609525E+00 0.22120500E+04</pdfrwt>
<totfact> 0.20478106E+00</totfact>
</mgrwt>
</event>
<event>
12    1  0.1980523E-007  0.1550724E+04  0.7818608E-02  0.8851406E-01
          1   -1    0    0  501    0  0.00000000000E+00  0.00000000000E+00  0.20776097463E+04  0.20776097463E+04  0.00000000000E+00 0. -1.
         -1   -1    0    0    0  501 -0.00000000000E+00 -0.00000000000E+00 -0.28936418520E+03  0.28936418520E+03  0.00000000000E+00 0.  1.
         23    2    1    2    0    0 -0.46742603172E+03 -0.13186848751E+03  0.83313422391E+03  0.96835278801E+03  0.87852682792E+02 0.  0.
        254    2    1    2    0    0  0.46742603172E+03  0.13186848751E+03  0.95511133721E+03  0.13986211435E+04  0.89890324477E+03 0.  0.
        -24    2    4    4    0    0  0.27208988487E+03 -0.36891976118E+03  0.55247128667E+03  0.72223465666E+03  0.79143420752E+02 0.  0.
         24    2    4    4    0    0  0.19533614684E+03  0.50078824869E+03  0.40264005054E+03  0.67638648685E+03  0.80215889925E+02 0.  0.
         11    1    3    3    0    0 -0.31162381975E+03 -0.73861781594E+02  0.62214215559E+03  0.69973268437E+03  0.00000000000E+00 0. -1.
        -11    1    3    3    0    0 -0.15580221197E+03 -0.58006705920E+02  0.21099206832E+03  0.26862010364E+03  0.00000000000E+00 0.  1.
          2    1    6    6  502    0  0.18947744949E+03  0.49876197474E+03  0.38571703072E+03  0.65836375895E+03  0.00000000000E+00 0. -1.
          1    1    5    5  503    0  0.13050115371E+03 -0.18064899075E+03  0.33011518972E+03  0.39829718485E+03  0.00000000000E+00 0. -1.
         -2    1    5    5    0  503  0.14158873117E+03 -0.18827077042E+03  0.22235609695E+03  0.32393747181E+03  0.00000000000E+00 0.  1.
         -1    1    6    6    0  502  0.58586973551E+01  0.20262739503E+01  0.16923019828E+02  0.18022727899E+02  0.00000000000E+00 0.  1.
<mgrwt>
<rscale>  0 0.15507235E+04</rscale>
<asrwt>0</asrwt>
<pdfrwt beam="1">  1        1 0.31963226E+00 0.15507235E+04</pdfrwt>
<pdfrwt beam="2">  1       -1 0.44517568E-01 0.15507235E+04</pdfrwt>
<totfact> 0.12715235E+01</totfact>
</mgrwt>
</event>
<event>
12    1  0.1980523E-007  0.2366680E+04  0.7818608E-02  0.8452085E-01
         -2   -1    0    0    0  501 -0.00000000000E+00  0.00000000000E+00  0.20842344846E+04  0.20842344846E+04  0.00000000000E+00 0.  1.
          2   -1    0    0  501    0  0.00000000000E+00 -0.00000000000E+00 -0.67185017721E+03  0.67185017721E+03  0.00000000000E+00 0. -1.
         23    2    1    2    0    0  0.85445116492E+03 -0.49623849386E+03  0.37313940299E+03  0.10628759867E+04  0.11888192915E+03 0.  0.
        254    2    1    2    0    0 -0.85445116492E+03  0.49623849386E+03  0.10392449044E+04  0.16932086750E+04  0.90032561330E+03 0.  0.
        -24    2    4    4    0    0 -0.52485163482E+03  0.74588085527E+03  0.72531871193E+03  0.11681151489E+04  0.81229788021E+02 0.  0.
         24    2    4    4    0    0 -0.32959953010E+03 -0.24964236141E+03  0.31392619244E+03  0.52509352611E+03  0.78844137450E+02 0.  0.
         13    1    3    3    0    0  0.18484175944E+03 -0.60113553368E+02  0.98351976062E+02  0.21783761504E+03  0.00000000000E+00 0.  1.
        -13    1    3    3    0    0  0.66960940548E+03 -0.43612494049E+03  0.27478742692E+03  0.84503837168E+03  0.00000000000E+00 0. -1.
          4    1    6    6  502    0 -0.15008745357E+03 -0.65973420790E+02  0.11555182045E+03  0.20057656687E+03  0.00000000000E+00 0. -1.
          1    1    5    5  503    0 -0.47626962050E+03  0.67292303615E+03  0.68395638967E+03  0.10711930297E+04  0.00000000000E+00 0. -1.
         -2    1    5    5    0  503 -0.48582014327E+02  0.72957819116E+02  0.41362322253E+02  0.96922119191E+02  0.00000000000E+00 0.  1.
         -3    1    6    6    0  502 -0.17951207653E+03 -0.18366894062E+03  0.19837437200E+03  0.32451695924E+03  0.00000000000E+00 0.  1.
<mgrwt>
<rscale>  0 0.23666798E+04</rscale>
<asrwt>0</asrwt>
<pdfrwt beam="1">  1        2 0.10336157E+00 0.23666798E+04</pdfrwt>
<pdfrwt beam="2">  1       -2 0.32065146E+00 0.23666798E+04</pdfrwt>
<totfact> 0.92349966E-01</totfact>
</mgrwt>
</event>
<event>
12    1  0.1980523E-007  0.3198162E+04  0.7818608E-02  0.8189303E-01
          1   -1    0    0  501    0  0.00000000000E+00  0.00000000000E+00  0.18014213957E+04  0.18014213957E+04  0.00000000000E+00 0. -1.
         -1   -1    0    0    0  501 -0.00000000000E+00 -0.00000000000E+00 -0.14194676609E+04  0.14194676609E+04  0.00000000000E+00 0.  1.
         23    2    1    2    0    0 -0.29882385071E+03  0.84418110960E+03  0.13537580273E+04  0.16256738264E+04  0.90648517111E+02 0.  0.
        254    2    1    2    0    0  0.29882385071E+03 -0.84418110960E+03 -0.97180429244E+03  0.15952152302E+04  0.89351586915E+03 0.  0.
        -24    2    4    4    0    0 -0.20754759632E+03 -0.19380826934E+03  0.28612141804E+02  0.29653318891E+03  0.80471283486E+02 0.  0.
         24    2    4    4    0    0  0.50637144703E+03 -0.65037284026E+03 -0.10004164342E+04  0.12986820413E+04  0.79656317126E+02 0.  0.
         13    1    3    3    0    0 -0.17509263976E+03  0.45561670237E+03  0.81506396050E+03  0.95003856326E+03  0.00000000000E+00 0.  1.
        -13    1    3    3    0    0 -0.12373121095E+03  0.38856440723E+03  0.53869406680E+03  0.67563526310E+03  0.00000000000E+00 0. -1.
          4    1    6    6  502    0  0.21785395664E+03 -0.30875114882E+03 -0.51415897296E+03  0.63808076902E+03  0.00000000000E+00 0. -1.
          3    1    5    5  503    0 -0.17395220747E+03 -0.17871637062E+03  0.49399103036E+02  0.25424237057E+03  0.00000000000E+00 0. -1.
         -4    1    5    5    0  503 -0.33595388843E+02 -0.15091898712E+02 -0.20786961232E+02  0.42290818336E+02  0.00000000000E+00 0.  1.
         -3    1    6    6    0  502  0.28851749039E+03 -0.34162169144E+03 -0.48625746129E+03  0.66060127231E+03  0.00000000000E+00 0.  1.
<mgrwt>
<rscale>  0 0.31981616E+04</rscale>
<asrwt>0</asrwt>
<pdfrwt beam="1">  1        1 0.27714175E+00 0.31981616E+04</pdfrwt>
<pdfrwt beam="2">  1       -1 0.21837964E+00 0.31981616E+04</pdfrwt>
<totfact> 0.38385505E-01</totfact>
</mgrwt>
</event>
<event>
12    1  0.1980523E-007  0.2399552E+04  0.7818608E-02  0.8439671E-01
          2   -1    0    0  501    0  0.00000000000E+00  0.00000000000E+00  0.38560512247E+04  0.38560512247E+04  0.00000000000E+00 0. -1.
         -2   -1    0    0    0  501 -0.00000000000E+00 -0.00000000000E+00 -0.37329959525E+03  0.37329959525E+03  0.00000000000E+00 0.  1.
         23    2    1    2    0    0 -0.73554147085E+03 -0.71877712582E+03  0.14695196973E+04  0.17959342020E+04  0.90717723012E+02 0.  0.
        254    2    1    2    0    0  0.73554147085E+03  0.71877712582E+03  0.20132319322E+04  0.24334166180E+04  0.90041757637E+03 0.  0.
        -24    2    4    4    0    0  0.16788732637E+03  0.52132555516E+03  0.16164679726E+04  0.17089147885E+04  0.86339787665E+02 0.  0.
         24    2    4    4    0    0  0.56765414447E+03  0.19745157066E+03  0.39676395954E+03  0.72450182946E+03  0.79138554509E+02 0.  0.
         13    1    3    3    0    0 -0.21418295179E+03 -0.16215452322E+03  0.42032436683E+03  0.49883965318E+03  0.00000000000E+00 0.  1.
        -13    1    3    3    0    0 -0.52135851906E+03 -0.55662260261E+03  0.10491953304E+04  0.12970945488E+04  0.00000000000E+00 0. -1.
          4    1    6    6  502    0  0.34882344274E+03  0.11332414803E+03  0.28658520625E+03  0.46545809390E+03  0.00000000000E+00 0. -1.
          3    1    5    5  503    0 -0.54606910428E+01  0.39539544360E+02  0.80510110560E+02  0.89861407830E+02  0.00000000000E+00 0. -1.
         -4    1    5    5    0  503  0.17334801742E+03  0.48178601080E+03  0.15359578621E+04  0.16190533807E+04  0.00000000000E+00 0.  1.
         -3    1    6    6    0  502  0.21883070173E+03  0.84127422630E+02  0.11017875329E+03  0.25904373556E+03  0.00000000000E+00 0.  1.
<mgrwt>
<rscale>  0 0.23995519E+04</rscale>
<asrwt>0</asrwt>
<pdfrwt beam="1">  1        2 0.59323862E+00 0.23995519E+04</pdfrwt>
<pdfrwt beam="2">  1       -2 0.57430710E-01 0.23995519E+04</pdfrwt>
<totfact> 0.11403234E+00</totfact>
</mgrwt>
</event>
<event>
12    1  0.1980523E-007  0.1539284E+04  0.7818608E-02  0.8858742E-01
         -2   -1    0    0    0  501 -0.00000000000E+00  0.00000000000E+00  0.22896406149E+03  0.22896406149E+03  0.00000000000E+00 0.  1.
          2   -1    0    0  501    0  0.00000000000E+00 -0.00000000000E+00 -0.25870808677E+04  0.25870808677E+04  0.00000000000E+00 0. -1.
         23    2    1    2    0    0  0.73473650837E+01 -0.31866780339E+03 -0.73304312207E+02  0.33994264895E+03  0.92651657811E+02 0.  0.
        254    2    1    2    0    0 -0.73473650837E+01  0.31866780339E+03 -0.22848124940E+04  0.24761022803E+04  0.89950609603E+03 0.  0.
        -24    2    4    4    0    0 -0.25058543149E+03  0.88413871186E+01 -0.14770621867E+03  0.30151875874E+03  0.78899976173E+02 0.  0.
         24    2    4    4    0    0  0.24323806640E+03  0.30982641627E+03 -0.21371062754E+04  0.21745835215E+04  0.80206575597E+02 0.  0.
         13    1    3    3    0    0 -0.90151259009E+01 -0.24714859866E+03 -0.17813356612E+02  0.24795366097E+03  0.00000000000E+00 0.  1.
        -13    1    3    3    0    0  0.16362490985E+02 -0.71519204726E+02 -0.55490955595E+02  0.91988987975E+02  0.00000000000E+00 0. -1.
          4    1    6    6  502    0  0.20597730393E+03  0.20508627437E+03 -0.15193020925E+04  0.15468567736E+04  0.00000000000E+00 0. -1.
          3    1    5    5  503    0 -0.80461013783E+02  0.27719876903E+02 -0.81978086637E+02  0.11816417817E+03  0.00000000000E+00 0. -1.
         -4    1    5    5    0  503 -0.17012441770E+03 -0.18878489785E+02 -0.65728132037E+02  0.18335458057E+03  0.00000000000E+00 0.  1.
         -3    1    6    6    0  502  0.37260762468E+02  0.10474014190E+03 -0.61780418287E+03  0.62772674797E+03  0.00000000000E+00 0.  1.
<mgrwt>
<rscale>  0 0.15392837E+04</rscale>
<asrwt>0</asrwt>
<pdfrwt beam="1">  1        2 0.39801244E+00 0.15392837E+04</pdfrwt>
<pdfrwt beam="2">  1       -2 0.35225240E-01 0.15392837E+04</pdfrwt>
<totfact> 0.22645697E+01</totfact>
</mgrwt>
</event>
<event>
12    1  0.1980523E-007  0.2408526E+04  0.7818608E-02  0.8436319E-01
         -2   -1    0    0    0  501 -0.00000000000E+00  0.00000000000E+00  0.76915264666E+03  0.76915264666E+03  0.00000000000E+00 0.  1.
          2   -1    0    0  501    0  0.00000000000E+00 -0.00000000000E+00 -0.18855152342E+04  0.18855152342E+04  0.00000000000E+00 0. -1.
         23    2    1    2    0    0 -0.97311989895E+03  0.10725901734E+03 -0.84856025915E+03  0.12986405719E+04  0.89140265973E+02 0.  0.
        254    2    1    2    0    0  0.97311989895E+03 -0.10725901734E+03 -0.26780232841E+03  0.13560273090E+04  0.89923586510E+03 0.  0.
        -24    2    4    4    0    0  0.71580758239E+03  0.33442017212E+03 -0.53381319369E+02  0.79590173255E+03  0.79954087365E+02 0.  0.
         24    2    4    4    0    0  0.25731231656E+03 -0.44167918946E+03 -0.21442100904E+03  0.56012557645E+03  0.80462150190E+02 0.  0.
         13    1    3    3    0    0 -0.32000827049E+03 -0.44857405170E+01 -0.25868553469E+03  0.41151381618E+03  0.00000000000E+00 0.  1.
        -13    1    3    3    0    0 -0.65311162846E+03  0.11174475786E+03 -0.58987472446E+03  0.88712675571E+03  0.00000000000E+00 0. -1.
          2    1    6    6  502    0  0.84795838872E+02 -0.19204895036E+03 -0.12251712385E+03  0.24307114033E+03  0.00000000000E+00 0. -1.
          3    1    5    5  503    0  0.48035100994E+03  0.18324196933E+03 -0.26417160406E+02  0.51479372416E+03  0.00000000000E+00 0. -1.
         -4    1    5    5    0  503  0.23545657245E+03  0.15117820279E+03 -0.26964158963E+02  0.28110800838E+03  0.00000000000E+00 0.  1.
         -1    1    6    6    0  502  0.17251647769E+03 -0.24963023910E+03 -0.91903885190E+02  0.31705443612E+03  0.00000000000E+00 0.  1.
<mgrwt>
<rscale>  0 0.24085257E+04</rscale>
<asrwt>0</asrwt>
<pdfrwt beam="1">  1        2 0.29007926E+00 0.24085257E+04</pdfrwt>
<pdfrwt beam="2">  1       -2 0.11833118E+00 0.24085257E+04</pdfrwt>
<totfact> 0.38217966E+00</totfact>
</mgrwt>
</event>
<event>
12    1  0.1980523E-007  0.2822590E+04  0.7818608E-02  0.8296289E-01
         -1   -1    0    0    0  501 -0.00000000000E+00  0.00000000000E+00  0.76468040278E+03  0.76468040278E+03  0.00000000000E+00 0.  1.
          1   -1    0    0  501    0  0.00000000000E+00 -0.00000000000E+00 -0.26046873031E+04  0.26046873031E+04  0.00000000000E+00 0. -1.
         23    2    1    2    0    0  0.43551992467E+03 -0.79799049773E+03 -0.18771728364E+04  0.20877431547E+04  0.91799688865E+02 0.  0.
        254    2    1    2    0    0 -0.43551992467E+03  0.79799049773E+03  0.37165936151E+02  0.12816245512E+04  0.90261494783E+03 0.  0.
        -24    2    4    4    0    0 -0.26849097569E+03  0.25293064166E+03 -0.40667818250E+03  0.55475373386E+03  0.79392994605E+02 0.  0.
         24    2    4    4    0    0 -0.16702894899E+03  0.54505985607E+03  0.44384411865E+03  0.72687081729E+03  0.79716164443E+02 0.  0.
         11    1    3    3    0    0  0.23790126251E+03 -0.39931896622E+03 -0.10557936004E+04  0.11535825823E+04  0.00000000000E+00 0.  1.
        -11    1    3    3    0    0  0.19761866217E+03 -0.39867153151E+03 -0.82137923601E+03  0.93416057240E+03  0.00000000000E+00 0. -1.
          2    1    6    6  502    0 -0.15316350247E+03  0.40610478059E+03  0.36072691943E+03  0.56436164089E+03  0.00000000000E+00 0. -1.
          1    1    5    5  503    0 -0.18007568304E+03  0.20321899155E+03 -0.25643132594E+03  0.37347320529E+03  0.00000000000E+00 0. -1.
         -2    1    5    5    0  503 -0.88415292650E+02  0.49711650111E+02 -0.15024685656E+03  0.18128052857E+03  0.00000000000E+00 0.  1.
         -1    1    6    6    0  502 -0.13865446520E+02  0.13895507549E+03  0.83117199217E+02  0.16250917641E+03  0.00000000000E+00 0.  1.
<mgrwt>
<rscale>  0 0.28225898E+04</rscale>
<asrwt>0</asrwt>
<pdfrwt beam="1">  1        1 0.40072113E+00 0.28225898E+04</pdfrwt>
<pdfrwt beam="2">  1       -1 0.11764314E+00 0.28225898E+04</pdfrwt>
<totfact> 0.64264240E-01</totfact>
</mgrwt>
</event>
<event>
12    1  0.1980523E-007  0.1252436E+04  0.7818608E-02  0.9068158E-01
         -2   -1    0    0    0  501 -0.00000000000E+00  0.00000000000E+00  0.35797807489E+03  0.35797807489E+03  0.00000000000E+00 0.  1.
          2   -1    0    0  501    0  0.00000000000E+00 -0.00000000000E+00 -0.10954551721E+04  0.10954551721E+04  0.00000000000E+00 0. -1.
         23    2    1    2    0    0 -0.48803157056E+02 -0.51162710860E+02 -0.50158558311E+03  0.51742914542E+03  0.10557202386E+03 0.  0.
        254    2    1    2    0    0  0.48803157056E+02  0.51162710860E+02 -0.23589151408E+03  0.93600410155E+03  0.90302796224E+03 0.  0.
        -24    2    4    4    0    0 -0.16847616980E+03  0.33297096982E+03 -0.38427943906E+03  0.54170398129E+03  0.80738030286E+02 0.  0.
         24    2    4    4    0    0  0.21727932685E+03 -0.28180825896E+03  0.14838792497E+03  0.39430012026E+03  0.82628129977E+02 0.  0.
         11    1    3    3    0    0 -0.37632980523E+02  0.10829084845E+02 -0.61848519345E+02  0.73203481111E+02  0.00000000000E+00 0.  1.
        -11    1    3    3    0    0 -0.11170176533E+02 -0.61991795705E+02 -0.43973706377E+03  0.44422566431E+03  0.00000000000E+00 0. -1.
          4    1    6    6  502    0  0.77058327252E+02 -0.11064039563E+03  0.99827854654E+02  0.16776436901E+03  0.00000000000E+00 0. -1.
          3    1    5    5  503    0 -0.35881910574E+02  0.91800967933E+02 -0.15406679845E+03  0.18289753307E+03  0.00000000000E+00 0. -1.
         -4    1    5    5    0  503 -0.13259425922E+03  0.24117000189E+03 -0.23021264061E+03  0.35880644822E+03  0.00000000000E+00 0.  1.
         -3    1    6    6    0  502  0.14022099960E+03 -0.17116786333E+03  0.48560070320E+02  0.22653575125E+03  0.00000000000E+00 0.  1.
<mgrwt>
<rscale>  0 0.12524359E+04</rscale>
<asrwt>0</asrwt>
<pdfrwt beam="1">  1        2 0.16853156E+00 0.12524359E+04</pdfrwt>
<pdfrwt beam="2">  1       -2 0.55073550E-01 0.12524359E+04</pdfrwt>
<totfact> 0.66846249E+01</totfact>
</mgrwt>
</event>
<event>
12    1  0.1980523E-007  0.2767872E+04  0.7818608E-02  0.8313313E-01
          1   -1    0    0  501    0  0.00000000000E+00  0.00000000000E+00  0.18827418790E+04  0.18827418790E+04  0.00000000000E+00 0. -1.
         -1   -1    0    0    0  501 -0.00000000000E+00 -0.00000000000E+00 -0.10172814077E+04  0.10172814077E+04  0.00000000000E+00 0.  1.
         23    2    1    2    0    0 -0.48467696676E+03  0.32964864945E+01 -0.80212534879E+03  0.94174186324E+03  0.92466387743E+02 0.  0.
        254    2    1    2    0    0  0.48467696676E+03 -0.32964864945E+01  0.16675858201E+04  0.19582814234E+04  0.90504200852E+03 0.  0.
        -24    2    4    4    0    0  0.35588984994E+03  0.41166463211E+03  0.11701764776E+04  0.12930679598E+04  0.81156670673E+02 0.  0.
         24    2    4    4    0    0  0.12878711682E+03 -0.41496111861E+03  0.49740934245E+03  0.66521346367E+03  0.79460977094E+02 0.  0.
         13    1    3    3    0    0 -0.17905508592E+03  0.17592020379E+02 -0.22081991688E+03  0.28483616109E+03  0.00000000000E+00 0. -1.
        -13    1    3    3    0    0 -0.30562188085E+03 -0.14295533885E+02 -0.58130543191E+03  0.65690570215E+03  0.00000000000E+00 0.  1.
          2    1    6    6  502    0  0.57120054013E+02 -0.30423995172E+03  0.35885311719E+03  0.47392004443E+03  0.00000000000E+00 0. -1.
          1    1    5    5  503    0  0.26898386887E+03  0.35745416369E+03  0.93216161049E+03  0.10339492584E+04  0.00000000000E+00 0. -1.
         -2    1    5    5    0  503  0.86905981068E+02  0.54210468421E+02  0.23801486712E+03  0.25911870138E+03  0.00000000000E+00 0.  1.
         -1    1    6    6    0  502  0.71667062810E+02 -0.11072116689E+03  0.13855622526E+03  0.19129341925E+03  0.00000000000E+00 0.  1.
<mgrwt>
<rscale>  0 0.27678716E+04</rscale>
<asrwt>0</asrwt>
<pdfrwt beam="1">  1        1 0.28965260E+00 0.27678716E+04</pdfrwt>
<pdfrwt beam="2">  1       -1 0.15650483E+00 0.27678716E+04</pdfrwt>
<totfact> 0.96551405E-01</totfact>
</mgrwt>
</event>
<event>
12    1  0.1980523E-007  0.2627437E+04  0.7818608E-02  0.8358941E-01
          2   -1    0    0  501    0  0.00000000000E+00  0.00000000000E+00  0.21049185618E+04  0.21049185618E+04  0.00000000000E+00 0. -1.
         -2   -1    0    0    0  501 -0.00000000000E+00 -0.00000000000E+00 -0.81991567194E+03  0.81991567194E+03  0.00000000000E+00 0.  1.
         23    2    1    2    0    0 -0.10858115705E+04  0.29076662399E+03  0.26183734010E+03  0.11574580669E+04  0.87283376080E+02 0.  0.
        254    2    1    2    0    0  0.10858115705E+04 -0.29076662399E+03  0.10231655498E+04  0.17673761668E+04  0.90178643623E+03 0.  0.
        -24    2    4    4    0    0  0.62528560653E+03 -0.52658083695E+03  0.30050344684E+03  0.87472538114E+03  0.81072210295E+02 0.  0.
         24    2    4    4    0    0  0.46052596398E+03  0.23581421296E+03  0.72266210294E+03  0.89265078569E+03  0.83020501340E+02 0.  0.
         11    1    3    3    0    0 -0.58015613267E+03  0.13298952049E+03  0.17734672955E+03  0.62106297050E+03  0.00000000000E+00 0. -1.
        -11    1    3    3    0    0 -0.50565543783E+03  0.15777710350E+03  0.84490610548E+02  0.53639509642E+03  0.00000000000E+00 0.  1.
          4    1    6    6  502    0  0.22691001972E+03  0.12822337293E+03  0.29535281631E+03  0.39390693890E+03  0.00000000000E+00 0. -1.
          3    1    5    5  503    0  0.97794137249E+02 -0.65858699959E+02  0.16857932748E+02  0.11910185363E+03  0.00000000000E+00 0. -1.
         -4    1    5    5    0  503  0.52749146928E+03 -0.46072213699E+03  0.28364551409E+03  0.75562352752E+03  0.00000000000E+00 0.  1.
         -3    1    6    6    0  502  0.23361594426E+03  0.10759084002E+03  0.42730928663E+03  0.49874384679E+03  0.00000000000E+00 0.  1.
<mgrwt>
<rscale>  0 0.26274366E+04</rscale>
<asrwt>0</asrwt>
<pdfrwt beam="1">  1        2 0.32383362E+00 0.26274366E+04</pdfrwt>
<pdfrwt beam="2">  1       -2 0.12614087E+00 0.26274366E+04</pdfrwt>
<totfact> 0.24149093E+00</totfact>
</mgrwt>
</event>
<event>
12    1  0.1980523E-007  0.4934322E+04  0.7818608E-02  0.7838719E-01
         -1   -1    0    0    0  501 -0.00000000000E+00  0.00000000000E+00  0.13856215862E+04  0.13856215862E+04  0.00000000000E+00 0.  1.
          1   -1    0    0  501    0  0.00000000000E+00 -0.00000000000E+00 -0.43928893871E+04  0.43928893871E+04  0.00000000000E+00 0. -1.
         23    2    1    2    0    0  0.15110787460E+04 -0.18207310190E+04 -0.11098807873E+04  0.26151985285E+04  0.94908173932E+02 0.  0.
        254    2    1    2    0    0 -0.15110787460E+04  0.18207310190E+04 -0.18973870136E+04  0.31633124447E+04  0.89891474773E+03 0.  0.
        -24    2    4    4    0    0 -0.13045366214E+04  0.16705135598E+04 -0.19606703950E+04  0.28883409931E+04  0.76511076015E+02 0.  0.
         24    2    4    4    0    0 -0.20654212461E+03  0.15021745921E+03  0.63283381468E+02  0.27497145160E+03  0.79872263857E+02 0.  0.
         11    1    3    3    0    0  0.73794071237E+03 -0.81741277350E+03 -0.52930850214E+03  0.12218378074E+04  0.00000000000E+00 0. -1.
        -11    1    3    3    0    0  0.77313803363E+03 -0.10033182455E+04 -0.58057228519E+03  0.13933607211E+04  0.00000000000E+00 0.  1.
          4    1    6    6  502    0 -0.15191058511E+02 -0.77139795716E+01 -0.47830755100E+01  0.17696088575E+02  0.00000000000E+00 0. -1.
          3    1    5    5  503    0 -0.16143291434E+03  0.23722671695E+03 -0.29063121922E+03  0.40841597257E+03  0.00000000000E+00 0. -1.
         -4    1    5    5    0  503 -0.11431037070E+04  0.14332868428E+04 -0.16700391758E+04  0.24799250206E+04  0.00000000000E+00 0.  1.
         -3    1    6    6    0  502 -0.19135106610E+03  0.15793143878E+03  0.68066456978E+02  0.25727536303E+03  0.00000000000E+00 0.  1.
<mgrwt>
<rscale>  0 0.49343216E+04</rscale>
<asrwt>0</asrwt>
<pdfrwt beam="1">  1        1 0.67582913E+00 0.49343216E+04</pdfrwt>
<pdfrwt beam="2">  1       -1 0.21317255E+00 0.49343216E+04</pdfrwt>
<totfact> 0.36439072E-03</totfact>
</mgrwt>
</event>
<event>
12    1  0.1980523E-007  0.1353485E+04  0.7818608E-02  0.8988194E-01
          1   -1    0    0  501    0  0.00000000000E+00  0.00000000000E+00  0.54847649361E+03  0.54847649361E+03  0.00000000000E+00 0. -1.
         -1   -1    0    0    0  501 -0.00000000000E+00 -0.00000000000E+00 -0.83500464831E+03  0.83500464831E+03  0.00000000000E+00 0.  1.
         23    2    1    2    0    0  0.23788085555E+03 -0.18397441195E+03  0.14459729679E+03  0.34590398525E+03  0.91144407845E+02 0.  0.
        254    2    1    2    0    0 -0.23788085555E+03  0.18397441195E+03 -0.43112545149E+03  0.10375771567E+04  0.89457437669E+03 0.  0.
        -24    2    4    4    0    0 -0.31572448456E+03  0.90244452186E+02 -0.67389191148E+03  0.75375758225E+03  0.78703069420E+02 0.  0.
         24    2    4    4    0    0  0.77843629006E+02  0.93729959763E+02  0.24276645999E+03  0.28381957442E+03  0.82298607496E+02 0.  0.
         13    1    3    3    0    0  0.22480505410E+03 -0.19459263505E+03  0.13530195990E+03  0.32666531239E+03  0.00000000000E+00 0. -1.
        -13    1    3    3    0    0  0.13075801449E+02  0.10618223103E+02  0.92953368909E+01  0.19238672858E+02  0.00000000000E+00 0.  1.
          2    1    6    6  502    0  0.84954781135E+02  0.63126113713E+02  0.22261122619E+03  0.24649133676E+03  0.00000000000E+00 0. -1.
          3    1    5    5  503    0 -0.25812192779E+03  0.98817095467E+02 -0.59119346622E+03  0.65261126443E+03  0.00000000000E+00 0. -1.
         -4    1    5    5    0  503 -0.57602556769E+02 -0.85726432809E+01 -0.82698445265E+02  0.10114631782E+03  0.00000000000E+00 0.  1.
         -3    1    6    6    0  502 -0.71111521286E+01  0.30603846050E+02  0.20155233794E+02  0.37328237661E+02  0.00000000000E+00 0.  1.
<mgrwt>
<rscale>  0 0.13534850E+04</rscale>
<asrwt>0</asrwt>
<pdfrwt beam="1">  1        1 0.84380999E-01 0.13534850E+04</pdfrwt>
<pdfrwt beam="2">  1       -1 0.12846225E+00 0.13534850E+04</pdfrwt>
<totfact> 0.19921766E+01</totfact>
</mgrwt>
</event>
<event>
12    1  0.1980523E-007  0.3648199E+04  0.7818608E-02  0.8079540E-01
         -1   -1    0    0    0  501 -0.00000000000E+00  0.00000000000E+00  0.91683881368E+03  0.91683881368E+03  0.00000000000E+00 0.  1.
          1   -1    0    0  501    0  0.00000000000E+00 -0.00000000000E+00 -0.36291420023E+04  0.36291420023E+04  0.00000000000E+00 0. -1.
         23    2    1    2    0    0  0.44291976016E+03 -0.13209253515E+04 -0.25104636424E+04  0.28726222158E+04  0.92244224363E+02 0.  0.
        254    2    1    2    0    0 -0.44291976016E+03  0.13209253515E+04 -0.20183954629E+03  0.16733586002E+04  0.90463700136E+03 0.  0.
        -24    2    4    4    0    0  0.15947308258E+03  0.85030724125E+03 -0.24784440398E+03  0.90335479715E+03  0.78542805945E+02 0.  0.
         24    2    4    4    0    0 -0.60239284274E+03  0.47061811027E+03  0.46004857692E+02  0.77000380306E+03  0.80192687282E+02 0.  0.
         11    1    3    3    0    0  0.30331004072E+03 -0.92485854991E+03 -0.16655489658E+04  0.19290965957E+04  0.00000000000E+00 0.  1.
        -11    1    3    3    0    0  0.13960971944E+03 -0.39606680160E+03 -0.84491467656E+03  0.94352562008E+03  0.00000000000E+00 0. -1.
          4    1    6    6  502    0 -0.50664854006E+03  0.40311067226E+03  0.67284561577E+02  0.65093637897E+03  0.00000000000E+00 0. -1.
          1    1    5    5  503    0  0.10701762190E+03  0.72449689424E+03 -0.20648527219E+03  0.76091043415E+03  0.00000000000E+00 0. -1.
         -2    1    5    5    0  503  0.52455460682E+02  0.12581034701E+03 -0.41359131791E+02  0.14244436300E+03  0.00000000000E+00 0.  1.
         -3    1    6    6    0  502 -0.95744302677E+02  0.67507438008E+02 -0.21279703885E+02  0.11906742409E+03  0.00000000000E+00 0.  1.
<mgrwt>
<rscale>  0 0.36481986E+04</rscale>
<asrwt>0</asrwt>
<pdfrwt beam="1">  1        1 0.55832953E+00 0.36481986E+04</pdfrwt>
<pdfrwt beam="2">  1       -1 0.14105213E+00 0.36481986E+04</pdfrwt>
<totfact> 0.65143829E-02</totfact>
</mgrwt>
</event>
<event>
12    1  0.1980523E-007  0.2126895E+04  0.7818608E-02  0.8549487E-01
         -1   -1    0    0    0  501 -0.00000000000E+00  0.00000000000E+00  0.12211269724E+04  0.12211269724E+04  0.00000000000E+00 0.  1.
          1   -1    0    0  501    0  0.00000000000E+00 -0.00000000000E+00 -0.92612890611E+03  0.92612890611E+03  0.00000000000E+00 0. -1.
         23    2    1    2    0    0 -0.66863057681E+03 -0.35830107957E+02 -0.44069747377E+03  0.80560673902E+03  0.80232846690E+02 0.  0.
        254    2    1    2    0    0  0.66863057681E+03  0.35830107957E+02  0.73569554003E+03  0.13416491395E+04  0.90023543639E+03 0.  0.
        -24    2    4    4    0    0 -0.96483157425E+02  0.11279405957E+03  0.50932357560E+03  0.53601121247E+03  0.76589918950E+02 0.  0.
         24    2    4    4    0    0  0.76511373424E+03 -0.76963951610E+02  0.22637196443E+03  0.80563792700E+03  0.80534011325E+02 0.  0.
         11    1    3    3    0    0 -0.40958298326E+03 -0.41856050525E+02 -0.22976472674E+03  0.47148910782E+03  0.00000000000E+00 0.  1.
        -11    1    3    3    0    0 -0.25904759355E+03  0.60259425679E+01 -0.21093274703E+03  0.33411763120E+03  0.00000000000E+00 0. -1.
          4    1    6    6  502    0  0.50603497608E+03 -0.34232736243E+02  0.11298772701E+03  0.51962438713E+03  0.00000000000E+00 0. -1.
          1    1    5    5  503    0 -0.42637862929E+02  0.10402466576E+03  0.34882886351E+03  0.36649787783E+03  0.00000000000E+00 0. -1.
         -2    1    5    5    0  503 -0.53845294496E+02  0.87693938036E+01  0.16049471210E+03  0.16951333463E+03  0.00000000000E+00 0.  1.
         -1    1    6    6    0  502  0.25907875816E+03 -0.42731215367E+02  0.11338423741E+03  0.28601353987E+03  0.00000000000E+00 0.  1.
<mgrwt>
<rscale>  0 0.21268954E+04</rscale>
<asrwt>0</asrwt>
<pdfrwt beam="1">  1        1 0.14248137E+00 0.21268954E+04</pdfrwt>
<pdfrwt beam="2">  1       -1 0.18786569E+00 0.21268954E+04</pdfrwt>
<totfact> 0.29076961E+00</totfact>
</mgrwt>
</event>
<event>
12    1  0.2806608E-007  0.2119661E+04  0.7818608E-02  0.8552632E-01
         -1   -1    0    0    0  501 -0.00000000000E+00  0.00000000000E+00  0.44777751840E+03  0.44777751840E+03  0.00000000000E+00 0.  1.
          1   -1    0    0  501    0  0.00000000000E+00 -0.00000000000E+00 -0.25084786282E+04  0.25084786282E+04  0.00000000000E+00 0. -1.
         23    2    1    2    0    0  0.75259348324E+03  0.26524083931E+03 -0.37726630066E+03  0.88748074535E+03  0.92425959045E+02 0.  0.
        254    2    1    2    0    0 -0.75259348324E+03 -0.26524083931E+03 -0.16834348091E+04  0.20687754013E+04  0.89951612014E+03 0.  0.
        -24    2    4    4    0    0  0.17734379524E+03  0.65442734532E+02 -0.38131373148E+03  0.43296483089E+03  0.79528672537E+02 0.  0.
         24    2    4    4    0    0 -0.92993727848E+03 -0.33068357384E+03 -0.13021210777E+04  0.16358105704E+04  0.78879359389E+02 0.  0.
         11    1    3    3    0    0  0.22038197444E+03  0.93829500408E+02 -0.70313681080E+02  0.24963213646E+03  0.00000000000E+00 0.  1.
        -11    1    3    3    0    0  0.53221150879E+03  0.17141133890E+03 -0.30695261958E+03  0.63784860889E+03  0.00000000000E+00 0. -1.
          4    1    6    6  502    0 -0.13679062342E+03 -0.19791034652E+02 -0.18474985024E+03  0.23072899010E+03  0.00000000000E+00 0. -1.
          3    1    5    5  503    0  0.77172940397E+02 -0.11662226384E+02 -0.12945268737E+03  0.15116106814E+03  0.00000000000E+00 0. -1.
         -4    1    5    5    0  503  0.10017085485E+03  0.77104960916E+02 -0.25186104411E+03  0.28180376275E+03  0.00000000000E+00 0.  1.
         -3    1    6    6    0  502 -0.79314665506E+03 -0.31089253919E+03 -0.11173712274E+04  0.14050815803E+04  0.00000000000E+00 0.  1.
<mgrwt>
<rscale>  0 0.21196607E+04</rscale>
<asrwt>0</asrwt>
<pdfrwt beam="1">  1        1 0.38591979E+00 0.21196607E+04</pdfrwt>
<pdfrwt beam="2">  1       -1 0.68888850E-01 0.21196607E+04</pdfrwt>
<totfact> 0.26167994E+00</totfact>
</mgrwt>
</event>
<event>
12    1  0.1980523E-007  0.2203422E+04  0.7818608E-02  0.8517005E-01
          1   -1    0    0  501    0  0.00000000000E+00  0.00000000000E+00  0.27881872918E+04  0.27881872918E+04  0.00000000000E+00 0. -1.
         -1   -1    0    0    0  501 -0.00000000000E+00 -0.00000000000E+00 -0.43532500938E+03  0.43532500938E+03  0.00000000000E+00 0.  1.
         23    2    1    2    0    0  0.61343142885E+03 -0.61881146020E+03  0.13640872897E+04  0.16210967316E+04  0.89413300119E+02 0.  0.
        254    2    1    2    0    0 -0.61343142885E+03  0.61881146020E+03  0.98877499278E+03  0.16024155696E+04  0.91150092164E+03 0.  0.
        -24    2    4    4    0    0 -0.61787159473E+03  0.15119476991E+03  0.92240284085E+03  0.11233213044E+04  0.79991162634E+02 0.  0.
         24    2    4    4    0    0  0.44401658752E+01  0.46761669029E+03  0.66372151924E+02  0.47909426519E+03  0.80255643241E+02 0.  0.
         11    1    3    3    0    0  0.56771514505E+03 -0.60103403804E+03  0.12821018251E+04  0.15255580916E+04  0.00000000000E+00 0. -1.
        -11    1    3    3    0    0  0.45716283797E+02 -0.17777422168E+02  0.81985464541E+02  0.95538640032E+02  0.00000000000E+00 0.  1.
          4    1    6    6  502    0 -0.19559723861E+02  0.88096244580E+02 -0.11356138871E+02  0.90953246213E+02  0.00000000000E+00 0. -1.
          1    1    5    5  503    0 -0.16879014003E+03  0.42220677577E+02  0.31813317623E+03  0.36260366077E+03  0.00000000000E+00 0. -1.
         -2    1    5    5    0  503 -0.44908145470E+03  0.10897409233E+03  0.60426966462E+03  0.76071764364E+03  0.00000000000E+00 0.  1.
         -3    1    6    6    0  502  0.23999889736E+02  0.37952044571E+03  0.77728290795E+02  0.38814101898E+03  0.00000000000E+00 0.  1.
<mgrwt>
<rscale>  0 0.22034225E+04</rscale>
<asrwt>0</asrwt>
<pdfrwt beam="1">  1        1 0.42895188E+00 0.22034225E+04</pdfrwt>
<pdfrwt beam="2">  1       -1 0.66973080E-01 0.22034225E+04</pdfrwt>
<totfact> 0.17499294E+00</totfact>
</mgrwt>
</event>
<event>
12    1  0.1980523E-007  0.1145756E+04  0.7818608E-02  0.9161708E-01
         -2   -1    0    0    0  501 -0.00000000000E+00  0.00000000000E+00  0.20855040148E+03  0.20855040148E+03  0.00000000000E+00 0. -1.
          2   -1    0    0  501    0  0.00000000000E+00 -0.00000000000E+00 -0.15736687472E+04  0.15736687472E+04  0.00000000000E+00 0.  1.
         23    2    1    2    0    0  0.13645900267E+03  0.92249267768E+02 -0.44313079956E+03  0.48158752052E+03  0.91818557982E+02 0.  0.
        254    2    1    2    0    0 -0.13645900267E+03 -0.92249267768E+02 -0.92198754614E+03  0.13006316281E+04  0.90246917402E+03 0.  0.
        -24    2    4    4    0    0 -0.46528966732E+03 -0.99371738338E+02 -0.81231658482E+03  0.94477777347E+03  0.79859817025E+02 0.  0.
         24    2    4    4    0    0  0.32883066465E+03  0.71224705703E+01 -0.10967096132E+03  0.35585385466E+03  0.80149301423E+02 0.  0.
         11    1    3    3    0    0  0.86298778486E+02  0.68279073386E+02 -0.38796045152E+03  0.40326520179E+03  0.00000000000E+00 0.  1.
        -11    1    3    3    0    0  0.50160224180E+02  0.23970194382E+02 -0.55170348039E+02  0.78322318730E+02  0.00000000000E+00 0. -1.
          4    1    6    6  502    0  0.14020028570E+03  0.38771606016E+02 -0.29285907265E+02  0.14838133949E+03  0.00000000000E+00 0. -1.
          3    1    5    5  503    0 -0.17587711403E+03 -0.14902621806E+02 -0.36369232811E+03  0.40426100096E+03  0.00000000000E+00 0. -1.
         -4    1    5    5    0  503 -0.28941255329E+03 -0.84469116533E+02 -0.44862425671E+03  0.54051677251E+03  0.00000000000E+00 0.  1.
         -3    1    6    6    0  502  0.18863037895E+03 -0.31649135446E+02 -0.80385054052E+02  0.20747251517E+03  0.00000000000E+00 0.  1.
<mgrwt>
<rscale>  0 0.11457561E+04</rscale>
<asrwt>0</asrwt>
<pdfrwt beam="1">  1        2 0.24210287E+00 0.11457561E+04</pdfrwt>
<pdfrwt beam="2">  1       -2 0.32084679E-01 0.11457561E+04</pdfrwt>
<totfact> 0.10320120E+02</totfact>
</mgrwt>
</event>
<event>
12    1  0.1980523E-007  0.1675487E+04  0.7818608E-02  0.8775470E-01
         -1   -1    0    0    0  501 -0.00000000000E+00  0.00000000000E+00  0.40550820853E+03  0.40550820853E+03  0.00000000000E+00 0.  1.
          1   -1    0    0  501    0  0.00000000000E+00 -0.00000000000E+00 -0.17307024055E+04  0.17307024055E+04  0.00000000000E+00 0. -1.
         23    2    1    2    0    0 -0.21894060795E+03 -0.99746872872E+02  0.21465626849E+03  0.33629381739E+03  0.95560397429E+02 0.  0.
        254    2    1    2    0    0  0.21894060795E+03  0.99746872872E+02 -0.15398504655E+04  0.17999167967E+04  0.90037580509E+03 0.  0.
        -24    2    4    4    0    0 -0.32145384247E+03  0.18202505498E+03 -0.65855094483E+03  0.75970096297E+03  0.83609286073E+02 0.  0.
         24    2    4    4    0    0  0.54039445042E+03 -0.82278182112E+02 -0.88129952067E+03  0.10402158337E+04  0.81020208940E+02 0.  0.
         13    1    3    3    0    0 -0.16690197306E+03 -0.65879417376E+02  0.20666783336E+03  0.27369318514E+03  0.00000000000E+00 0.  1.
        -13    1    3    3    0    0 -0.52038634893E+02 -0.33867455497E+02  0.79884351341E+01  0.62600632259E+02  0.00000000000E+00 0. -1.
          4    1    6    6  502    0  0.19120310714E+03 -0.65851206246E+02 -0.35013358367E+03  0.40433715629E+03  0.00000000000E+00 0. -1.
          3    1    5    5  503    0 -0.10012530137E+03  0.76181450786E+02 -0.15556842546E+03  0.20007554678E+03  0.00000000000E+00 0. -1.
         -4    1    5    5    0  503 -0.22132854110E+03  0.10584360420E+03 -0.50298251937E+03  0.55962541619E+03  0.00000000000E+00 0.  1.
         -3    1    6    6    0  502  0.34919134328E+03 -0.16426975866E+02 -0.53116593700E+03  0.63587867741E+03  0.00000000000E+00 0.  1.
<mgrwt>
<rscale>  0 0.16754868E+04</rscale>
<asrwt>0</asrwt>
<pdfrwt beam="1">  1        1 0.26626191E+00 0.16754868E+04</pdfrwt>
<pdfrwt beam="2">  1       -1 0.62385878E-01 0.16754868E+04</pdfrwt>
<totfact> 0.11286136E+01</totfact>
</mgrwt>
</event>
<event>
12    1  0.1980523E-007  0.2470971E+04  0.7818608E-02  0.8413401E-01
          2   -1    0    0  501    0  0.00000000000E+00  0.00000000000E+00  0.26647858886E+04  0.26647858886E+04  0.00000000000E+00 0. -1.
         -2   -1    0    0    0  501 -0.00000000000E+00 -0.00000000000E+00 -0.57281299504E+03  0.57281299504E+03  0.00000000000E+00 0.  1.
         23    2    1    2    0    0  0.64026318374E+03  0.83816114232E+03  0.11562005149E+04  0.15676274954E+04  0.90583048796E+02 0.  0.
        254    2    1    2    0    0 -0.64026318374E+03 -0.83816114232E+03  0.93577237859E+03  0.16699713882E+04  0.89480916841E+03 0.  0.
        -24    2    4    4    0    0 -0.58805877555E+03 -0.72214947476E+03  0.24962245944E+03  0.96740081103E+03  0.78993477809E+02 0.  0.
         24    2    4    4    0    0 -0.52204408188E+02 -0.11601166756E+03  0.68614991916E+03  0.70257057715E+03  0.81361520846E+02 0.  0.
         11    1    3    3    0    0  0.32812556353E+01  0.72837907835E+01  0.18888952142E+00  0.79909902999E+01  0.00000000000E+00 0.  1.
        -11    1    3    3    0    0  0.63698192810E+03  0.83087735154E+03  0.11560116254E+04  0.15596365051E+04  0.00000000000E+00 0. -1.
          2    1    6    6  502    0  0.77671878441E+01  0.46408412696E+01  0.13070160328E+03  0.13101441033E+03  0.00000000000E+00 0. -1.
          1    1    5    5  503    0 -0.60510950057E+02 -0.96642547618E+02  0.84794830372E+01  0.11433835192E+03  0.00000000000E+00 0. -1.
         -2    1    5    5    0  503 -0.52754782549E+03 -0.62550692714E+03  0.24114297640E+03  0.85306245911E+03  0.00000000000E+00 0.  1.
         -1    1    6    6    0  502 -0.59971596033E+02 -0.12065250883E+03  0.55544831588E+03  0.57155616682E+03  0.00000000000E+00 0.  1.
<mgrwt>
<rscale>  0 0.24709706E+04</rscale>
<asrwt>0</asrwt>
<pdfrwt beam="1">  1        2 0.40996705E+00 0.24709706E+04</pdfrwt>
<pdfrwt beam="2">  1       -2 0.88125078E-01 0.24709706E+04</pdfrwt>
<totfact> 0.27634369E+00</totfact>
</mgrwt>
</event>
<event>
12    1  0.1980523E-007  0.2860111E+04  0.7818608E-02  0.8284845E-01
          2   -1    0    0  501    0  0.00000000000E+00  0.00000000000E+00  0.20801978897E+04  0.20801978897E+04  0.00000000000E+00 0. -1.
         -2   -1    0    0    0  501 -0.00000000000E+00 -0.00000000000E+00 -0.98310791330E+03  0.98310791330E+03  0.00000000000E+00 0.  1.
         23    2    1    2    0    0  0.75950645506E+03  0.10248517627E+04  0.33861487749E+03  0.13228643604E+04  0.90215797630E+02 0.  0.
        254    2    1    2    0    0 -0.75950645506E+03 -0.10248517627E+04  0.75847509890E+03  0.17404414426E+04  0.90921985716E+03 0.  0.
        -24    2    4    4    0    0 -0.39079980906E+03 -0.23499864213E+03  0.73016120899E+03  0.86462400848E+03  0.80563219612E+02 0.  0.
         24    2    4    4    0    0 -0.36870664599E+03 -0.78985312053E+03  0.28313889908E+02  0.87581743409E+03  0.80261813355E+02 0.  0.
         11    1    3    3    0    0  0.39143375796E+03  0.54791856611E+03  0.22365396607E+03  0.70954650200E+03  0.00000000000E+00 0. -1.
        -11    1    3    3    0    0  0.36807269710E+03  0.47693319654E+03  0.11496091142E+03  0.61331785843E+03  0.00000000000E+00 0.  1.
          4    1    6    6  502    0 -0.34777138839E+02 -0.33709888640E+02 -0.39278957691E+01  0.48592533821E+02  0.00000000000E+00 0. -1.
          3    1    5    5  503    0 -0.13188814897E+03 -0.45369232523E+02  0.26553946826E+03  0.29994009452E+03  0.00000000000E+00 0. -1.
         -4    1    5    5    0  503 -0.25891166009E+03 -0.18962940961E+03  0.46462174074E+03  0.56468391396E+03  0.00000000000E+00 0.  1.
         -3    1    6    6    0  502 -0.33392950715E+03 -0.75614323189E+03  0.32241785677E+02  0.82722490026E+03  0.00000000000E+00 0.  1.
<mgrwt>
<rscale>  0 0.28601112E+04</rscale>
<asrwt>0</asrwt>
<pdfrwt beam="1">  1        2 0.32003044E+00 0.28601112E+04</pdfrwt>
<pdfrwt beam="2">  1       -2 0.15124737E+00 0.28601112E+04</pdfrwt>
<totfact> 0.15297730E+00</totfact>
</mgrwt>
</event>
<event>
12    1  0.2192998E-007  0.2914762E+04  0.7818608E-02  0.8268499E-01
         -1   -1    0    0    0  501 -0.00000000000E+00  0.00000000000E+00  0.12952902380E+04  0.12952902380E+04  0.00000000000E+00 0.  1.
          1   -1    0    0  501    0  0.00000000000E+00 -0.00000000000E+00 -0.16397560596E+04  0.16397560596E+04  0.00000000000E+00 0. -1.
         23    2    1    2    0    0 -0.10057815119E+04  0.91330870888E+02  0.69479824285E+03  0.12291867562E+04  0.90651561677E+02 0.  0.
        254    2    1    2    0    0  0.10057815119E+04 -0.91330870888E+02 -0.10392640644E+04  0.17058595414E+04  0.89997177824E+03 0.  0.
        -24    2    4    4    0    0  0.75227643662E+03  0.15795938490E+03 -0.21087628418E+03  0.80098798135E+03  0.79005915437E+02 0.  0.
         24    2    4    4    0    0  0.25350507529E+03 -0.24929025579E+03 -0.82838778024E+03  0.90487156002E+03  0.78458720693E+02 0.  0.
         13    1    3    3    0    0 -0.49917024503E+03  0.86879494323E+02  0.32499626957E+03  0.60194813339E+03  0.00000000000E+00 0. -1.
        -13    1    3    3    0    0 -0.50661126687E+03  0.44513765654E+01  0.36980197328E+03  0.62723862279E+03  0.00000000000E+00 0.  1.
          2    1    6    6  502    0  0.55192806888E+02 -0.15359337322E+02 -0.12184144176E+03  0.13463837531E+03  0.00000000000E+00 0. -1.
          1    1    5    5  503    0 -0.38896278755E+00  0.33950254826E+01 -0.39853929131E+01  0.52498425452E+01  0.00000000000E+00 0. -1.
         -2    1    5    5    0  503  0.75266539940E+03  0.15456435942E+03 -0.20689089126E+03  0.79573813880E+03  0.00000000000E+00 0.  1.
         -1    1    6    6    0  502  0.19831226840E+03 -0.23393091846E+03 -0.70654633848E+03  0.77023318471E+03  0.00000000000E+00 0.  1.
<mgrwt>
<rscale>  0 0.29147624E+04</rscale>
<asrwt>0</asrwt>
<pdfrwt beam="1">  1        1 0.25227016E+00 0.29147624E+04</pdfrwt>
<pdfrwt beam="2">  1       -1 0.19927542E+00 0.29147624E+04</pdfrwt>
<totfact> 0.68400589E-01</totfact>
</mgrwt>
</event>
<event>
12    1  0.1980523E-007  0.2807677E+04  0.7818608E-02  0.8300889E-01
         -1   -1    0    0    0  501 -0.00000000000E+00  0.00000000000E+00  0.97573092870E+03  0.97573092870E+03  0.00000000000E+00 0.  1.
          1   -1    0    0  501    0  0.00000000000E+00 -0.00000000000E+00 -0.20197800990E+04  0.20197800990E+04  0.00000000000E+00 0. -1.
         23    2    1    2    0    0  0.80911477697E+03 -0.95485472044E+03 -0.33141115224E+03  0.12987469325E+04  0.10244990664E+03 0.  0.
        254    2    1    2    0    0 -0.80911477697E+03  0.95485472044E+03 -0.71263801805E+03  0.16967640952E+04  0.89707368175E+03 0.  0.
        -24    2    4    4    0    0 -0.33078827867E+03 -0.90030103127E+02 -0.19634943404E+02  0.35246234437E+03  0.79485020103E+02 0.  0.
         24    2    4    4    0    0 -0.47832649830E+03  0.10448848236E+04 -0.69300307465E+03  0.13443017508E+04  0.79456920944E+02 0.  0.
         11    1    3    3    0    0  0.52390479412E+03 -0.61853717545E+03 -0.26494931619E+03  0.85279693413E+03  0.00000000000E+00 0. -1.
        -11    1    3    3    0    0  0.28520998285E+03 -0.33631754500E+03 -0.66461836047E+02  0.44594999837E+03  0.00000000000E+00 0.  1.
          2    1    6    6  502    0 -0.10182156520E+03  0.28912462309E+03 -0.15976860735E+03  0.34566846357E+03  0.00000000000E+00 0. -1.
          3    1    5    5  503    0 -0.10604452004E+03  0.78837958443E+00 -0.28801891402E+02  0.10988908372E+03  0.00000000000E+00 0. -1.
         -4    1    5    5    0  503 -0.22474375863E+03 -0.90818482711E+02  0.91669479986E+01  0.24257326065E+03  0.00000000000E+00 0.  1.
         -1    1    6    6    0  502 -0.37650493310E+03  0.75576020048E+03 -0.53323446730E+03  0.99863328725E+03  0.00000000000E+00 0.  1.
<mgrwt>
<rscale>  0 0.28076766E+04</rscale>
<asrwt>0</asrwt>
<pdfrwt beam="1">  1        1 0.31073539E+00 0.28076766E+04</pdfrwt>
<pdfrwt beam="2">  1       -1 0.15011245E+00 0.28076766E+04</pdfrwt>
<totfact> 0.87027996E-01</totfact>
</mgrwt>
</event>
<event>
12    1  0.1980523E-007  0.3507817E+04  0.7818608E-02  0.8111940E-01
          1   -1    0    0  501    0  0.00000000000E+00  0.00000000000E+00  0.23516689021E+04  0.23516689021E+04  0.00000000000E+00 0. -1.
         -1   -1    0    0    0  501 -0.00000000000E+00 -0.00000000000E+00 -0.13080905507E+04  0.13080905507E+04  0.00000000000E+00 0.  1.
         23    2    1    2    0    0 -0.93178628440E+03  0.12623609637E+04  0.97873189424E+03  0.18503882906E+04  0.65113920208E+02 0.  0.
        254    2    1    2    0    0  0.93178628440E+03 -0.12623609637E+04  0.64846457168E+02  0.18093711621E+04  0.89879811799E+03 0.  0.
        -24    2    4    4    0    0  0.54371118751E+03 -0.27457934378E+03  0.35067590308E+03  0.70733057412E+03  0.79544205543E+02 0.  0.
         24    2    4    4    0    0  0.38807509689E+03 -0.98778161992E+03 -0.28582944591E+03  0.11020405880E+04  0.80499540421E+02 0.  0.
         13    1    3    3    0    0 -0.13408040621E+03  0.20163220970E+03  0.17538846636E+03  0.29898865773E+03  0.00000000000E+00 0. -1.
        -13    1    3    3    0    0 -0.79770587819E+03  0.10607287540E+04  0.80334342787E+03  0.15513996328E+04  0.00000000000E+00 0.  1.
          2    1    6    6  502    0  0.21813931640E+03 -0.61256067060E+03 -0.20918260781E+03  0.68306127100E+03  0.00000000000E+00 0. -1.
          1    1    5    5  503    0  0.53997053299E+03 -0.26049165372E+03  0.33958826942E+03  0.68901688723E+03  0.00000000000E+00 0. -1.
         -2    1    5    5    0  503  0.37406545141E+01 -0.14087690062E+02  0.11087633660E+02  0.18313686894E+02  0.00000000000E+00 0.  1.
         -1    1    6    6    0  502  0.16993578049E+03 -0.37522094933E+03 -0.76646838096E+02  0.41897931702E+03  0.00000000000E+00 0.  1.
<mgrwt>
<rscale>  0 0.35078175E+04</rscale>
<asrwt>0</asrwt>
<pdfrwt beam="1">  1        1 0.36179522E+00 0.35078175E+04</pdfrwt>
<pdfrwt beam="2">  1       -1 0.20124470E+00 0.35078175E+04</pdfrwt>
<totfact> 0.20633943E-01</totfact>
</mgrwt>
</event>
<event>
12    1  0.1980523E-007  0.2365325E+04  0.7818608E-02  0.8452600E-01
          2   -1    0    0  501    0  0.00000000000E+00  0.00000000000E+00  0.14343147902E+04  0.14343147902E+04  0.00000000000E+00 0.  1.
         -2   -1    0    0    0  501 -0.00000000000E+00 -0.00000000000E+00 -0.97516314199E+03  0.97516314199E+03  0.00000000000E+00 0. -1.
         23    2    1    2    0    0  0.46188683678E+03  0.85488539702E+03 -0.81434001012E+02  0.97939076762E+03  0.91685806732E+02 0.  0.
        254    2    1    2    0    0 -0.46188683678E+03 -0.85488539702E+03  0.54058564926E+03  0.14300871646E+04  0.89930415441E+03 0.  0.
        -24    2    4    4    0    0 -0.29937842104E+03 -0.32104144758E+03  0.71238593272E+03  0.84065693959E+03  0.80717550108E+02 0.  0.
         24    2    4    4    0    0 -0.16250841573E+03 -0.53384394944E+03 -0.17180028346E+03  0.58943022501E+03  0.80711245943E+02 0.  0.
         13    1    3    3    0    0  0.29045934388E+03  0.57897049672E+03 -0.15480095983E+02  0.64792985724E+03  0.00000000000E+00 0.  1.
        -13    1    3    3    0    0  0.17142749289E+03  0.27591490029E+03 -0.65953905030E+02  0.33146091038E+03  0.00000000000E+00 0. -1.
          4    1    6    6  502    0 -0.10122388074E+02 -0.25728126161E+01 -0.74128462647E+01  0.12807513218E+02  0.00000000000E+00 0. -1.
          1    1    5    5  503    0 -0.72037421238E+02 -0.67211045395E+02  0.10342315621E+03  0.14283929404E+03  0.00000000000E+00 0. -1.
         -2    1    5    5    0  503 -0.22734099980E+03 -0.25383040218E+03  0.60896277651E+03  0.69781764555E+03  0.00000000000E+00 0.  1.
         -3    1    6    6    0  502 -0.15238602766E+03 -0.53127113682E+03 -0.16438743719E+03  0.57662271179E+03  0.00000000000E+00 0.  1.
<mgrwt>
<rscale>  0 0.23653253E+04</rscale>
<asrwt>0</asrwt>
<pdfrwt beam="1">  1        2 0.22066382E+00 0.23653253E+04</pdfrwt>
<pdfrwt beam="2">  1       -2 0.15002510E+00 0.23653253E+04</pdfrwt>
<totfact> 0.37361598E+00</totfact>
</mgrwt>
</event>
<event>
12    1  0.1980523E-007  0.1328749E+04  0.7818608E-02  0.9007072E-01
         -2   -1    0    0    0  501 -0.00000000000E+00  0.00000000000E+00  0.19799182349E+03  0.19799182349E+03  0.00000000000E+00 0.  1.
          2   -1    0    0  501    0  0.00000000000E+00 -0.00000000000E+00 -0.22293529912E+04  0.22293529912E+04  0.00000000000E+00 0. -1.
         23    2    1    2    0    0 -0.29958075124E+03 -0.73448231162E+02 -0.85052350690E+03  0.90927543509E+03  0.90820217371E+02 0.  0.
        254    2    1    2    0    0  0.29958075124E+03  0.73448231162E+02 -0.11808376608E+04  0.15180693796E+04  0.90278114233E+03 0.  0.
        -24    2    4    4    0    0 -0.30021421497E+03 -0.96312902539E+02 -0.41828339264E+03  0.52987001579E+03  0.79978040816E+02 0.  0.
         24    2    4    4    0    0  0.59979496620E+03  0.16976113370E+03 -0.76255426815E+03  0.98819936380E+03  0.80474385608E+02 0.  0.
         11    1    3    3    0    0 -0.15923615966E+03 -0.57454797967E+02 -0.57855890015E+03  0.60281639766E+03  0.00000000000E+00 0. -1.
        -11    1    3    3    0    0 -0.14034459157E+03 -0.15993433196E+02 -0.27196460676E+03  0.30645903742E+03  0.00000000000E+00 0.  1.
          2    1    6    6  502    0  0.60068639034E+03  0.16669772108E+03 -0.76264519172E+03  0.98500759297E+03  0.00000000000E+00 0. -1.
          1    1    5    5  503    0 -0.22663228624E+03 -0.93581161110E+02 -0.36185182053E+03  0.43709995070E+03  0.00000000000E+00 0. -1.
         -2    1    5    5    0  503 -0.73581928730E+02 -0.27317414295E+01 -0.56431572117E+02  0.92770065098E+02  0.00000000000E+00 0.  1.
         -1    1    6    6    0  502 -0.89142413979E+00  0.30634126236E+01  0.90923574224E-01  0.31917708244E+01  0.00000000000E+00 0.  1.
<mgrwt>
<rscale>  0 0.13287493E+04</rscale>
<asrwt>0</asrwt>
<pdfrwt beam="1">  1        2 0.34297739E+00 0.13287493E+04</pdfrwt>
<pdfrwt beam="2">  1       -2 0.30460280E-01 0.13287493E+04</pdfrwt>
<totfact> 0.48566853E+01</totfact>
</mgrwt>
</event>
<event>
12    1  0.1980523E-007  0.1715216E+04  0.7818608E-02  0.8752734E-01
          2   -1    0    0  501    0  0.00000000000E+00  0.00000000000E+00  0.14469478601E+04  0.14469478601E+04  0.00000000000E+00 0. -1.
         -2   -1    0    0    0  501 -0.00000000000E+00 -0.00000000000E+00 -0.50830524144E+03  0.50830524144E+03  0.00000000000E+00 0.  1.
         23    2    1    2    0    0  0.51698935287E+03 -0.28730276588E+03  0.53377412198E+03  0.80194148639E+03  0.91512097814E+02 0.  0.
        254    2    1    2    0    0 -0.51698935287E+03  0.28730276588E+03  0.40486849672E+03  0.11533116152E+04  0.90354209188E+03 0.  0.
        -24    2    4    4    0    0 -0.69589019706E+03  0.14616944310E+03  0.41205169220E+02  0.71680964309E+03  0.80557594316E+02 0.  0.
         24    2    4    4    0    0  0.17890084419E+03  0.14113332277E+03  0.36366332750E+03  0.43650197208E+03  0.79742266163E+02 0.  0.
         13    1    3    3    0    0  0.36641655111E+03 -0.18505182205E+03  0.42006098656E+03  0.58732997387E+03  0.00000000000E+00 0. -1.
        -13    1    3    3    0    0  0.15057280176E+03 -0.10225094383E+03  0.11371313542E+03  0.21461151253E+03  0.00000000000E+00 0.  1.
          4    1    6    6  502    0  0.33263037614E+02  0.59182269653E+02  0.63515447282E+02  0.92968719233E+02  0.00000000000E+00 0. -1.
          3    1    5    5  503    0 -0.33288901503E+03  0.42404309729E+02 -0.10509243053E+02  0.33574345266E+03  0.00000000000E+00 0. -1.
         -4    1    5    5    0  503 -0.36300118203E+03  0.10376513338E+03  0.51714412272E+02  0.38106619044E+03  0.00000000000E+00 0.  1.
         -3    1    6    6    0  502  0.14563780658E+03  0.81951053119E+02  0.30014788022E+03  0.34353325285E+03  0.00000000000E+00 0.  1.
<mgrwt>
<rscale>  0 0.17152156E+04</rscale>
<asrwt>0</asrwt>
<pdfrwt beam="1">  1        2 0.22260736E+00 0.17152156E+04</pdfrwt>
<pdfrwt beam="2">  1       -2 0.78200807E-01 0.17152156E+04</pdfrwt>
<totfact> 0.18809536E+01</totfact>
</mgrwt>
</event>
<event>
12    1  0.1980523E-007  0.2247773E+04  0.7818608E-02  0.8498803E-01
          4   -1    0    0  501    0  0.00000000000E+00  0.00000000000E+00  0.16879697357E+04  0.16879697357E+04  0.00000000000E+00 0. -1.
         -4   -1    0    0    0  501 -0.00000000000E+00 -0.00000000000E+00 -0.74830746001E+03  0.74830746001E+03  0.00000000000E+00 0.  1.
         23    2    1    2    0    0 -0.87618748880E+03 -0.21853750185E+03  0.67759912158E+03  0.11327454969E+04  0.92242267903E+02 0.  0.
        254    2    1    2    0    0  0.87618748880E+03  0.21853750185E+03  0.26206315415E+03  0.13035316988E+04  0.90280376484E+03 0.  0.
        -24    2    4    4    0    0  0.75087614212E+03  0.27769397310E+03 -0.18812365900E+03  0.82613389510E+03  0.78598842559E+02 0.  0.
         24    2    4    4    0    0  0.12531134668E+03 -0.59156471253E+02  0.45018681315E+03  0.47739780372E+03  0.77705048510E+02 0.  0.
         11    1    3    3    0    0 -0.69719782637E+03 -0.14892247975E+03  0.56871590458E+03  0.91197614782E+03  0.00000000000E+00 0. -1.
        -11    1    3    3    0    0 -0.17898966243E+03 -0.69615022097E+02  0.10888321699E+03  0.22076934910E+03  0.00000000000E+00 0.  1.
          4    1    6    6  502    0  0.12535166669E+03 -0.72042867524E+02  0.42775463948E+03  0.45152768099E+03  0.00000000000E+00 0. -1.
          1    1    5    5  503    0  0.67505587114E+03  0.27195406372E+03 -0.17967855569E+03  0.74962912517E+03  0.00000000000E+00 0. -1.
         -2    1    5    5    0  503  0.75820270982E+02  0.57399093844E+01 -0.84451033082E+01  0.76504769925E+02  0.00000000000E+00 0.  1.
         -3    1    6    6    0  502 -0.40320004524E-01  0.12886396271E+02  0.22432173669E+02  0.25870122730E+02  0.00000000000E+00 0.  1.
<mgrwt>
<rscale>  0 0.22477725E+04</rscale>
<asrwt>0</asrwt>
<pdfrwt beam="1">  1        4 0.25968765E+00 0.22477725E+04</pdfrwt>
<pdfrwt beam="2">  1       -4 0.11512423E+00 0.22477725E+04</pdfrwt>
<totfact> 0.58687592E-02</totfact>
</mgrwt>
</event>
<event>
12    1  0.1980523E-007  0.1195992E+04  0.7818608E-02  0.9116372E-01
         -2   -1    0    0    0  501 -0.00000000000E+00  0.00000000000E+00  0.54849066467E+03  0.54849066467E+03  0.00000000000E+00 0.  1.
          2   -1    0    0  501    0  0.00000000000E+00 -0.00000000000E+00 -0.65196917668E+03  0.65196917668E+03  0.00000000000E+00 0. -1.
         23    2    1    2    0    0 -0.52994591163E+01  0.23691336085E+03 -0.10595226828E+03  0.27425846590E+03  0.88520043770E+02 0.  0.
        254    2    1    2    0    0  0.52994591163E+01 -0.23691336085E+03  0.24737562728E+01  0.92620137544E+03  0.89536966868E+03 0.  0.
        -24    2    4    4    0    0  0.13464275801E+03  0.49404065552E+02  0.38865685664E+03  0.42191609372E+03  0.79934998258E+02 0.  0.
         24    2    4    4    0    0 -0.12934329890E+03 -0.28631742640E+03 -0.38618310037E+03  0.50428528172E+03  0.80367286371E+02 0.  0.
         11    1    3    3    0    0  0.78711283944E+01  0.14784610990E+03 -0.10950679685E+03  0.18415256021E+03  0.00000000000E+00 0. -1.
        -11    1    3    3    0    0 -0.13170587511E+02  0.89067250951E+02  0.35545285747E+01  0.90105905693E+02  0.00000000000E+00 0.  1.
          2    1    6    6  502    0 -0.35059922409E+02 -0.69799847693E+02 -0.47568709090E+02  0.91454901354E+02  0.00000000000E+00 0. -1.
          3    1    5    5  503    0 -0.54582180858E+01  0.16813860820E+02  0.71699983453E+02  0.73847042510E+02  0.00000000000E+00 0. -1.
         -4    1    5    5    0  503  0.14010097610E+03  0.32590204732E+02  0.31695687319E+03  0.34806905121E+03  0.00000000000E+00 0.  1.
         -1    1    6    6    0  502 -0.94283376487E+02 -0.21651757871E+03 -0.33861439128E+03  0.41283038037E+03  0.00000000000E+00 0.  1.
<mgrwt>
<rscale>  0 0.11959917E+04</rscale>
<asrwt>0</asrwt>
<pdfrwt beam="1">  1        2 0.10030295E+00 0.11959917E+04</pdfrwt>
<pdfrwt beam="2">  1       -2 0.84383179E-01 0.11959917E+04</pdfrwt>
<totfact> 0.54189106E+01</totfact>
</mgrwt>
</event>
<event>
12    1  0.1980523E-007  0.1484489E+04  0.7818608E-02  0.8894834E-01
          2   -1    0    0  501    0  0.00000000000E+00  0.00000000000E+00  0.42610646519E+04  0.42610646519E+04  0.00000000000E+00 0. -1.
         -2   -1    0    0    0  501 -0.00000000000E+00 -0.00000000000E+00 -0.12929322321E+03  0.12929322321E+03  0.00000000000E+00 0.  1.
         23    2    1    2    0    0 -0.37569789119E+03 -0.15246000005E+03  0.19875398125E+04  0.20304402174E+04  0.89330918007E+02 0.  0.
        254    2    1    2    0    0  0.37569789119E+03  0.15246000005E+03  0.21442316162E+04  0.23599176578E+04  0.89838141705E+03 0.  0.
        -24    2    4    4    0    0 -0.17512297332E+03  0.34587162038E+03  0.83507849812E+03  0.92425600229E+03  0.81227003950E+02 0.  0.
         24    2    4    4    0    0  0.55082086450E+03 -0.19341162033E+03  0.13091531181E+04  0.14356616555E+04  0.80192411151E+02 0.  0.
         11    1    3    3    0    0 -0.16249593971E+03 -0.69286900651E+02  0.10879088579E+04  0.11021575605E+04  0.00000000000E+00 0. -1.
        -11    1    3    3    0    0 -0.21320195148E+03 -0.83173099398E+02  0.89963095462E+03  0.92828265689E+03  0.00000000000E+00 0.  1.
          2    1    6    6  502    0  0.46081577934E+02 -0.28304892866E+02  0.78609591522E+02  0.95415652093E+02  0.00000000000E+00 0. -1.
          1    1    5    5  503    0  0.73951200131E+01  0.33544566827E+02  0.72520013165E+02  0.80243866265E+02  0.00000000000E+00 0. -1.
         -2    1    5    5    0  503 -0.18251809333E+03  0.31232705355E+03  0.76255848496E+03  0.84401213602E+03  0.00000000000E+00 0.  1.
         -1    1    6    6    0  502  0.50473928657E+03 -0.16510672747E+03  0.12305435266E+04  0.13402460034E+04  0.00000000000E+00 0.  1.
<mgrwt>
<rscale>  0 0.14844888E+04</rscale>
<asrwt>0</asrwt>
<pdfrwt beam="1">  1        2 0.65554830E+00 0.14844888E+04</pdfrwt>
<pdfrwt beam="2">  1       -2 0.19891268E-01 0.14844888E+04</pdfrwt>
<totfact> 0.44228769E+00</totfact>
</mgrwt>
</event>
<event>
12    1  0.1980523E-007  0.3466485E+04  0.7818608E-02  0.8121779E-01
         -2   -1    0    0    0  501 -0.00000000000E+00  0.00000000000E+00  0.11440882359E+04  0.11440882359E+04  0.00000000000E+00 0.  1.
          2   -1    0    0  501    0  0.00000000000E+00 -0.00000000000E+00 -0.26257841443E+04  0.26257841443E+04  0.00000000000E+00 0. -1.
         23    2    1    2    0    0  0.10667258956E+04 -0.85823421028E+03  0.23924323921E+03  0.13927217488E+04  0.89254948302E+02 0.  0.
        254    2    1    2    0    0 -0.10667258956E+04  0.85823421028E+03 -0.17209391477E+04  0.23771506314E+04  0.90263141888E+03 0.  0.
        -24    2    4    4    0    0 -0.89141115162E+03  0.91652516065E+03 -0.98956609161E+03  0.16186715704E+04  0.78894814127E+02 0.  0.
         24    2    4    4    0    0 -0.17531474403E+03 -0.58290950378E+02 -0.73137305606E+03  0.75847906106E+03  0.79062282798E+02 0.  0.
         13    1    3    3    0    0  0.68711859447E+03 -0.50391746440E+03  0.12776760915E+03  0.86162018067E+03  0.00000000000E+00 0. -1.
        -13    1    3    3    0    0  0.37960730118E+03 -0.35431674588E+03  0.11147563006E+03  0.53110156808E+03  0.00000000000E+00 0.  1.
          2    1    6    6  502    0 -0.10767977931E+03 -0.49361632196E+02 -0.58655342612E+03  0.59839487573E+03  0.00000000000E+00 0. -1.
          3    1    5    5  503    0 -0.83053870989E+03  0.83416620329E+03 -0.93016657990E+03  0.15002791972E+04  0.00000000000E+00 0. -1.
         -4    1    5    5    0  503 -0.60872441727E+02  0.82358957366E+02 -0.59399511712E+02  0.11839237311E+03  0.00000000000E+00 0.  1.
         -1    1    6    6    0  502 -0.67634964726E+02 -0.89293181829E+01 -0.14481962994E+03  0.16008418533E+03  0.00000000000E+00 0.  1.
<mgrwt>
<rscale>  0 0.34664845E+04</rscale>
<asrwt>0</asrwt>
<pdfrwt beam="1">  1        2 0.40396679E+00 0.34664845E+04</pdfrwt>
<pdfrwt beam="2">  1       -2 0.17601357E+00 0.34664845E+04</pdfrwt>
<totfact> 0.46791292E-01</totfact>
</mgrwt>
</event>
<event>
12    1  0.1980523E-007  0.2422792E+04  0.7818608E-02  0.8431020E-01
         -2   -1    0    0    0  501 -0.00000000000E+00  0.00000000000E+00  0.80917051593E+03  0.80917051593E+03  0.00000000000E+00 0.  1.
          2   -1    0    0  501    0  0.00000000000E+00 -0.00000000000E+00 -0.18135606632E+04  0.18135606632E+04  0.00000000000E+00 0. -1.
         23    2    1    2    0    0  0.29651838945E+03 -0.89367964996E+03 -0.91674204219E+03  0.13180261397E+04  0.10094781286E+03 0.  0.
        254    2    1    2    0    0 -0.29651838945E+03  0.89367964996E+03 -0.87648105034E+02  0.13047050394E+04  0.89888073598E+03 0.  0.
        -24    2    4    4    0    0 -0.44023763086E+03  0.10322752533E+03 -0.17612874823E+03  0.49263440878E+03  0.84865959906E+02 0.  0.
         24    2    4    4    0    0  0.14371924141E+03  0.79045212463E+03  0.88480643194E+02  0.81207063063E+03  0.78486325099E+02 0.  0.
         13    1    3    3    0    0  0.98241006097E+02 -0.34940597837E+03 -0.28992204466E+03  0.46453269527E+03  0.00000000000E+00 0.  1.
        -13    1    3    3    0    0  0.19827738335E+03 -0.54427367160E+03 -0.62681999754E+03  0.85349344441E+03  0.00000000000E+00 0. -1.
          4    1    6    6  502    0  0.30204011924E+02  0.13176451176E+03 -0.13832789184E+02  0.13588787640E+03  0.00000000000E+00 0. -1.
          1    1    5    5  503    0 -0.35513847400E+02  0.34581089856E+02 -0.19006768347E+02  0.53088062460E+02  0.00000000000E+00 0. -1.
         -2    1    5    5    0  503 -0.40472378346E+03  0.68646435473E+02 -0.15712197988E+03  0.43954634632E+03  0.00000000000E+00 0.  1.
         -3    1    6    6    0  502  0.11351522949E+03  0.65868761287E+03  0.10231343238E+03  0.67618275423E+03  0.00000000000E+00 0.  1.
<mgrwt>
<rscale>  0 0.24227916E+04</rscale>
<asrwt>0</asrwt>
<pdfrwt beam="1">  1        2 0.27900933E+00 0.24227916E+04</pdfrwt>
<pdfrwt beam="2">  1       -2 0.12448777E+00 0.24227916E+04</pdfrwt>
<totfact> 0.36878137E+00</totfact>
</mgrwt>
</event>
<event>
12    1  0.1980523E-007  0.2429647E+04  0.7818608E-02  0.8428487E-01
         -1   -1    0    0    0  501 -0.00000000000E+00  0.00000000000E+00  0.90123514592E+03  0.90123514592E+03  0.00000000000E+00 0.  1.
          1   -1    0    0  501    0  0.00000000000E+00 -0.00000000000E+00 -0.16375256091E+04  0.16375256091E+04  0.00000000000E+00 0. -1.
         23    2    1    2    0    0  0.94724252436E+03 -0.34454251860E+03 -0.61095209802E+03  0.11824592745E+04  0.94707564319E+02 0.  0.
        254    2    1    2    0    0 -0.94724252436E+03  0.34454251860E+03 -0.12533836513E+03  0.13563014805E+04  0.89881369210E+03 0.  0.
        -24    2    4    4    0    0 -0.33968164612E+03  0.58283564578E+03  0.28617574698E+02  0.67984632490E+03  0.79316134550E+02 0.  0.
         24    2    4    4    0    0 -0.60756087823E+03 -0.23829312718E+03 -0.15395593983E+03  0.67645515557E+03  0.89304596038E+02 0.  0.
         13    1    3    3    0    0  0.23590409149E+03 -0.44624236119E+02 -0.15786392820E+03  0.28733792416E+03  0.00000000000E+00 0. -1.
        -13    1    3    3    0    0  0.71133843286E+03 -0.29991828248E+03 -0.45308816982E+03  0.89512135036E+03  0.00000000000E+00 0.  1.
          2    1    6    6  502    0 -0.51586937302E+03 -0.17690882851E+03 -0.10337135489E+03  0.55507078885E+03  0.00000000000E+00 0. -1.
          3    1    5    5  503    0 -0.20668104542E+03  0.36307878228E+03 -0.20651652387E+02  0.41829385296E+03  0.00000000000E+00 0. -1.
         -4    1    5    5    0  503 -0.13300060070E+03  0.21975686350E+03  0.49269227085E+02  0.26155247194E+03  0.00000000000E+00 0.  1.
         -1    1    6    6    0  502 -0.91691505215E+02 -0.61384298671E+02 -0.50584584932E+02  0.12138436672E+03  0.00000000000E+00 0.  1.
<mgrwt>
<rscale>  0 0.24296466E+04</rscale>
<asrwt>0</asrwt>
<pdfrwt beam="1">  1        1 0.25192702E+00 0.24296466E+04</pdfrwt>
<pdfrwt beam="2">  1       -1 0.13865156E+00 0.24296466E+04</pdfrwt>
<totfact> 0.20207126E+00</totfact>
</mgrwt>
</event>
<event>
12    1  0.1980523E-007  0.6493610E+04  0.7818608E-02  0.7632041E-01
         -2   -1    0    0    0  501 -0.00000000000E+00  0.00000000000E+00  0.30924997011E+04  0.30924997011E+04  0.00000000000E+00 0.  1.
          2   -1    0    0  501    0  0.00000000000E+00 -0.00000000000E+00 -0.34088099357E+04  0.34088099357E+04  0.00000000000E+00 0. -1.
         23    2    1    2    0    0  0.30001442694E+04  0.31657039031E+03 -0.11734995050E+04  0.32379214807E+04  0.77149059802E+02 0.  0.
        254    2    1    2    0    0 -0.30001442694E+04 -0.31657039031E+03  0.85718927039E+03  0.32633881562E+04  0.90213433788E+03 0.  0.
        -24    2    4    4    0    0 -0.23938748722E+03  0.19730556919E+03 -0.20113585785E+02  0.32024467091E+03  0.76917073778E+02 0.  0.
         24    2    4    4    0    0 -0.27607567822E+04 -0.51387595950E+03  0.87730285618E+03  0.29431434853E+04  0.81158866131E+02 0.  0.
         11    1    3    3    0    0  0.27203813578E+04  0.29825163440E+03 -0.10850744731E+04  0.29439455466E+04  0.00000000000E+00 0.  1.
        -11    1    3    3    0    0  0.27976291161E+03  0.18318755908E+02 -0.88425031867E+02  0.29397593403E+03  0.00000000000E+00 0. -1.
          2    1    6    6  502    0 -0.24527009340E+04 -0.48234521816E+03  0.77938168491E+03  0.26183648699E+04  0.00000000000E+00 0. -1.
          3    1    5    5  503    0 -0.18459305832E+03  0.16314671997E+03 -0.46116772772E+02  0.25063560431E+03  0.00000000000E+00 0. -1.
         -4    1    5    5    0  503 -0.54794428904E+02  0.34158849215E+02  0.26003186987E+02  0.69609066594E+02  0.00000000000E+00 0.  1.
         -1    1    6    6    0  502 -0.30805584822E+03 -0.31530741341E+02  0.97921171269E+02  0.32477861545E+03  0.00000000000E+00 0.  1.
<mgrwt>
<rscale>  0 0.64936103E+04</rscale>
<asrwt>0</asrwt>
<pdfrwt beam="1">  1        2 0.52443230E+00 0.64936103E+04</pdfrwt>
<pdfrwt beam="2">  1       -2 0.47576919E+00 0.64936103E+04</pdfrwt>
<totfact> 0.14436680E-03</totfact>
</mgrwt>
</event>
<event>
12    1  0.1980523E-007  0.1960409E+04  0.7818608E-02  0.8625358E-01
          2   -1    0    0  501    0  0.00000000000E+00  0.00000000000E+00  0.16949738020E+04  0.16949738020E+04  0.00000000000E+00 0. -1.
         -2   -1    0    0    0  501 -0.00000000000E+00 -0.00000000000E+00 -0.56685293436E+03  0.56685293436E+03  0.00000000000E+00 0.  1.
         23    2    1    2    0    0 -0.95603713186E+02 -0.37801105087E+03  0.12051535758E+04  0.12700588201E+04  0.92853867750E+02 0.  0.
        254    2    1    2    0    0  0.95603713186E+02  0.37801105087E+03 -0.77032708141E+02  0.99176791625E+03  0.90864577093E+03 0.  0.
        -24    2    4    4    0    0  0.10202021226E+03  0.21383679494E+03 -0.48401502655E+03  0.54573828584E+03  0.86170947082E+02 0.  0.
         24    2    4    4    0    0 -0.64164990745E+01  0.16417425593E+03  0.40698231841E+03  0.44602963041E+03  0.79457321451E+02 0.  0.
         11    1    3    3    0    0 -0.41777635629E+02 -0.47430506972E+02  0.14293541393E+03  0.15628677611E+03  0.00000000000E+00 0. -1.
        -11    1    3    3    0    0 -0.53826077556E+02 -0.33058054389E+03  0.10622181618E+04  0.11137720440E+04  0.00000000000E+00 0.  1.
          4    1    6    6  502    0 -0.28599657928E+02  0.58027187785E+02  0.22570672278E+03  0.23479484591E+03  0.00000000000E+00 0. -1.
          1    1    5    5  503    0  0.98053624437E+02  0.17942937465E+03 -0.33270725847E+03  0.39051700807E+03  0.00000000000E+00 0. -1.
         -2    1    5    5    0  503  0.39665878233E+01  0.34407420288E+02 -0.15130776808E+03  0.15522127777E+03  0.00000000000E+00 0.  1.
         -3    1    6    6    0  502  0.22183158853E+02  0.10614706814E+03  0.18127559563E+03  0.21123478450E+03  0.00000000000E+00 0.  1.
<mgrwt>
<rscale>  0 0.19604090E+04</rscale>
<asrwt>0</asrwt>
<pdfrwt beam="1">  1        2 0.26076520E+00 0.19604090E+04</pdfrwt>
<pdfrwt beam="2">  1       -2 0.87208144E-01 0.19604090E+04</pdfrwt>
<totfact> 0.10453042E+01</totfact>
</mgrwt>
</event>
<event>
12    1  0.1980523E-007  0.1389195E+04  0.7818608E-02  0.8961677E-01
         -1   -1    0    0    0  501 -0.00000000000E+00  0.00000000000E+00  0.64072768612E+03  0.64072768612E+03  0.00000000000E+00 0.  1.
          1   -1    0    0  501    0  0.00000000000E+00 -0.00000000000E+00 -0.75299639207E+03  0.75299639207E+03  0.00000000000E+00 0. -1.
         23    2    1    2    0    0  0.30870567442E+02 -0.32079186020E+02  0.36477516401E+03  0.37861988907E+03  0.91159387938E+02 0.  0.
        254    2    1    2    0    0 -0.30870567442E+02  0.32079186020E+02 -0.47704386996E+03  0.10151041891E+04  0.89492099920E+03 0.  0.
        -24    2    4    4    0    0 -0.28388445525E+03  0.17173505497E+03  0.10697693546E+03  0.35811582114E+03  0.81972944247E+02 0.  0.
         24    2    4    4    0    0  0.25301388781E+03 -0.13965586895E+03 -0.58402080542E+03  0.65698836799E+03  0.83866711834E+02 0.  0.
         11    1    3    3    0    0  0.42386667350E+02 -0.16329811488E+02  0.71578898462E+02  0.84775179252E+02  0.00000000000E+00 0. -1.
        -11    1    3    3    0    0 -0.11516099908E+02 -0.15749374533E+02  0.29319626555E+03  0.29384470981E+03  0.00000000000E+00 0.  1.
          2    1    6    6  502    0  0.17144576882E+03 -0.13654681231E+03 -0.43355810761E+03  0.48580995901E+03  0.00000000000E+00 0. -1.
          3    1    5    5  503    0 -0.24604141282E+03  0.15222141358E+03  0.12054151236E+03  0.31342940478E+03  0.00000000000E+00 0. -1.
         -4    1    5    5    0  503 -0.37843042430E+02  0.19513641384E+02 -0.13564576900E+02  0.44686416358E+02  0.00000000000E+00 0.  1.
         -1    1    6    6    0  502  0.81568118986E+02 -0.31090566361E+01 -0.15046269780E+03  0.17117840897E+03  0.00000000000E+00 0.  1.
<mgrwt>
<rscale>  0 0.13891949E+04</rscale>
<asrwt>0</asrwt>
<pdfrwt beam="1">  1        1 0.11584560E+00 0.13891949E+04</pdfrwt>
<pdfrwt beam="2">  1       -1 0.98573491E-01 0.13891949E+04</pdfrwt>
<totfact> 0.23404936E+01</totfact>
</mgrwt>
</event>
<event>
12    1  0.1980523E-007  0.1808409E+04  0.7818608E-02  0.8701841E-01
          1   -1    0    0  501    0  0.00000000000E+00  0.00000000000E+00  0.16561215607E+04  0.16561215607E+04  0.00000000000E+00 0. -1.
         -1   -1    0    0    0  501 -0.00000000000E+00 -0.00000000000E+00 -0.49367478193E+03  0.49367478193E+03  0.00000000000E+00 0.  1.
         23    2    1    2    0    0  0.59418400426E+03  0.31881468308E+03  0.50214960217E+03  0.84593347526E+03  0.93550994376E+02 0.  0.
        254    2    1    2    0    0 -0.59418400426E+03 -0.31881468308E+03  0.66029717665E+03  0.13038628674E+04  0.89964914410E+03 0.  0.
        -24    2    4    4    0    0 -0.54598570206E+02 -0.75751657401E+02  0.69464598054E+03  0.70560868163E+03  0.81432523220E+02 0.  0.
         24    2    4    4    0    0 -0.53958543406E+03 -0.24306302568E+03 -0.34348803893E+02  0.59825418579E+03  0.80598730684E+02 0.  0.
         13    1    3    3    0    0  0.38289734294E+03  0.25169526382E+03  0.31821122017E+03  0.55787029111E+03  0.00000000000E+00 0.  1.
        -13    1    3    3    0    0  0.21128666132E+03  0.67119419259E+02  0.18393838199E+03  0.28806318415E+03  0.00000000000E+00 0. -1.
          2    1    6    6  502    0 -0.18679404793E+03 -0.43221022916E+02 -0.65391542526E+01  0.19184064664E+03  0.00000000000E+00 0. -1.
          3    1    5    5  503    0 -0.12326443591E+02 -0.27311250335E+02  0.54095711543E+02  0.61840048624E+02  0.00000000000E+00 0. -1.
         -4    1    5    5    0  503 -0.42272126615E+02 -0.48440407066E+02  0.64055026900E+03  0.64376863300E+03  0.00000000000E+00 0.  1.
         -1    1    6    6    0  502 -0.35279138613E+03 -0.19984200276E+03 -0.27809649640E+02  0.40641353916E+03  0.00000000000E+00 0.  1.
<mgrwt>
<rscale>  0 0.18084086E+04</rscale>
<asrwt>0</asrwt>
<pdfrwt beam="1">  1        1 0.25478793E+00 0.18084086E+04</pdfrwt>
<pdfrwt beam="2">  1       -1 0.75949967E-01 0.18084086E+04</pdfrwt>
<totfact> 0.83844031E+00</totfact>
</mgrwt>
</event>
<event>
12    1  0.1980523E-007  0.3321618E+04  0.7818608E-02  0.8157416E-01
         -1   -1    0    0    0  501 -0.00000000000E+00  0.00000000000E+00  0.10428715112E+04  0.10428715112E+04  0.00000000000E+00 0.  1.
          1   -1    0    0  501    0  0.00000000000E+00 -0.00000000000E+00 -0.26448965577E+04  0.26448965577E+04  0.00000000000E+00 0. -1.
         23    2    1    2    0    0 -0.69202080048E+02  0.13340641457E+04 -0.15881574279E+04  0.20773153051E+04  0.92080337312E+02 0.  0.
        254    2    1    2    0    0  0.69202080048E+02 -0.13340641457E+04 -0.13867618591E+02  0.16104527638E+04  0.89936072899E+03 0.  0.
        -24    2    4    4    0    0  0.36402373197E+01 -0.10250927006E+04  0.38298101687E+03  0.10971447684E+04  0.78891618759E+02 0.  0.
         24    2    4    4    0    0  0.65561842729E+02 -0.30897144511E+03 -0.39684863547E+03  0.51330799536E+03  0.78959163560E+02 0.  0.
         13    1    3    3    0    0 -0.97428967403E+01  0.49031779930E+03 -0.64816679301E+03  0.81278943147E+03  0.00000000000E+00 0. -1.
        -13    1    3    3    0    0 -0.59459183308E+02  0.84374634638E+03 -0.93999063485E+03  0.12645258736E+04  0.00000000000E+00 0.  1.
          2    1    6    6  502    0  0.74340021013E+02 -0.27236695398E+03 -0.31372681804E+03  0.42206008186E+03  0.00000000000E+00 0. -1.
          3    1    5    5  503    0 -0.21331852323E+02 -0.91223833496E+03  0.34360349654E+03  0.97503702008E+03  0.00000000000E+00 0. -1.
         -4    1    5    5    0  503  0.24972089643E+02 -0.11285436560E+03  0.39377520339E+02  0.12210774834E+03  0.00000000000E+00 0.  1.
         -1    1    6    6    0  502 -0.87781782844E+01 -0.36604491134E+02 -0.83121817426E+02  0.91247913496E+02  0.00000000000E+00 0.  1.
<mgrwt>
<rscale>  0 0.33216184E+04</rscale>
<asrwt>0</asrwt>
<pdfrwt beam="1">  1        1 0.40690716E+00 0.33216184E+04</pdfrwt>
<pdfrwt beam="2">  1       -1 0.16044177E+00 0.33216184E+04</pdfrwt>
<totfact> 0.25761150E-01</totfact>
</mgrwt>
</event>
<event>
12    1  0.1980523E-007  0.2402046E+04  0.7818608E-02  0.8438738E-01
          1   -1    0    0  501    0  0.00000000000E+00  0.00000000000E+00  0.13291674710E+04  0.13291674710E+04  0.00000000000E+00 0. -1.
         -1   -1    0    0    0  501 -0.00000000000E+00 -0.00000000000E+00 -0.10852329554E+04  0.10852329554E+04  0.00000000000E+00 0.  1.
         23    2    1    2    0    0  0.52808921855E+03  0.85179203125E+03 -0.13418898303E+03  0.10153610575E+04  0.92322839769E+02 0.  0.
        254    2    1    2    0    0 -0.52808921855E+03 -0.85179203125E+03  0.37812349858E+03  0.13990393689E+04  0.89994771422E+03 0.  0.
        -24    2    4    4    0    0 -0.10469079750E+02 -0.54921552637E+03  0.53836171269E+03  0.77332371241E+03  0.80305257904E+02 0.  0.
         24    2    4    4    0    0 -0.51762013879E+03 -0.30257650488E+03 -0.16023821410E+03  0.62571565650E+03  0.79753671648E+02 0.  0.
         13    1    3    3    0    0  0.26570902251E+03  0.46930234580E+03 -0.31024308334E+02  0.54019300636E+03  0.00000000000E+00 0. -1.
        -13    1    3    3    0    0  0.26238019604E+03  0.38248968545E+03 -0.10316467469E+03  0.47516805117E+03  0.00000000000E+00 0.  1.
          2    1    6    6  502    0 -0.51821691953E+03 -0.30569470191E+03 -0.15968728167E+03  0.62249341714E+03  0.00000000000E+00 0. -1.
          1    1    5    5  503    0 -0.44678847987E+02 -0.36636050823E+03  0.35293984186E+03  0.51066892741E+03  0.00000000000E+00 0. -1.
         -2    1    5    5    0  503  0.34209768236E+02 -0.18285501813E+03  0.18542187083E+03  0.26265478500E+03  0.00000000000E+00 0.  1.
         -1    1    6    6    0  502  0.59678073605E+00  0.31181970249E+01 -0.55093243436E+00  0.32222393580E+01  0.00000000000E+00 0.  1.
<mgrwt>
<rscale>  0 0.24020461E+04</rscale>
<asrwt>0</asrwt>
<pdfrwt beam="1">  1        1 0.20448730E+00 0.24020461E+04</pdfrwt>
<pdfrwt beam="2">  1       -1 0.16695892E+00 0.24020461E+04</pdfrwt>
<totfact> 0.20020144E+00</totfact>
</mgrwt>
</event>
<event>
12    1  0.1980523E-007  0.1615138E+04  0.7818608E-02  0.8811302E-01
          3   -1    0    0  501    0  0.00000000000E+00  0.00000000000E+00  0.27061665469E+03  0.27061665469E+03  0.00000000000E+00 0. -1.
         -3   -1    0    0    0  501 -0.00000000000E+00 -0.00000000000E+00 -0.24099312894E+04  0.24099312894E+04  0.00000000000E+00 0.  1.
         23    2    1    2    0    0  0.34156386239E+02  0.52587451496E+03 -0.99849665416E+03  0.11326191547E+04  0.90110582603E+02 0.  0.
        254    2    1    2    0    0 -0.34156386239E+02 -0.52587451496E+03 -0.11408179805E+04  0.15479287893E+04  0.90382919180E+03 0.  0.
        -24    2    4    4    0    0 -0.35579971009E+03 -0.43421257446E+03 -0.30414397526E+03  0.64334008781E+03  0.79050094082E+02 0.  0.
         24    2    4    4    0    0  0.32164332386E+03 -0.91661940499E+02 -0.83667400525E+03  0.90458870151E+03  0.80006179285E+02 0.  0.
         13    1    3    3    0    0 -0.12424474126E+02  0.29237702161E+03 -0.48195844582E+03  0.56384628563E+03  0.00000000000E+00 0. -1.
        -13    1    3    3    0    0  0.46580860364E+02  0.23349749335E+03 -0.51653820834E+03  0.56877286910E+03  0.00000000000E+00 0.  1.
          2    1    6    6  502    0  0.28753351291E+03 -0.63311327338E+02 -0.66469430424E+03  0.72698168017E+03  0.00000000000E+00 0. -1.
          1    1    5    5  503    0 -0.34126779197E+03 -0.39731902336E+03 -0.26258239171E+03  0.58589728161E+03  0.00000000000E+00 0. -1.
         -2    1    5    5    0  503 -0.14531918123E+02 -0.36893551102E+02 -0.41561583549E+02  0.57442806202E+02  0.00000000000E+00 0.  1.
         -1    1    6    6    0  502  0.34109810942E+02 -0.28350613161E+02 -0.17197970102E+03  0.17760702134E+03  0.00000000000E+00 0.  1.
<mgrwt>
<rscale>  0 0.16151378E+04</rscale>
<asrwt>0</asrwt>
<pdfrwt beam="1">  1        3 0.41633330E-01 0.16151378E+04</pdfrwt>
<pdfrwt beam="2">  1       -3 0.37075867E+00 0.16151378E+04</pdfrwt>
<totfact> 0.22257798E-01</totfact>
</mgrwt>
</event>
<event>
12    1  0.1980523E-007  0.2108580E+04  0.7818608E-02  0.8557473E-01
          2   -1    0    0  501    0  0.00000000000E+00  0.00000000000E+00  0.13417623945E+04  0.13417623945E+04  0.00000000000E+00 0. -1.
         -2   -1    0    0    0  501 -0.00000000000E+00 -0.00000000000E+00 -0.82840867701E+03  0.82840867701E+03  0.00000000000E+00 0.  1.
         23    2    1    2    0    0  0.76221181721E+03 -0.38402929649E+03  0.10632013394E+03  0.86494557485E+03  0.91550651161E+02 0.  0.
        254    2    1    2    0    0 -0.76221181721E+03  0.38402929649E+03  0.40703358353E+03  0.13052254966E+04  0.89971768021E+03 0.  0.
        -24    2    4    4    0    0  0.93060700492E+02  0.19390750973E+03  0.35686607042E+03  0.42414185894E+03  0.79262273374E+02 0.  0.
         24    2    4    4    0    0 -0.85527251770E+03  0.19012178676E+03  0.50167513116E+02  0.88108363770E+03  0.78448861784E+02 0.  0.
         11    1    3    3    0    0  0.40360614610E+03 -0.24496712926E+03  0.85079249199E+02  0.47973460812E+03  0.00000000000E+00 0. -1.
        -11    1    3    3    0    0  0.35860567111E+03 -0.13906216723E+03  0.21240884737E+02  0.38521096673E+03  0.00000000000E+00 0.  1.
          4    1    6    6  502    0 -0.26357011628E+02 -0.37775877906E+01 -0.80129515272E+01  0.27805927851E+02  0.00000000000E+00 0. -1.
          3    1    5    5  503    0  0.99100348191E+01  0.99307643926E+02  0.12185334838E+03  0.15750700125E+03  0.00000000000E+00 0. -1.
         -2    1    5    5    0  503  0.83150665673E+02  0.94599865806E+02  0.23501272204E+03  0.26663485769E+03  0.00000000000E+00 0.  1.
         -3    1    6    6    0  502 -0.82891550607E+03  0.19389937455E+03  0.58180464643E+02  0.85327770985E+03  0.00000000000E+00 0.  1.
<mgrwt>
<rscale>  0 0.21085802E+04</rscale>
<asrwt>0</asrwt>
<pdfrwt beam="1">  1        2 0.20642498E+00 0.21085802E+04</pdfrwt>
<pdfrwt beam="2">  1       -2 0.12744749E+00 0.21085802E+04</pdfrwt>
<totfact> 0.65749316E+00</totfact>
</mgrwt>
</event>
<event>
12    1  0.1980523E-007  0.1944209E+04  0.7818608E-02  0.8633158E-01
          2   -1    0    0  501    0  0.00000000000E+00  0.00000000000E+00  0.20060121542E+04  0.20060121542E+04  0.00000000000E+00 0. -1.
         -2   -1    0    0    0  501 -0.00000000000E+00 -0.00000000000E+00 -0.47107737615E+03  0.47107737615E+03  0.00000000000E+00 0.  1.
         23    2    1    2    0    0  0.66467629905E+03 -0.12747347755E+03  0.13570271591E+03  0.69340692778E+03  0.65983864633E+02 0.  0.
        254    2    1    2    0    0 -0.66467629905E+03  0.12747347755E+03  0.13992320622E+04  0.17836826026E+04  0.87500239600E+03 0.  0.
        -24    2    4    4    0    0 -0.72572298484E+03  0.10054539114E+03  0.14791029895E+04  0.16522776603E+04  0.74111987924E+02 0.  0.
         24    2    4    4    0    0  0.61046685786E+02  0.26928086419E+02 -0.79870927328E+02  0.13140494230E+03  0.80225146595E+02 0.  0.
         11    1    3    3    0    0  0.49141867404E+03 -0.93868003754E+02  0.70429261459E+02  0.50523637655E+03  0.00000000000E+00 0.  1.
        -11    1    3    3    0    0  0.17325762501E+03 -0.33605473801E+02  0.65273454450E+02  0.18817055123E+03  0.00000000000E+00 0. -1.
          2    1    6    6  502    0  0.29519704531E+02 -0.27218718093E+02 -0.20483658770E+02  0.45076067340E+02  0.00000000000E+00 0. -1.
          1    1    5    5  503    0 -0.24616827901E+02  0.15709525165E+02  0.77213696771E+02  0.82551392271E+02  0.00000000000E+00 0. -1.
         -2    1    5    5    0  503 -0.70110615694E+03  0.84835865971E+02  0.14018892927E+04  0.15697262680E+04  0.00000000000E+00 0.  1.
         -1    1    6    6    0  502  0.31526981255E+02  0.54146804512E+02 -0.59387268558E+02  0.86328874965E+02  0.00000000000E+00 0.  1.
<mgrwt>
<rscale>  0 0.19442088E+04</rscale>
<asrwt>0</asrwt>
<pdfrwt beam="1">  1        2 0.30861725E+00 0.19442088E+04</pdfrwt>
<pdfrwt beam="2">  1       -2 0.72473444E-01 0.19442088E+04</pdfrwt>
<totfact> 0.10657048E+01</totfact>
</mgrwt>
</event>
<event>
12    1  0.3857871E-007  0.2580783E+04  0.7818608E-02  0.8374758E-01
         -1   -1    0    0    0  501 -0.00000000000E+00  0.00000000000E+00  0.94704947250E+03  0.94704947250E+03  0.00000000000E+00 0.  1.
          1   -1    0    0  501    0  0.00000000000E+00 -0.00000000000E+00 -0.17582089239E+04  0.17582089239E+04  0.00000000000E+00 0. -1.
         23    2    1    2    0    0  0.86450613539E+03 -0.71561681473E+03 -0.20464223822E+03  0.11442789925E+04  0.89541517694E+02 0.  0.
        254    2    1    2    0    0 -0.86450613539E+03  0.71561681473E+03 -0.60651721316E+03  0.15609794039E+04  0.89961952278E+03 0.  0.
        -24    2    4    4    0    0  0.17925854232E+03  0.93586852792E+02 -0.51686308324E+02  0.22280287902E+03  0.77958478821E+02 0.  0.
         24    2    4    4    0    0 -0.10437646777E+04  0.62202996194E+03 -0.55483090484E+03  0.13381765248E+04  0.80703796024E+02 0.  0.
         13    1    3    3    0    0  0.37760171388E+03 -0.36717551331E+03 -0.80470129679E+02  0.53280048205E+03  0.00000000000E+00 0. -1.
        -13    1    3    3    0    0  0.48690442151E+03 -0.34844130142E+03 -0.12417210854E+03  0.61147851047E+03  0.00000000000E+00 0.  1.
          2    1    6    6  502    0 -0.10074851911E+04  0.58504843426E+03 -0.52044859858E+03  0.12759995394E+04  0.00000000000E+00 0. -1.
          3    1    5    5  503    0  0.16949575250E+03  0.57167345490E+02 -0.39599473694E+02  0.18320762490E+03  0.00000000000E+00 0. -1.
         -4    1    5    5    0  503  0.97627898245E+01  0.36419507302E+02 -0.12086834630E+02  0.39595254118E+02  0.00000000000E+00 0.  1.
         -1    1    6    6    0  502 -0.36279486597E+02  0.36981527685E+02 -0.34382306256E+02  0.62176985462E+02  0.00000000000E+00 0.  1.
<mgrwt>
<rscale>  0 0.25807835E+04</rscale>
<asrwt>0</asrwt>
<pdfrwt beam="1">  1        1 0.27049368E+00 0.25807835E+04</pdfrwt>
<pdfrwt beam="2">  1       -1 0.14569992E+00 0.25807835E+04</pdfrwt>
<totfact> 0.14474634E+00</totfact>
</mgrwt>
</event>
<event>
12    1  0.1980523E-007  0.2229629E+04  0.7818608E-02  0.8506196E-01
          2   -1    0    0  501    0  0.00000000000E+00  0.00000000000E+00  0.18778339634E+04  0.18778339634E+04  0.00000000000E+00 0. -1.
         -2   -1    0    0    0  501 -0.00000000000E+00 -0.00000000000E+00 -0.66183233669E+03  0.66183233669E+03  0.00000000000E+00 0.  1.
         23    2    1    2    0    0 -0.50148228304E+03  0.77442615625E+03  0.65066769912E+03  0.11326693897E+04  0.91384571498E+02 0.  0.
        254    2    1    2    0    0  0.50148228304E+03 -0.77442615625E+03  0.56533392755E+03  0.14069969104E+04  0.89934281811E+03 0.  0.
        -24    2    4    4    0    0  0.63047829780E+03 -0.34113173974E+03  0.61137888036E+03  0.94547674009E+03  0.79173119510E+02 0.  0.
         24    2    4    4    0    0 -0.12899601476E+03 -0.43329441652E+03 -0.46044952812E+02  0.46152017029E+03  0.80602150690E+02 0.  0.
         11    1    3    3    0    0 -0.28402937559E+03  0.37722799511E+03  0.29400100792E+03  0.55624656327E+03  0.00000000000E+00 0.  1.
        -11    1    3    3    0    0 -0.21745290745E+03  0.39719816115E+03  0.35666669120E+03  0.57642282639E+03  0.00000000000E+00 0. -1.
          4    1    6    6  502    0 -0.19872930286E+02 -0.19246814855E+03 -0.36819687078E+02  0.19696347611E+03  0.00000000000E+00 0. -1.
          1    1    5    5  503    0  0.51488988247E+03 -0.26228663182E+03  0.52708628191E+03  0.78212902828E+03  0.00000000000E+00 0. -1.
         -4    1    5    5    0  503  0.11558841533E+03 -0.78845107914E+02  0.84292598451E+02  0.16334771181E+03  0.00000000000E+00 0.  1.
         -3    1    6    6    0  502 -0.10912308447E+03 -0.24082626797E+03 -0.92252657342E+01  0.26455669418E+03  0.00000000000E+00 0.  1.
<mgrwt>
<rscale>  0 0.22296289E+04</rscale>
<asrwt>0</asrwt>
<pdfrwt beam="1">  1        2 0.28889753E+00 0.22296289E+04</pdfrwt>
<pdfrwt beam="2">  1       -2 0.10182036E+00 0.22296289E+04</pdfrwt>
<totfact> 0.56360039E+00</totfact>
</mgrwt>
</event>
<event>
12    1  0.1980523E-007  0.2031529E+04  0.7818608E-02  0.8592020E-01
          2   -1    0    0  501    0  0.00000000000E+00  0.00000000000E+00  0.31445211519E+04  0.31445211519E+04  0.00000000000E+00 0.  1.
         -2   -1    0    0    0  501 -0.00000000000E+00 -0.00000000000E+00 -0.32811906630E+03  0.32811906630E+03  0.00000000000E+00 0. -1.
         23    2    1    2    0    0 -0.65405173435E+03  0.43959032518E+03  0.14873505026E+04  0.16856831762E+04  0.91065514970E+02 0.  0.
        254    2    1    2    0    0  0.65405173435E+03 -0.43959032518E+03  0.13290515830E+04  0.17869570419E+04  0.89767145112E+03 0.  0.
        -24    2    4    4    0    0  0.91278765583E+02  0.14749120698E+02  0.96577465682E+03  0.97361495716E+03  0.81584603025E+02 0.  0.
         24    2    4    4    0    0  0.56277296877E+03 -0.45433944588E+03  0.36327692619E+03  0.81334208475E+03  0.80109145972E+02 0.  0.
         13    1    3    3    0    0 -0.11514082707E+03  0.38675375605E+02  0.23973634956E+03  0.26875027820E+03  0.00000000000E+00 0. -1.
        -13    1    3    3    0    0 -0.53891090728E+03  0.40091494958E+03  0.12476141530E+04  0.14169328980E+04  0.00000000000E+00 0.  1.
          4    1    6    6  502    0  0.24979629576E+03 -0.23609269280E+03  0.20542623773E+03  0.40042213740E+03  0.00000000000E+00 0. -1.
          3    1    5    5  503    0  0.22155607303E+02  0.36129921404E+02  0.20067394666E+03  0.20510064608E+03  0.00000000000E+00 0. -1.
         -4    1    5    5    0  503  0.69123158280E+02 -0.21380800706E+02  0.76510071016E+03  0.76851431108E+03  0.00000000000E+00 0.  1.
         -3    1    6    6    0  502  0.31297667300E+03 -0.21824675308E+03  0.15785068846E+03  0.41291994735E+03  0.00000000000E+00 0.  1.
<mgrwt>
<rscale>  0 0.20315288E+04</rscale>
<asrwt>0</asrwt>
<pdfrwt beam="1">  1        2 0.48377246E+00 0.20315288E+04</pdfrwt>
<pdfrwt beam="2">  1       -2 0.50479859E-01 0.20315288E+04</pdfrwt>
<totfact> 0.48595263E+00</totfact>
</mgrwt>
</event>
<event>
12    1  0.1980523E-007  0.2145283E+04  0.7818608E-02  0.8541554E-01
          3   -1    0    0  501    0  0.00000000000E+00  0.00000000000E+00  0.13628983218E+04  0.13628983218E+04  0.00000000000E+00 0. -1.
         -3   -1    0    0    0  501 -0.00000000000E+00 -0.00000000000E+00 -0.84420100798E+03  0.84420100798E+03  0.00000000000E+00 0.  1.
         23    2    1    2    0    0 -0.72384738921E+03 -0.24376972395E+03 -0.23821728528E+03  0.80492854561E+03  0.88225661448E+02 0.  0.
        254    2    1    2    0    0  0.72384738921E+03  0.24376972395E+03  0.75691459906E+03  0.14021707841E+04  0.89988025670E+03 0.  0.
        -24    2    4    4    0    0  0.39192437593E+03  0.56748362866E+03  0.56634720760E+03  0.89581872398E+03  0.78100201303E+02 0.  0.
         24    2    4    4    0    0  0.33192301328E+03 -0.32371390471E+03  0.19056739146E+03  0.50635206015E+03  0.71504540264E+02 0.  0.
         11    1    3    3    0    0 -0.30342539863E+03 -0.74088658226E+02 -0.13317789551E+03  0.33954742477E+03  0.00000000000E+00 0.  1.
        -11    1    3    3    0    0 -0.42042199058E+03 -0.16968106573E+03 -0.10503938977E+03  0.46538112084E+03  0.00000000000E+00 0. -1.
          2    1    6    6  502    0  0.13822962818E+03 -0.87374930910E+02  0.68851179973E+02  0.17743250447E+03  0.00000000000E+00 0. -1.
          1    1    5    5  503    0  0.92354611221E+02  0.19693702535E+03  0.18322252191E+03  0.28440122837E+03  0.00000000000E+00 0. -1.
         -2    1    5    5    0  503  0.29956976471E+03  0.37054660331E+03  0.38312468569E+03  0.61141749561E+03  0.00000000000E+00 0.  1.
         -1    1    6    6    0  502  0.19369338510E+03 -0.23633897380E+03  0.12171621149E+03  0.32891955568E+03  0.00000000000E+00 0.  1.
<mgrwt>
<rscale>  0 0.21452833E+04</rscale>
<asrwt>0</asrwt>
<pdfrwt beam="1">  1        3 0.20967667E+00 0.21452833E+04</pdfrwt>
<pdfrwt beam="2">  1       -3 0.12987708E+00 0.21452833E+04</pdfrwt>
<totfact> 0.14294469E-01</totfact>
</mgrwt>
</event>
<event>
12    1  0.1980523E-007  0.1479699E+04  0.7818608E-02  0.8898067E-01
          2   -1    0    0  501    0  0.00000000000E+00  0.00000000000E+00  0.15270781605E+04  0.15270781605E+04  0.00000000000E+00 0. -1.
         -2   -1    0    0    0  501 -0.00000000000E+00 -0.00000000000E+00 -0.35844722019E+03  0.35844722019E+03  0.00000000000E+00 0.  1.
         23    2    1    2    0    0 -0.14421117863E+03  0.40170737296E+03  0.58859824154E+03  0.73288228115E+03  0.92211011011E+02 0.  0.
        254    2    1    2    0    0  0.14421117863E+03 -0.40170737296E+03  0.58003269873E+03  0.11526430995E+04  0.89999028088E+03 0.  0.
        -24    2    4    4    0    0  0.33965614637E+03 -0.60811755093E+03  0.40469933156E+03  0.80936234674E+03  0.78183155738E+02 0.  0.
         24    2    4    4    0    0 -0.19544496774E+03  0.20641017797E+03  0.17533336717E+03  0.34328075275E+03  0.79347265725E+02 0.  0.
         13    1    3    3    0    0 -0.45525352172E+02  0.18698288478E+03  0.33427851958E+03  0.38571658707E+03  0.00000000000E+00 0. -1.
        -13    1    3    3    0    0 -0.98685826457E+02  0.21472448818E+03  0.25431972196E+03  0.34716569408E+03  0.00000000000E+00 0.  1.
          4    1    6    6  502    0 -0.21058163645E+02  0.49455864994E+02  0.64027650844E+02  0.83599455208E+02  0.00000000000E+00 0. -1.
          3    1    5    5  503    0  0.65522678430E+02 -0.18958003090E+03  0.11372436171E+03  0.23057979086E+03  0.00000000000E+00 0. -1.
         -4    1    5    5    0  503  0.27413346794E+03 -0.41853752003E+03  0.29097496985E+03  0.57878255589E+03  0.00000000000E+00 0.  1.
         -3    1    6    6    0  502 -0.17438680410E+03  0.15695431298E+03  0.11130571633E+03  0.25968129754E+03  0.00000000000E+00 0.  1.
<mgrwt>
<rscale>  0 0.14796985E+04</rscale>
<asrwt>0</asrwt>
<pdfrwt beam="1">  1        2 0.23493510E+00 0.14796985E+04</pdfrwt>
<pdfrwt beam="2">  1       -2 0.55145727E-01 0.14796985E+04</pdfrwt>
<totfact> 0.36659029E+01</totfact>
</mgrwt>
</event>
<event>
12    1  0.1980523E-007  0.3463241E+04  0.7818608E-02  0.8122557E-01
         -1   -1    0    0    0  501 -0.00000000000E+00  0.00000000000E+00  0.15214547913E+04  0.15214547913E+04  0.00000000000E+00 0.  1.
          1   -1    0    0  501    0  0.00000000000E+00 -0.00000000000E+00 -0.19708174277E+04  0.19708174277E+04  0.00000000000E+00 0. -1.
         23    2    1    2    0    0  0.46944137143E+03 -0.63404295640E+03 -0.16284538427E+04  0.18118648843E+04  0.92772676463E+02 0.  0.
        254    2    1    2    0    0 -0.46944137143E+03  0.63404295640E+03  0.11790912062E+04  0.16804073346E+04  0.90062593007E+03 0.  0.
        -24    2    4    4    0    0 -0.36080954817E+03  0.59147365723E+03  0.25050527953E+03  0.74113935152E+03  0.80684732450E+02 0.  0.
         24    2    4    4    0    0 -0.10863182326E+03  0.42569299164E+02  0.92858592671E+03  0.93926798312E+03  0.79620993292E+02 0.  0.
         13    1    3    3    0    0  0.35305867561E+03 -0.46116423807E+03 -0.11024713924E+04  0.12461003386E+04  0.00000000000E+00 0.  1.
        -13    1    3    3    0    0  0.11638269582E+03 -0.17287871833E+03 -0.52598245029E+03  0.56576454568E+03  0.00000000000E+00 0. -1.
          4    1    6    6  502    0 -0.26930869329E+02 -0.15795412998E+02  0.40093835902E+03  0.40215212858E+03  0.00000000000E+00 0. -1.
          3    1    5    5  503    0 -0.27173871234E+02  0.30326219081E+02  0.34867911815E+02  0.53608489215E+02  0.00000000000E+00 0. -1.
         -4    1    5    5    0  503 -0.33363567694E+03  0.56114743815E+03  0.21563736772E+03  0.68753086231E+03  0.00000000000E+00 0.  1.
         -1    1    6    6    0  502 -0.81700953935E+02  0.58364712162E+02  0.52764756769E+03  0.53711585453E+03  0.00000000000E+00 0.  1.
<mgrwt>
<rscale>  0 0.34632410E+04</rscale>
<asrwt>0</asrwt>
<pdfrwt beam="1">  1        1 0.30320268E+00 0.34632410E+04</pdfrwt>
<pdfrwt beam="2">  1       -1 0.23406997E+00 0.34632410E+04</pdfrwt>
<totfact> 0.22645187E-01</totfact>
</mgrwt>
</event>
<event>
12    1  0.1980523E-007  0.1526401E+04  0.7818608E-02  0.8867084E-01
          1   -1    0    0  501    0  0.00000000000E+00  0.00000000000E+00  0.24273482019E+04  0.24273482019E+04  0.00000000000E+00 0. -1.
         -1   -1    0    0    0  501 -0.00000000000E+00 -0.00000000000E+00 -0.23996352374E+03  0.23996352374E+03  0.00000000000E+00 0.  1.
         23    2    1    2    0    0  0.46254941704E+03 -0.14758327853E+03  0.58185072177E+03  0.76377614580E+03  0.95241541183E+02 0.  0.
        254    2    1    2    0    0 -0.46254941704E+03  0.14758327853E+03  0.16055339564E+04  0.19035355798E+04  0.89998646171E+03 0.  0.
        -24    2    4    4    0    0 -0.11310360598E+03  0.50054998943E+03  0.80790417808E+03  0.96039154888E+03  0.79372845500E+02 0.  0.
         24    2    4    4    0    0 -0.34944581106E+03 -0.35296671091E+03  0.79762977831E+03  0.94314403094E+03  0.81298991305E+02 0.  0.
         13    1    3    3    0    0  0.29695342042E+03 -0.85679576485E+02  0.43686682739E+03  0.53514012053E+03  0.00000000000E+00 0. -1.
        -13    1    3    3    0    0  0.16559599662E+03 -0.61903702044E+02  0.14498389438E+03  0.22863602527E+03  0.00000000000E+00 0.  1.
          2    1    6    6  502    0 -0.18314949951E+03 -0.17929847785E+03  0.48698129631E+03  0.55031124492E+03  0.00000000000E+00 0. -1.
          1    1    5    5  503    0 -0.61880421774E+02  0.40199246660E+03  0.60361124010E+03  0.72785552068E+03  0.00000000000E+00 0. -1.
         -2    1    5    5    0  503 -0.51223184203E+02  0.98557522832E+02  0.20429293797E+03  0.23253602820E+03  0.00000000000E+00 0.  1.
         -1    1    6    6    0  502 -0.16629631155E+03 -0.17366823306E+03  0.31064848200E+03  0.39283278603E+03  0.00000000000E+00 0.  1.
<mgrwt>
<rscale>  0 0.15264010E+04</rscale>
<asrwt>0</asrwt>
<pdfrwt beam="1">  1        1 0.37343817E+00 0.15264010E+04</pdfrwt>
<pdfrwt beam="2">  1       -1 0.36917467E-01 0.15264010E+04</pdfrwt>
<totfact> 0.10371182E+01</totfact>
</mgrwt>
</event>
<event>
12    1  0.1980523E-007  0.2526706E+04  0.7818608E-02  0.8393533E-01
          1   -1    0    0  501    0  0.00000000000E+00  0.00000000000E+00  0.13476940160E+04  0.13476940160E+04  0.00000000000E+00 0. -1.
         -1   -1    0    0    0  501 -0.00000000000E+00 -0.00000000000E+00 -0.11842901676E+04  0.11842901676E+04  0.00000000000E+00 0.  1.
         23    2    1    2    0    0  0.79347542952E+03  0.49404183858E+03  0.65416802885E+03  0.11444481776E+04  0.90250904866E+02 0.  0.
        254    2    1    2    0    0 -0.79347542952E+03 -0.49404183858E+03 -0.49076418043E+03  0.13875360059E+04  0.90040329375E+03 0.  0.
        -24    2    4    4    0    0 -0.24297771167E+03  0.29714441443E+02 -0.56401206068E+03  0.61999281065E+03  0.79751891963E+02 0.  0.
         24    2    4    4    0    0 -0.55049771785E+03 -0.52375628002E+03  0.73247880244E+02  0.76754319526E+03  0.79930760141E+02 0.  0.
         13    1    3    3    0    0  0.29597059884E+03  0.14439790469E+03  0.19769439680E+03  0.38409949854E+03  0.00000000000E+00 0.  1.
        -13    1    3    3    0    0  0.49750483069E+03  0.34964393388E+03  0.45647363205E+03  0.76034867910E+03  0.00000000000E+00 0. -1.
          2    1    6    6  502    0 -0.48575683258E+03 -0.47344890876E+03  0.88760707443E+02  0.68409943195E+03  0.00000000000E+00 0. -1.
          3    1    5    5  503    0 -0.22915574931E+03  0.51912127751E+01 -0.50720869387E+03  0.55659677081E+03  0.00000000000E+00 0. -1.
         -4    1    5    5    0  503 -0.13821962361E+02  0.24523228667E+02 -0.56803366805E+02  0.63396039847E+02  0.00000000000E+00 0.  1.
         -1    1    6    6    0  502 -0.64740885270E+02 -0.50307371254E+02 -0.15512827200E+02  0.83443763313E+02  0.00000000000E+00 0.  1.
<mgrwt>
<rscale>  0 0.25267060E+04</rscale>
<asrwt>0</asrwt>
<pdfrwt beam="1">  1        1 0.20733754E+00 0.25267060E+04</pdfrwt>
<pdfrwt beam="2">  1       -1 0.18219849E+00 0.25267060E+04</pdfrwt>
<totfact> 0.14880575E+00</totfact>
</mgrwt>
</event>
<event>
12    1  0.1980523E-007  0.3046180E+04  0.7818608E-02  0.8230665E-01
         -2   -1    0    0    0  501 -0.00000000000E+00  0.00000000000E+00  0.59154283042E+03  0.59154283042E+03  0.00000000000E+00 0. -1.
          2   -1    0    0  501    0  0.00000000000E+00 -0.00000000000E+00 -0.39216155664E+04  0.39216155664E+04  0.00000000000E+00 0.  1.
         23    2    1    2    0    0  0.10382189084E+04 -0.91738489990E+03 -0.13649530356E+04  0.19469117461E+04  0.88741204541E+02 0.  0.
        254    2    1    2    0    0 -0.10382189084E+04  0.91738489990E+03 -0.19651197003E+04  0.25662466507E+04  0.89690182254E+03 0.  0.
        -24    2    4    4    0    0 -0.75489170698E+03  0.21225942257E+03 -0.14342076958E+04  0.16365368896E+04  0.79910728835E+02 0.  0.
         24    2    4    4    0    0 -0.28332720140E+03  0.70512547733E+03 -0.53091200451E+03  0.92970976108E+03  0.70826841495E+02 0.  0.
         13    1    3    3    0    0  0.46901156497E+03 -0.47325062502E+03 -0.66173034069E+03  0.93905540089E+03  0.00000000000E+00 0. -1.
        -13    1    3    3    0    0  0.56920734340E+03 -0.44413427488E+03 -0.70322269492E+03  0.10078563452E+04  0.00000000000E+00 0.  1.
          2    1    6    6  502    0 -0.27274089402E+03  0.68433089758E+03 -0.52764317606E+03  0.90614772190E+03  0.00000000000E+00 0. -1.
          1    1    5    5  503    0 -0.57291875441E+03  0.18012179345E+03 -0.11532706865E+04  0.13002742157E+04  0.00000000000E+00 0. -1.
         -2    1    5    5    0  503 -0.18197295257E+03  0.32137629119E+02 -0.28093700928E+03  0.33626267389E+03  0.00000000000E+00 0.  1.
         -1    1    6    6    0  502 -0.10586307378E+02  0.20794579746E+02 -0.32688284460E+01  0.23562039176E+02  0.00000000000E+00 0.  1.
<mgrwt>
<rscale>  0 0.30461803E+04</rscale>
<asrwt>0</asrwt>
<pdfrwt beam="1">  1        2 0.60332547E+00 0.30461803E+04</pdfrwt>
<pdfrwt beam="2">  1       -2 0.91006589E-01 0.30461803E+04</pdfrwt>
<totfact> 0.34687595E-01</totfact>
</mgrwt>
</event>
<event>
12    1  0.1980523E-007  0.1335003E+04  0.7818608E-02  0.9002259E-01
          2   -1    0    0  501    0  0.00000000000E+00  0.00000000000E+00  0.12407299391E+04  0.12407299391E+04  0.00000000000E+00 0. -1.
         -2   -1    0    0    0  501 -0.00000000000E+00 -0.00000000000E+00 -0.35911004530E+03  0.35911004530E+03  0.00000000000E+00 0.  1.
         23    2    1    2    0    0  0.24504438933E+03 -0.22958050499E+03  0.35592474384E+03  0.50529063952E+03  0.12602478366E+03 0.  0.
        254    2    1    2    0    0 -0.24504438933E+03  0.22958050499E+03  0.52569514993E+03  0.10945493449E+04  0.89940475686E+03 0.  0.
        -24    2    4    4    0    0 -0.32157830918E+03 -0.22649146705E+03  0.47549558105E+03  0.62226781647E+03  0.80063688616E+02 0.  0.
         24    2    4    4    0    0  0.76533919855E+02  0.45607197203E+03  0.50199568880E+02  0.47228152839E+03  0.81674725486E+02 0.  0.
         13    1    3    3    0    0  0.10814106368E+03 -0.17698425860E+03  0.24743655273E+03  0.32286648181E+03  0.00000000000E+00 0.  1.
        -13    1    3    3    0    0  0.13690332565E+03 -0.52596246389E+02  0.10848819111E+03  0.18242415771E+03  0.00000000000E+00 0. -1.
          2    1    6    6  502    0  0.82254956165E+02  0.43512110301E+03  0.62666500525E+02  0.44723969232E+03  0.00000000000E+00 0. -1.
          1    1    5    5  503    0 -0.26539011130E+03 -0.14774150030E+03  0.34207249951E+03  0.45746372207E+03  0.00000000000E+00 0. -1.
         -2    1    5    5    0  503 -0.56188197879E+02 -0.78749966749E+02  0.13342308154E+03  0.16480409440E+03  0.00000000000E+00 0.  1.
         -1    1    6    6    0  502 -0.57210363097E+01  0.20950869025E+02 -0.12466931646E+02  0.25041836075E+02  0.00000000000E+00 0.  1.
<mgrwt>
<rscale>  0 0.13350035E+04</rscale>
<asrwt>0</asrwt>
<pdfrwt beam="1">  1        2 0.19088153E+00 0.13350035E+04</pdfrwt>
<pdfrwt beam="2">  1       -2 0.55247700E-01 0.13350035E+04</pdfrwt>
<totfact> 0.53939328E+01</totfact>
</mgrwt>
</event>
<event>
12    1  0.1980523E-007  0.1758776E+04  0.7818608E-02  0.8728534E-01
          1   -1    0    0  501    0  0.00000000000E+00  0.00000000000E+00  0.16045762799E+04  0.16045762799E+04  0.00000000000E+00 0. -1.
         -1   -1    0    0    0  501 -0.00000000000E+00 -0.00000000000E+00 -0.48194879809E+03  0.48194879809E+03  0.00000000000E+00 0.  1.
         23    2    1    2    0    0 -0.29489163061E+03 -0.50920021155E+03  0.10215059667E+03  0.60396913999E+03  0.89989157202E+02 0.  0.
        254    2    1    2    0    0  0.29489163061E+03  0.50920021155E+03  0.10204768851E+04  0.14825559380E+04  0.90019614914E+03 0.  0.
        -24    2    4    4    0    0  0.19936973261E+03  0.46884814723E+03  0.65751582776E+02  0.51888203625E+03  0.73132902721E+02 0.  0.
         24    2    4    4    0    0  0.95521897996E+02  0.40352064324E+02  0.95472530235E+03  0.96367390174E+03  0.80089099414E+02 0.  0.
         13    1    3    3    0    0 -0.18090867444E+03 -0.22266852422E+03  0.49886926678E+02  0.29120083382E+03  0.00000000000E+00 0. -1.
        -13    1    3    3    0    0 -0.11398295617E+03 -0.28653168733E+03  0.52263669988E+02  0.31276830617E+03  0.00000000000E+00 0.  1.
          2    1    6    6  502    0  0.78403199561E+02  0.48682235635E+02  0.49345019429E+03  0.50200609161E+03  0.00000000000E+00 0. -1.
          3    1    5    5  503    0  0.13102866812E+03  0.38348248345E+03  0.47634138582E+02  0.40803962815E+03  0.00000000000E+00 0. -1.
         -4    1    5    5    0  503  0.68341064494E+02  0.85365663774E+02  0.18117444193E+02  0.11084240809E+03  0.00000000000E+00 0.  1.
         -1    1    6    6    0  502  0.17118698435E+02 -0.83301713102E+01  0.46127510806E+03  0.46166781013E+03  0.00000000000E+00 0.  1.
<mgrwt>
<rscale>  0 0.17587764E+04</rscale>
<asrwt>0</asrwt>
<pdfrwt beam="1">  1        1 0.24685789E+00 0.17587764E+04</pdfrwt>
<pdfrwt beam="2">  1       -1 0.74145970E-01 0.17587764E+04</pdfrwt>
<totfact> 0.96057781E+00</totfact>
</mgrwt>
</event>
<event>
12    1  0.1980523E-007  0.2331944E+04  0.7818608E-02  0.8465431E-01
         -2   -1    0    0    0  501 -0.00000000000E+00  0.00000000000E+00  0.12757599918E+04  0.12757599918E+04  0.00000000000E+00 0.  1.
          2   -1    0    0  501    0  0.00000000000E+00 -0.00000000000E+00 -0.10656320988E+04  0.10656320988E+04  0.00000000000E+00 0. -1.
         23    2    1    2    0    0 -0.94951755288E+03 -0.11237098898E+03 -0.16728169712E+03  0.97569960211E+03  0.98973354865E+02 0.  0.
        254    2    1    2    0    0  0.94951755288E+03  0.11237098898E+03  0.37740959014E+03  0.13656924886E+04  0.89914801462E+03 0.  0.
        -24    2    4    4    0    0  0.21725987636E+03  0.44675906907E+03  0.15813973325E+03  0.52754683528E+03  0.80634784764E+02 0.  0.
         24    2    4    4    0    0  0.73225767652E+03 -0.33438808008E+03  0.21926985689E+03  0.83814565328E+03  0.79951066623E+02 0.  0.
         13    1    3    3    0    0 -0.67693361319E+03 -0.82322767497E+02 -0.16436071521E+03  0.70144892859E+03  0.00000000000E+00 0.  1.
        -13    1    3    3    0    0 -0.27258393969E+03 -0.30048221486E+02 -0.29209819131E+01  0.27425067352E+03  0.00000000000E+00 0. -1.
          4    1    6    6  502    0  0.65907081205E+03 -0.32486391696E+03  0.20643356697E+03  0.76323372398E+03  0.00000000000E+00 0. -1.
          3    1    5    5  503    0  0.16240878961E+03  0.39714463212E+03  0.14079651547E+03  0.45157959712E+03  0.00000000000E+00 0. -1.
         -4    1    5    5    0  503  0.54851086751E+02  0.49614436945E+02  0.17343217777E+02  0.75967238162E+02  0.00000000000E+00 0.  1.
         -3    1    6    6    0  502  0.73186864463E+02 -0.95241631234E+01  0.12836289916E+02  0.74911929303E+02  0.00000000000E+00 0.  1.
<mgrwt>
<rscale>  0 0.23319441E+04</rscale>
<asrwt>0</asrwt>
<pdfrwt beam="1">  1        2 0.16394340E+00 0.23319441E+04</pdfrwt>
<pdfrwt beam="2">  1       -2 0.19627077E+00 0.23319441E+04</pdfrwt>
<totfact> 0.29123729E+00</totfact>
</mgrwt>
</event>
<event>
12    1  0.1980523E-007  0.1201160E+04  0.7818608E-02  0.9111842E-01
          1   -1    0    0  501    0  0.00000000000E+00  0.00000000000E+00  0.17145257615E+04  0.17145257615E+04  0.00000000000E+00 0. -1.
         -1   -1    0    0    0  501 -0.00000000000E+00 -0.00000000000E+00 -0.21037663171E+03  0.21037663171E+03  0.00000000000E+00 0.  1.
         23    2    1    2    0    0  0.88735593586E+02  0.42441366901E+01 -0.40207680623E+02  0.13456507797E+03  0.92731248031E+02 0.  0.
        254    2    1    2    0    0 -0.88735593586E+02 -0.42441366901E+01  0.15443568104E+04  0.17903373152E+04  0.90131999102E+03 0.  0.
        -24    2    4    4    0    0  0.16892320016E+03 -0.17987992010E+03  0.14230083914E+04  0.14464797574E+04  0.80367738609E+02 0.  0.
         24    2    4    4    0    0 -0.25765879374E+03  0.17563578341E+03  0.12134841900E+03  0.34385755782E+03  0.79224988929E+02 0.  0.
         13    1    3    3    0    0  0.11360780455E+02  0.33891497533E+02 -0.37287635903E+02  0.51653351574E+02  0.00000000000E+00 0.  1.
        -13    1    3    3    0    0  0.77374813132E+02 -0.29647360843E+02 -0.29200447197E+01  0.82911726392E+02  0.00000000000E+00 0. -1.
          2    1    6    6  502    0 -0.26008624843E+03  0.16627994248E+03  0.10731704002E+03  0.32681925122E+03  0.00000000000E+00 0. -1.
          1    1    5    5  503    0  0.15196935940E+03 -0.18578141260E+03  0.12758616888E+04  0.12982420685E+04  0.00000000000E+00 0. -1.
         -2    1    5    5    0  503  0.16953840756E+02  0.59014925001E+01  0.14714670256E+03  0.14823768888E+03  0.00000000000E+00 0.  1.
         -1    1    6    6    0  502  0.24274546803E+01  0.93558409223E+01  0.14031378983E+02  0.17038306598E+02  0.00000000000E+00 0.  1.
<mgrwt>
<rscale>  0 0.12011597E+04</rscale>
<asrwt>0</asrwt>
<pdfrwt beam="1">  1        1 0.26377318E+00 0.12011597E+04</pdfrwt>
<pdfrwt beam="2">  1       -1 0.32365637E-01 0.12011597E+04</pdfrwt>
<totfact> 0.41154084E+01</totfact>
</mgrwt>
</event>
<event>
12    1  0.1980523E-007  0.1766730E+04  0.7818608E-02  0.8724195E-01
         -1   -1    0    0    0  501 -0.00000000000E+00  0.00000000000E+00  0.58521114993E+03  0.58521114993E+03  0.00000000000E+00 0.  1.
          1   -1    0    0  501    0  0.00000000000E+00 -0.00000000000E+00 -0.13334223642E+04  0.13334223642E+04  0.00000000000E+00 0. -1.
         23    2    1    2    0    0 -0.50686963378E+03 -0.24268617158E+03 -0.62880082065E+03  0.85119697579E+03  0.11546608172E+03 0.  0.
        254    2    1    2    0    0  0.50686963378E+03  0.24268617158E+03 -0.11941039358E+03  0.10674365383E+04  0.89963799258E+03 0.  0.
        -24    2    4    4    0    0  0.52822180618E+03  0.29741942505E+03  0.26799840706E+03  0.66758386761E+03  0.79802776844E+02 0.  0.
         24    2    4    4    0    0 -0.21352172399E+02 -0.54733253473E+02 -0.38740880064E+03  0.39985267069E+03  0.79655101181E+02 0.  0.
         13    1    3    3    0    0 -0.29331133257E+02 -0.48715968265E+02 -0.45749201028E+02  0.72983219556E+02  0.00000000000E+00 0.  1.
        -13    1    3    3    0    0 -0.47753850052E+03 -0.19397020331E+03 -0.58305161962E+03  0.77821375624E+03  0.00000000000E+00 0. -1.
          2    1    6    6  502    0 -0.40527218387E+02 -0.44825233728E+02 -0.15375318668E+03  0.16520229848E+03  0.00000000000E+00 0. -1.
          3    1    5    5  503    0  0.70945043820E+02  0.55792476195E+02  0.13812228065E+02  0.91305954278E+02  0.00000000000E+00 0. -1.
         -4    1    5    5    0  503  0.45727676236E+03  0.24162694886E+03  0.25418617899E+03  0.57627791333E+03  0.00000000000E+00 0.  1.
         -1    1    6    6    0  502  0.19175045988E+02 -0.99080197450E+01 -0.23365561396E+03  0.23465037221E+03  0.00000000000E+00 0.  1.
<mgrwt>
<rscale>  0 0.17667299E+04</rscale>
<asrwt>0</asrwt>
<pdfrwt beam="1">  1        1 0.20514190E+00 0.17667299E+04</pdfrwt>
<pdfrwt beam="2">  1       -1 0.90032485E-01 0.17667299E+04</pdfrwt>
<totfact> 0.97797744E+00</totfact>
</mgrwt>
</event>
<event>
12    1  0.1980523E-007  0.1917932E+04  0.7818608E-02  0.8645982E-01
          1   -1    0    0  501    0  0.00000000000E+00  0.00000000000E+00  0.80398463383E+03  0.80398463383E+03  0.00000000000E+00 0. -1.
         -1   -1    0    0    0  501 -0.00000000000E+00 -0.00000000000E+00 -0.11438221094E+04  0.11438221094E+04  0.00000000000E+00 0.  1.
         23    2    1    2    0    0  0.47799696067E+03 -0.39503666704E+03  0.28462431299E+03  0.68845570370E+03  0.91788853878E+02 0.  0.
        254    2    1    2    0    0 -0.47799696067E+03  0.39503666704E+03 -0.62446178856E+03  0.12593510395E+04  0.90082043311E+03 0.  0.
        -24    2    4    4    0    0 -0.11251645609E+03  0.26292550989E+03 -0.77907491981E+03  0.83370880462E+03  0.79516435923E+02 0.  0.
         24    2    4    4    0    0 -0.36548050458E+03  0.13211115715E+03  0.15461313126E+03  0.42564223491E+03  0.78972999889E+02 0.  0.
         11    1    3    3    0    0  0.28336039125E+03 -0.22875401826E+03  0.21604268242E+03  0.42343352822E+03  0.00000000000E+00 0. -1.
        -11    1    3    3    0    0  0.19463656942E+03 -0.16628264878E+03  0.68581630570E+02  0.26502217548E+03  0.00000000000E+00 0.  1.
          4    1    6    6  502    0 -0.82467475410E+02  0.30832688741E+02  0.72467198506E+02  0.11403084694E+03  0.00000000000E+00 0. -1.
          3    1    5    5  503    0 -0.78424231205E+02  0.14665716988E+03 -0.34423764777E+03  0.38230647871E+03  0.00000000000E+00 0. -1.
         -4    1    5    5    0  503 -0.34092224884E+02  0.11626834001E+03 -0.43483727204E+03  0.45140232592E+03  0.00000000000E+00 0.  1.
         -3    1    6    6    0  502 -0.28301302917E+03  0.10127846840E+03  0.82145932752E+02  0.31161138797E+03  0.00000000000E+00 0.  1.
<mgrwt>
<rscale>  0 0.19179316E+04</rscale>
<asrwt>0</asrwt>
<pdfrwt beam="1">  1        1 0.12368994E+00 0.19179316E+04</pdfrwt>
<pdfrwt beam="2">  1       -1 0.17597263E+00 0.19179316E+04</pdfrwt>
<totfact> 0.45594808E+00</totfact>
</mgrwt>
</event>
<event>
12    1  0.1980523E-007  0.1837761E+04  0.7818608E-02  0.8686473E-01
          2   -1    0    0  501    0  0.00000000000E+00  0.00000000000E+00  0.93515295962E+03  0.93515295962E+03  0.00000000000E+00 0.  1.
         -2   -1    0    0    0  501 -0.00000000000E+00 -0.00000000000E+00 -0.90289086269E+03  0.90289086269E+03  0.00000000000E+00 0. -1.
         23    2    1    2    0    0  0.21469677321E+03 -0.64747882009E+03  0.15265800610E+03  0.70332425161E+03  0.77698192968E+02 0.  0.
        254    2    1    2    0    0 -0.21469677321E+03  0.64747882009E+03 -0.12039590916E+03  0.11347195707E+04  0.89876014724E+03 0.  0.
        -24    2    4    4    0    0  0.19023509736E+03  0.21019002944E+02 -0.29848365106E+03  0.36367445489E+03  0.80841996754E+02 0.  0.
         24    2    4    4    0    0 -0.40493187057E+03  0.62645981715E+03  0.17808774189E+03  0.77104511580E+03  0.79834857543E+02 0.  0.
         13    1    3    3    0    0  0.68981498855E+02 -0.30773369157E+03  0.93554074278E+02  0.32895415627E+03  0.00000000000E+00 0.  1.
        -13    1    3    3    0    0  0.14571527435E+03 -0.33974512852E+03  0.59103931820E+02  0.37437009535E+03  0.00000000000E+00 0. -1.
          4    1    6    6  502    0 -0.36079376973E+03  0.52157421954E+03  0.12937789720E+03  0.64726381874E+03  0.00000000000E+00 0. -1.
          3    1    5    5  503    0  0.92949912065E+02 -0.29502266070E+02 -0.15464491381E+03  0.18282537905E+03  0.00000000000E+00 0. -1.
         -4    1    5    5    0  503  0.97285185299E+02  0.50521269014E+02 -0.14383873724E+03  0.18084907584E+03  0.00000000000E+00 0.  1.
         -3    1    6    6    0  502 -0.44138100838E+02  0.10488559761E+03  0.48709844695E+02  0.12378129706E+03  0.00000000000E+00 0.  1.
<mgrwt>
<rscale>  0 0.18377607E+04</rscale>
<asrwt>0</asrwt>
<pdfrwt beam="1">  1        2 0.14386969E+00 0.18377607E+04</pdfrwt>
<pdfrwt beam="2">  1       -2 0.13890629E+00 0.18377607E+04</pdfrwt>
<totfact> 0.95802746E+00</totfact>
</mgrwt>
</event>
<event>
12    1  0.1980523E-007  0.1345791E+04  0.7818608E-02  0.8994020E-01
          1   -1    0    0  501    0  0.00000000000E+00  0.00000000000E+00  0.21645606399E+04  0.21645606399E+04  0.00000000000E+00 0. -1.
         -1   -1    0    0    0  501 -0.00000000000E+00 -0.00000000000E+00 -0.20918270130E+03  0.20918270130E+03  0.00000000000E+00 0.  1.
         23    2    1    2    0    0 -0.33473888249E+03  0.10531852783E+03  0.73234881876E+03  0.81613407147E+03  0.81227572374E+02 0.  0.
        254    2    1    2    0    0  0.33473888249E+03 -0.10531852783E+03  0.12230291198E+04  0.15576092697E+04  0.89844548940E+03 0.  0.
        -24    2    4    4    0    0  0.53322116098E+03  0.16200193386E+03  0.10055187368E+04  0.11521895533E+04  0.76833609494E+02 0.  0.
         24    2    4    4    0    0 -0.19848227849E+03 -0.26732046168E+03  0.21751038303E+03  0.40541971645E+03  0.78733319798E+02 0.  0.
         13    1    3    3    0    0 -0.17645253264E+03  0.89440203197E+02  0.45989403186E+03  0.50063716079E+03  0.00000000000E+00 0. -1.
        -13    1    3    3    0    0 -0.15828634985E+03  0.15878324630E+02  0.27245478690E+03  0.31549691068E+03  0.00000000000E+00 0.  1.
          2    1    6    6  502    0 -0.82822912689E+02 -0.10425437813E+03  0.42632857255E+02  0.13980762047E+03  0.00000000000E+00 0. -1.
          1    1    5    5  503    0  0.32031850231E+03  0.70698976997E+02  0.64577525146E+03  0.72431206235E+03  0.00000000000E+00 0. -1.
         -2    1    5    5    0  503  0.21290265867E+03  0.91302956860E+02  0.35974348532E+03  0.42787749091E+03  0.00000000000E+00 0.  1.
         -1    1    6    6    0  502 -0.11565936580E+03 -0.16306608356E+03  0.17487752578E+03  0.26561209597E+03  0.00000000000E+00 0.  1.
<mgrwt>
<rscale>  0 0.13457914E+04</rscale>
<asrwt>0</asrwt>
<pdfrwt beam="1">  1        1 0.33300931E+00 0.13457914E+04</pdfrwt>
<pdfrwt beam="2">  1       -1 0.32181956E-01 0.13457914E+04</pdfrwt>
<totfact> 0.20366198E+01</totfact>
</mgrwt>
</event>
<event>
12    1  0.3074642E-007  0.2820645E+04  0.7818608E-02  0.8296888E-01
          2   -1    0    0  501    0  0.00000000000E+00  0.00000000000E+00  0.21187482367E+04  0.21187482367E+04  0.00000000000E+00 0. -1.
         -2   -1    0    0    0  501 -0.00000000000E+00 -0.00000000000E+00 -0.93876613701E+03  0.93876613701E+03  0.00000000000E+00 0.  1.
         23    2    1    2    0    0  0.90646597962E+03  0.79522018561E+03  0.94108195772E+03  0.15328319927E+04  0.99413032533E+02 0.  0.
        254    2    1    2    0    0 -0.90646597962E+03 -0.79522018561E+03  0.23890014200E+03  0.15246823810E+04  0.90195752078E+03 0.  0.
        -24    2    4    4    0    0 -0.92022634804E+03 -0.44829219988E+03  0.43819156854E+03  0.11162883059E+04  0.79405938565E+02 0.  0.
         24    2    4    4    0    0  0.13760368419E+02 -0.34692798572E+03 -0.19929142654E+03  0.40839407509E+03  0.80748206541E+02 0.  0.
         13    1    3    3    0    0  0.73109187200E+03  0.58642085876E+03  0.72420015405E+03  0.11844199475E+04  0.00000000000E+00 0. -1.
        -13    1    3    3    0    0  0.17537410762E+03  0.20879932684E+03  0.21688180367E+03  0.34841204525E+03  0.00000000000E+00 0.  1.
          4    1    6    6  502    0  0.16850393569E+02 -0.31393574600E+03 -0.14836826948E+03  0.34763879497E+03  0.00000000000E+00 0. -1.
          3    1    5    5  503    0 -0.86931901258E+03 -0.41771384320E+03  0.39214544022E+03  0.10411428561E+04  0.00000000000E+00 0. -1.
         -4    1    5    5    0  503 -0.50907335466E+02 -0.30578356684E+02  0.46046128322E+02  0.75145449863E+02  0.00000000000E+00 0.  1.
         -3    1    6    6    0  502 -0.30900251499E+01 -0.32992239723E+02 -0.50923157061E+02  0.60755280120E+02  0.00000000000E+00 0.  1.
<mgrwt>
<rscale>  0 0.28206447E+04</rscale>
<asrwt>0</asrwt>
<pdfrwt beam="1">  1        2 0.32596127E+00 0.28206447E+04</pdfrwt>
<pdfrwt beam="2">  1       -2 0.14442556E+00 0.28206447E+04</pdfrwt>
<totfact> 0.16497634E+00</totfact>
</mgrwt>
</event>
<event>
12    1  0.1980523E-007  0.1665073E+04  0.7818608E-02  0.8781539E-01
         -2   -1    0    0    0  501 -0.00000000000E+00  0.00000000000E+00  0.28956290588E+03  0.28956290588E+03  0.00000000000E+00 0.  1.
          2   -1    0    0  501    0  0.00000000000E+00 -0.00000000000E+00 -0.23936657992E+04  0.23936657992E+04  0.00000000000E+00 0. -1.
         23    2    1    2    0    0 -0.30381776309E+03  0.25060483948E+03 -0.14400182129E+04  0.14955865455E+04  0.89546875324E+02 0.  0.
        254    2    1    2    0    0  0.30381776309E+03 -0.25060483948E+03 -0.66408468036E+03  0.11876421595E+04  0.90242862190E+03 0.  0.
        -24    2    4    4    0    0  0.90990959531E+01 -0.36383015085E+03 -0.76135515253E+03  0.84758991479E+03  0.79321013305E+02 0.  0.
         24    2    4    4    0    0  0.29471866714E+03  0.11322531137E+03  0.97270472177E+02  0.34005224472E+03  0.80591069513E+02 0.  0.
         11    1    3    3    0    0 -0.21157683995E+03  0.13396982225E+03 -0.10100250679E+04  0.10406071834E+04  0.00000000000E+00 0. -1.
        -11    1    3    3    0    0 -0.92240923144E+02  0.11663501723E+03 -0.42999314508E+03  0.45497936213E+03  0.00000000000E+00 0.  1.
          4    1    6    6  502    0  0.76914638796E+02  0.69437190994E+02  0.33985650099E+02  0.10905232490E+03  0.00000000000E+00 0. -1.
          3    1    5    5  503    0  0.18124908504E+02 -0.33484416174E+03 -0.64041135277E+03  0.72289406258E+03  0.00000000000E+00 0. -1.
         -4    1    5    5    0  503 -0.90258125504E+01 -0.28985989108E+02 -0.12094379976E+03  0.12469585221E+03  0.00000000000E+00 0.  1.
         -3    1    6    6    0  502  0.21780402835E+03  0.43788120374E+02  0.63284822079E+02  0.23099991982E+03  0.00000000000E+00 0.  1.
<mgrwt>
<rscale>  0 0.16650728E+04</rscale>
<asrwt>0</asrwt>
<pdfrwt beam="1">  1        2 0.36825629E+00 0.16650728E+04</pdfrwt>
<pdfrwt beam="2">  1       -2 0.44548138E-01 0.16650728E+04</pdfrwt>
<totfact> 0.18302674E+01</totfact>
</mgrwt>
</event>
<event>
12    1  0.1980523E-007  0.1245545E+04  0.7818608E-02  0.9073899E-01
         -2   -1    0    0    0  501 -0.00000000000E+00  0.00000000000E+00  0.28696262643E+03  0.28696262643E+03  0.00000000000E+00 0. -1.
          2   -1    0    0  501    0  0.00000000000E+00 -0.00000000000E+00 -0.13515553449E+04  0.13515553449E+04  0.00000000000E+00 0.  1.
         23    2    1    2    0    0  0.19826266876E+03  0.25440589041E+02  0.12873380935E+02  0.22023798547E+03  0.91562748499E+02 0.  0.
        254    2    1    2    0    0 -0.19826266876E+03 -0.25440589041E+02 -0.10774660994E+04  0.14182799858E+04  0.90034971734E+03 0.  0.
        -24    2    4    4    0    0 -0.28498424935E+03 -0.31343621305E+03 -0.10121193406E+04  0.10999789635E+04  0.78165711499E+02 0.  0.
         24    2    4    4    0    0  0.86721580593E+02  0.28799562401E+03 -0.65346758762E+02  0.31830102234E+03  0.81137105889E+02 0.  0.
         11    1    3    3    0    0  0.11499748173E+03  0.98261826996E+01 -0.37889623683E+02  0.12147673955E+03  0.00000000000E+00 0.  1.
        -11    1    3    3    0    0  0.83265187035E+02  0.15614406342E+02  0.50763004618E+02  0.98761245917E+02  0.00000000000E+00 0. -1.
          4    1    6    6  502    0  0.71970160762E+02  0.19766666606E+03 -0.84475766418E+01  0.21053070195E+03  0.00000000000E+00 0. -1.
          1    1    5    5  503    0 -0.21946318187E+03 -0.21823815581E+03 -0.81054253379E+03  0.86762387008E+03  0.00000000000E+00 0. -1.
         -2    1    5    5    0  503 -0.65521067487E+02 -0.95198057241E+02 -0.20157680682E+03  0.23235509341E+03  0.00000000000E+00 0.  1.
         -3    1    6    6    0  502  0.14751419831E+02  0.90328957946E+02 -0.56899182120E+02  0.10777032039E+03  0.00000000000E+00 0.  1.
<mgrwt>
<rscale>  0 0.12455455E+04</rscale>
<asrwt>0</asrwt>
<pdfrwt beam="1">  1        2 0.20793159E+00 0.12455455E+04</pdfrwt>
<pdfrwt beam="2">  1       -2 0.44148097E-01 0.12455455E+04</pdfrwt>
<totfact> 0.73825194E+01</totfact>
</mgrwt>
</event>
<event>
12    1  0.1980523E-007  0.2489828E+04  0.7818608E-02  0.8406618E-01
         -2   -1    0    0    0  501 -0.00000000000E+00  0.00000000000E+00  0.56956937441E+03  0.56956937441E+03  0.00000000000E+00 0.  1.
          2   -1    0    0  501    0  0.00000000000E+00 -0.00000000000E+00 -0.27210217952E+04  0.27210217952E+04  0.00000000000E+00 0. -1.
         23    2    1    2    0    0 -0.74442371482E+03  0.72511515351E+03 -0.54672314109E+03  0.11778066249E+04  0.91452718393E+02 0.  0.
        254    2    1    2    0    0  0.74442371482E+03 -0.72511515351E+03 -0.16047292797E+04  0.21127845446E+04  0.89930185033E+03 0.  0.
        -24    2    4    4    0    0  0.86416566783E+02  0.91035378894E+02 -0.73005805927E+03  0.74503858056E+03  0.79639521623E+02 0.  0.
         24    2    4    4    0    0  0.65800714804E+03 -0.81615053241E+03 -0.87467122039E+03  0.13677459641E+04  0.81266106244E+02 0.  0.
         13    1    3    3    0    0 -0.45332782535E+03  0.38048617558E+03 -0.29696544238E+03  0.66216638469E+03  0.00000000000E+00 0.  1.
        -13    1    3    3    0    0 -0.29109588947E+03  0.34462897794E+03 -0.24975769871E+03  0.51564024025E+03  0.00000000000E+00 0. -1.
          2    1    6    6  502    0  0.92489938647E+02 -0.74035495843E+02 -0.96575816688E+02  0.15284806758E+03  0.00000000000E+00 0. -1.
          3    1    5    5  503    0 -0.45527563863E-01 -0.42524947249E+01 -0.57077525082E+00  0.42908703699E+01  0.00000000000E+00 0. -1.
         -4    1    5    5    0  503  0.86462094347E+02  0.95287873619E+02 -0.72948728402E+03  0.74074771019E+03  0.00000000000E+00 0.  1.
         -1    1    6    6    0  502  0.56551720939E+03 -0.74211503657E+03 -0.77809540371E+03  0.12148978965E+04  0.00000000000E+00 0.  1.
<mgrwt>
<rscale>  0 0.24898279E+04</rscale>
<asrwt>0</asrwt>
<pdfrwt beam="1">  1        2 0.41861873E+00 0.24898279E+04</pdfrwt>
<pdfrwt beam="2">  1       -2 0.87626059E-01 0.24898279E+04</pdfrwt>
<totfact> 0.25879329E+00</totfact>
</mgrwt>
</event>
<event>
12    1  0.1980523E-007  0.1616491E+04  0.7818608E-02  0.8810481E-01
          3   -1    0    0  501    0  0.00000000000E+00  0.00000000000E+00  0.37094949368E+03  0.37094949368E+03  0.00000000000E+00 0. -1.
         -3   -1    0    0    0  501 -0.00000000000E+00 -0.00000000000E+00 -0.17610505407E+04  0.17610505407E+04  0.00000000000E+00 0.  1.
         23    2    1    2    0    0  0.50502299657E+03 -0.90988755450E+02 -0.75450798804E+03  0.91723473682E+03  0.93327797208E+02 0.  0.
        254    2    1    2    0    0 -0.50502299657E+03  0.90988755450E+02 -0.63559305895E+03  0.12147652975E+04  0.89908231592E+03 0.  0.
        -24    2    4    4    0    0 -0.13653898698E+03  0.17475381722E+03 -0.77024150577E+03  0.80573980791E+03  0.82236666059E+02 0.  0.
         24    2    4    4    0    0 -0.36848400959E+03 -0.83765061768E+02  0.13464844682E+03  0.40902548961E+03  0.79841067282E+02 0.  0.
         11    1    3    3    0    0  0.17025362578E+03 -0.50161673376E+02 -0.19277821635E+03  0.26204185022E+03  0.00000000000E+00 0. -1.
        -11    1    3    3    0    0  0.33476937079E+03 -0.40827082074E+02 -0.56172977169E+03  0.65519288660E+03  0.00000000000E+00 0.  1.
          4    1    6    6  502    0 -0.16864038221E+03 -0.15174371846E+02  0.25563605221E+02  0.17124058509E+03  0.00000000000E+00 0. -1.
          3    1    5    5  503    0  0.66890948124E+01  0.34974774804E+02 -0.94546591357E+02  0.10102988072E+03  0.00000000000E+00 0. -1.
         -4    1    5    5    0  503 -0.14322808179E+03  0.13977904241E+03 -0.67569491441E+03  0.70470992718E+03  0.00000000000E+00 0.  1.
         -3    1    6    6    0  502 -0.19984362739E+03 -0.68590689922E+02  0.10908484160E+03  0.23778490452E+03  0.00000000000E+00 0.  1.
<mgrwt>
<rscale>  0 0.16164910E+04</rscale>
<asrwt>0</asrwt>
<pdfrwt beam="1">  1        3 0.57069153E-01 0.16164910E+04</pdfrwt>
<pdfrwt beam="2">  1       -3 0.27093085E+00 0.16164910E+04</pdfrwt>
<totfact> 0.42030350E-01</totfact>
</mgrwt>
</event>
<event>
12    1  0.1980523E-007  0.2471992E+04  0.7818608E-02  0.8413032E-01
         -2   -1    0    0    0  501 -0.00000000000E+00  0.00000000000E+00  0.85049610353E+03  0.85049610353E+03  0.00000000000E+00 0.  1.
          2   -1    0    0  501    0  0.00000000000E+00 -0.00000000000E+00 -0.17962299021E+04  0.17962299021E+04  0.00000000000E+00 0. -1.
         23    2    1    2    0    0 -0.11197695430E+03 -0.10556896665E+04 -0.56255723726E+03  0.12046360431E+04  0.87509089494E+02 0.  0.
        254    2    1    2    0    0  0.11197695430E+03  0.10556896665E+04 -0.38317656128E+03  0.14420899625E+04  0.89765231161E+03 0.  0.
        -24    2    4    4    0    0  0.29806576828E+03  0.11321225434E+04 -0.31257849291E+03  0.12143416997E+04  0.79848568293E+02 0.  0.
         24    2    4    4    0    0 -0.18608881398E+03 -0.76432876884E+02 -0.70598068376E+02  0.22774826281E+03  0.80088404903E+02 0.  0.
         11    1    3    3    0    0 -0.95268099869E+02 -0.76901808333E+03 -0.36848944444E+03  0.85804970370E+03  0.00000000000E+00 0. -1.
        -11    1    3    3    0    0 -0.16708854435E+02 -0.28667158321E+03 -0.19406779281E+03  0.34658633938E+03  0.00000000000E+00 0.  1.
          2    1    6    6  502    0 -0.11099052630E+03 -0.60710988089E+01 -0.19513336755E+02  0.11285621596E+03  0.00000000000E+00 0. -1.
          1    1    5    5  503    0  0.29497812141E+03  0.10368803848E+04 -0.29166122545E+03  0.11167807730E+04  0.00000000000E+00 0. -1.
         -2    1    5    5    0  503  0.30876468666E+01  0.95242158621E+02 -0.20917267456E+02  0.97560926706E+02  0.00000000000E+00 0.  1.
         -1    1    6    6    0  502 -0.75098287679E+02 -0.70361778075E+02 -0.51084731621E+02  0.11489204686E+03  0.00000000000E+00 0.  1.
<mgrwt>
<rscale>  0 0.24719923E+04</rscale>
<asrwt>0</asrwt>
<pdfrwt beam="1">  1        2 0.27634306E+00 0.24719923E+04</pdfrwt>
<pdfrwt beam="2">  1       -2 0.13084555E+00 0.24719923E+04</pdfrwt>
<totfact> 0.33116645E+00</totfact>
</mgrwt>
</event>
<event>
12    1  0.1980523E-007  0.2538137E+04  0.7818608E-02  0.8389524E-01
          2   -1    0    0  501    0  0.00000000000E+00  0.00000000000E+00  0.25522210940E+04  0.25522210940E+04  0.00000000000E+00 0.  1.
         -2   -1    0    0    0  501 -0.00000000000E+00 -0.00000000000E+00 -0.63103258579E+03  0.63103258579E+03  0.00000000000E+00 0. -1.
         23    2    1    2    0    0 -0.80520566156E+03 -0.76152209674E+03  0.83437178379E+03  0.13900074630E+04  0.87592307425E+02 0.  0.
        254    2    1    2    0    0  0.80520566156E+03  0.76152209674E+03  0.10868167244E+04  0.17932462168E+04  0.89793615607E+03 0.  0.
        -24    2    4    4    0    0  0.88085912994E+02 -0.14837464695E+03 -0.14950880398E+02  0.19241927246E+03  0.83830088060E+02 0.  0.
         24    2    4    4    0    0  0.71711974857E+03  0.90989674369E+03  0.11017676048E+04  0.16008269444E+04  0.81130960534E+02 0.  0.
         13    1    3    3    0    0 -0.57842510282E+03 -0.55271124497E+03  0.55231975814E+03  0.97217407655E+03  0.00000000000E+00 0. -1.
        -13    1    3    3    0    0 -0.22678055874E+03 -0.20881085178E+03  0.28205202565E+03  0.41783338643E+03  0.00000000000E+00 0.  1.
          2    1    6    6  502    0  0.18915506253E+03  0.23463140379E+03  0.23900841220E+03  0.38465121139E+03  0.00000000000E+00 0. -1.
          3    1    5    5  503    0 -0.12710674440E+02 -0.46956808056E+02  0.49466575903E-01  0.48646742075E+02  0.00000000000E+00 0. -1.
         -4    1    5    5    0  503  0.10079658743E+03 -0.10141783889E+03 -0.15000346973E+02  0.14377253038E+03  0.00000000000E+00 0.  1.
         -1    1    6    6    0  502  0.52796468604E+03  0.67526533990E+03  0.86275919264E+03  0.12161757330E+04  0.00000000000E+00 0.  1.
<mgrwt>
<rscale>  0 0.25381369E+04</rscale>
<asrwt>0</asrwt>
<pdfrwt beam="1">  1        2 0.39264939E+00 0.25381369E+04</pdfrwt>
<pdfrwt beam="2">  1       -2 0.97081938E-01 0.25381369E+04</pdfrwt>
<totfact> 0.25557870E+00</totfact>
</mgrwt>
</event>
<event>
12    1  0.1980523E-007  0.1545665E+04  0.7818608E-02  0.8854642E-01
          2   -1    0    0  501    0  0.00000000000E+00  0.00000000000E+00  0.52705182590E+03  0.52705182590E+03  0.00000000000E+00 0. -1.
         -2   -1    0    0    0  501 -0.00000000000E+00 -0.00000000000E+00 -0.11332276714E+04  0.11332276714E+04  0.00000000000E+00 0.  1.
         23    2    1    2    0    0 -0.40057584223E+03  0.26499264779E+03 -0.37075012804E+03  0.61364194693E+03  0.91753325962E+02 0.  0.
        254    2    1    2    0    0  0.40057584223E+03 -0.26499264779E+03 -0.23542571741E+03  0.10466375503E+04  0.89963480622E+03 0.  0.
        -24    2    4    4    0    0  0.43241268903E+03 -0.44214171162E+03  0.12324615948E+03  0.63571669954E+03  0.80474091900E+02 0.  0.
         24    2    4    4    0    0 -0.31836846799E+02  0.17714906383E+03 -0.35867187689E+03  0.41092085078E+03  0.88402798051E+02 0.  0.
         11    1    3    3    0    0 -0.15693637753E+03  0.93038051724E+02 -0.19701823801E+03  0.26851683703E+03  0.00000000000E+00 0.  1.
        -11    1    3    3    0    0 -0.24363946470E+03  0.17195459607E+03 -0.17373189004E+03  0.34512510990E+03  0.00000000000E+00 0. -1.
          4    1    6    6  502    0 -0.28886479740E+02  0.18721692202E+03 -0.34606682104E+03  0.39452103775E+03  0.00000000000E+00 0. -1.
          1    1    5    5  503    0  0.35758401629E+03 -0.34530961565E+03  0.12778039623E+03  0.51325713734E+03  0.00000000000E+00 0. -1.
         -2    1    5    5    0  503  0.74828672740E+02 -0.96832095966E+02 -0.45342367459E+01  0.12245956221E+03  0.00000000000E+00 0.  1.
         -3    1    6    6    0  502 -0.29503670592E+01 -0.10067858193E+02 -0.12605055852E+02  0.16399813030E+02  0.00000000000E+00 0.  1.
<mgrwt>
<rscale>  0 0.15456645E+04</rscale>
<asrwt>0</asrwt>
<pdfrwt beam="1">  1        2 0.81084896E-01 0.15456645E+04</pdfrwt>
<pdfrwt beam="2">  1       -2 0.17434272E+00 0.15456645E+04</pdfrwt>
<totfact> 0.11058855E+01</totfact>
</mgrwt>
</event>
<event>
12    1  0.1980523E-007  0.1091184E+04  0.7818608E-02  0.9213827E-01
          1   -1    0    0  501    0  0.00000000000E+00  0.00000000000E+00  0.13088506734E+04  0.13088506734E+04  0.00000000000E+00 0. -1.
         -1   -1    0    0    0  501 -0.00000000000E+00 -0.00000000000E+00 -0.22742910236E+03  0.22742910236E+03  0.00000000000E+00 0.  1.
         23    2    1    2    0    0  0.10043653367E+03 -0.11498875676E+03  0.16397137494E+03  0.24220939252E+03  0.92026444830E+02 0.  0.
        254    2    1    2    0    0 -0.10043653367E+03  0.11498875676E+03  0.91745019614E+03  0.12940703833E+04  0.89977407331E+03 0.  0.
        -24    2    4    4    0    0 -0.21097345973E+02 -0.37739467018E+03  0.53788839787E+03  0.66225695494E+03  0.79928159746E+02 0.  0.
         24    2    4    4    0    0 -0.79339187697E+02  0.49238342695E+03  0.37956179827E+03  0.63181342834E+03  0.79905592316E+02 0.  0.
         11    1    3    3    0    0  0.47871947231E+02 -0.99351945471E+02  0.14897672016E+03  0.18535532242E+03  0.00000000000E+00 0. -1.
        -11    1    3    3    0    0  0.52564586440E+02 -0.15636811293E+02  0.14994654781E+02  0.56854070101E+02  0.00000000000E+00 0.  1.
          2    1    6    6  502    0 -0.26674453029E+02  0.29960817178E+03  0.18632406858E+03  0.35382656991E+03  0.00000000000E+00 0. -1.
          3    1    5    5  503    0 -0.16352400992E+02 -0.37846129149E+03  0.53722063326E+03  0.65734797404E+03  0.00000000000E+00 0. -1.
         -2    1    5    5    0  503 -0.47449449815E+01  0.10666213125E+01  0.66776460726E+00  0.49089808995E+01  0.00000000000E+00 0.  1.
         -1    1    6    6    0  502 -0.52664734668E+02  0.19277525517E+03  0.19323772969E+03  0.27798685843E+03  0.00000000000E+00 0.  1.
<mgrwt>
<rscale>  0 0.10911842E+04</rscale>
<asrwt>0</asrwt>
<pdfrwt beam="1">  1        1 0.20136164E+00 0.10911842E+04</pdfrwt>
<pdfrwt beam="2">  1       -1 0.34989094E-01 0.10911842E+04</pdfrwt>
<totfact> 0.68963496E+01</totfact>
</mgrwt>
</event>
<event>
12    1  0.1980523E-007  0.1955340E+04  0.7818608E-02  0.8627790E-01
          2   -1    0    0  501    0  0.00000000000E+00  0.00000000000E+00  0.31220341784E+03  0.31220341784E+03  0.00000000000E+00 0.  1.
         -2   -1    0    0    0  501 -0.00000000000E+00 -0.00000000000E+00 -0.30615878339E+04  0.30615878339E+04  0.00000000000E+00 0. -1.
         23    2    1    2    0    0 -0.30995736219E+03 -0.16858508004E+03 -0.22592910506E+04  0.22893668498E+04  0.11095055757E+03 0.  0.
        254    2    1    2    0    0  0.30995736219E+03  0.16858508004E+03 -0.49009336555E+03  0.10844244020E+04  0.90071653759E+03 0.  0.
        -24    2    4    4    0    0  0.10599762286E+03 -0.23269555087E+03 -0.56100370441E+03  0.62168122019E+03  0.79872822186E+02 0.  0.
         24    2    4    4    0    0  0.20395973932E+03  0.40128063090E+03  0.70910338867E+02  0.46274318180E+03  0.80481402461E+02 0.  0.
         11    1    3    3    0    0 -0.11235694594E+03 -0.51171105172E+02 -0.11436040586E+04  0.11502490200E+04  0.00000000000E+00 0. -1.
        -11    1    3    3    0    0 -0.19760041625E+03 -0.11741397487E+03 -0.11156869920E+04  0.11391178298E+04  0.00000000000E+00 0.  1.
          2    1    6    6  502    0  0.43515415014E+01  0.50274893830E+02 -0.86178427373E+01  0.51193437827E+02  0.00000000000E+00 0. -1.
          3    1    5    5  503    0  0.46770991260E+02 -0.42365587303E+02 -0.87061711385E+02  0.10752725329E+03  0.00000000000E+00 0. -1.
         -4    1    5    5    0  503  0.59226631604E+02 -0.19032996356E+03 -0.47394199303E+03  0.51415396690E+03  0.00000000000E+00 0.  1.
         -1    1    6    6    0  502  0.19960819782E+03  0.35100573707E+03  0.79528181604E+02  0.41154974397E+03  0.00000000000E+00 0.  1.
<mgrwt>
<rscale>  0 0.19553395E+04</rscale>
<asrwt>0</asrwt>
<pdfrwt beam="1">  1        2 0.48031296E-01 0.19553395E+04</pdfrwt>
<pdfrwt beam="2">  1       -2 0.47101351E+00 0.19553395E+04</pdfrwt>
<totfact> 0.24736522E-01</totfact>
</mgrwt>
</event>
<event>
12    1  0.2052053E-007  0.2824823E+04  0.7818608E-02  0.8295603E-01
          1   -1    0    0  501    0  0.00000000000E+00  0.00000000000E+00  0.18486902460E+04  0.18486902460E+04  0.00000000000E+00 0. -1.
         -1   -1    0    0    0  501 -0.00000000000E+00 -0.00000000000E+00 -0.10790917938E+04  0.10790917938E+04  0.00000000000E+00 0.  1.
         23    2    1    2    0    0 -0.23106172662E+03  0.12173210881E+04  0.59276223966E+03  0.13766211408E+04  0.91970318255E+02 0.  0.
        254    2    1    2    0    0  0.23106172662E+03 -0.12173210881E+04  0.17683621255E+03  0.15511608990E+04  0.91627994375E+03 0.  0.
        -24    2    4    4    0    0 -0.65127896342E+01 -0.55128923504E+03  0.51942601240E+03  0.76171205101E+03  0.80247300321E+02 0.  0.
         24    2    4    4    0    0  0.23757451625E+03 -0.66603185306E+03 -0.34258979985E+03  0.78944884794E+03  0.76299623086E+02 0.  0.
         11    1    3    3    0    0 -0.11499194812E+03  0.78202236169E+03  0.41016486810E+03  0.89051521118E+03  0.00000000000E+00 0.  1.
        -11    1    3    3    0    0 -0.11606977850E+03  0.43529872641E+03  0.18259737156E+03  0.48610592960E+03  0.00000000000E+00 0. -1.
          4    1    6    6  502    0  0.23348459443E+03 -0.66724340316E+03 -0.34129447731E+03  0.78499091404E+03  0.00000000000E+00 0. -1.
          3    1    5    5  503    0  0.26640990403E+02 -0.44243628661E+03  0.40716292307E+03  0.60186481539E+03  0.00000000000E+00 0. -1.
         -4    1    5    5    0  503 -0.33153780037E+02 -0.10885294842E+03  0.11226308933E+03  0.15984723562E+03  0.00000000000E+00 0.  1.
         -1    1    6    6    0  502  0.40899218203E+01  0.12115500916E+01 -0.12953225415E+01  0.44579338945E+01  0.00000000000E+00 0.  1.
<mgrwt>
<rscale>  0 0.28248232E+04</rscale>
<asrwt>0</asrwt>
<pdfrwt beam="1">  1        1 0.28441388E+00 0.28248232E+04</pdfrwt>
<pdfrwt beam="2">  1       -1 0.16601412E+00 0.28248232E+04</pdfrwt>
<totfact> 0.85888966E-01</totfact>
</mgrwt>
</event>
<event>
12    1  0.1980523E-007  0.1104748E+04  0.7818608E-02  0.9200576E-01
         -1   -1    0    0    0  501 -0.00000000000E+00  0.00000000000E+00  0.37869362157E+04  0.37869362157E+04  0.00000000000E+00 0.  1.
          1   -1    0    0  501    0  0.00000000000E+00 -0.00000000000E+00 -0.80571008143E+02  0.80571008143E+02  0.00000000000E+00 0. -1.
         23    2    1    2    0    0  0.13273947983E+03 -0.50716722483E+02  0.34803677943E+03  0.38717205100E+03  0.92631753717E+02 0.  0.
        254    2    1    2    0    0 -0.13273947983E+03  0.50716722483E+02  0.33583284281E+04  0.34803351729E+04  0.90231431813E+03 0.  0.
        -24    2    4    4    0    0  0.30922253260E+03  0.25931362231E+03  0.13167281797E+04  0.13795284700E+04  0.80396336583E+02 0.  0.
         24    2    4    4    0    0 -0.44196201244E+03 -0.20859689982E+03  0.20416002485E+04  0.21008067029E+04  0.80088334219E+02 0.  0.
         11    1    3    3    0    0  0.78726590689E+02 -0.61448309199E+02  0.29199773771E+03  0.30860403369E+03  0.00000000000E+00 0.  1.
        -11    1    3    3    0    0  0.54012889144E+02  0.10731586716E+02  0.56039041724E+02  0.78568017312E+02  0.00000000000E+00 0. -1.
          2    1    6    6  502    0 -0.20442765516E+03 -0.10830432006E+03  0.80340192552E+03  0.83604733471E+03  0.00000000000E+00 0. -1.
          1    1    5    5  503    0  0.76635270304E+02  0.88672506479E+02  0.49334405659E+03  0.50707409344E+03  0.00000000000E+00 0. -1.
         -2    1    5    5    0  503  0.23258726230E+03  0.17064111583E+03  0.82338412308E+03  0.87245437654E+03  0.00000000000E+00 0.  1.
         -1    1    6    6    0  502 -0.23753435728E+03 -0.10029257977E+03  0.12381983229E+04  0.12647593682E+04  0.00000000000E+00 0.  1.
<mgrwt>
<rscale>  0 0.11047484E+04</rscale>
<asrwt>0</asrwt>
<pdfrwt beam="1">  1        1 0.12395543E-01 0.11047484E+04</pdfrwt>
<pdfrwt beam="2">  1       -1 0.58260543E+00 0.11047484E+04</pdfrwt>
<totfact> 0.25670679E-01</totfact>
</mgrwt>
</event>
<event>
12    1  0.1980523E-007  0.4312372E+04  0.7818608E-02  0.7944334E-01
          2   -1    0    0  501    0  0.00000000000E+00  0.00000000000E+00  0.24549543567E+04  0.24549543567E+04  0.00000000000E+00 0. -1.
         -2   -1    0    0    0  501 -0.00000000000E+00 -0.00000000000E+00 -0.18937775656E+04  0.18937775656E+04  0.00000000000E+00 0.  1.
         23    2    1    2    0    0 -0.12130164360E+04  0.74706906934E+03 -0.12334859795E+04  0.18866475108E+04  0.91815575712E+02 0.  0.
        254    2    1    2    0    0  0.12130164360E+04 -0.74706906934E+03  0.17946627705E+04  0.24620844115E+04  0.90084633613E+03 0.  0.
        -24    2    4    4    0    0  0.98990809323E+03 -0.10322778490E+03  0.11072705737E+04  0.14910089099E+04  0.80532213061E+02 0.  0.
         24    2    4    4    0    0  0.22310834281E+03 -0.64384128444E+03  0.68739219680E+03  0.97107550167E+03  0.78553583920E+02 0.  0.
         11    1    3    3    0    0 -0.87683920135E+03  0.50147784458E+03 -0.90714124798E+03  0.13576568997E+04  0.00000000000E+00 0.  1.
        -11    1    3    3    0    0 -0.33617723469E+03  0.24559122476E+03 -0.32634473147E+03  0.52899061103E+03  0.00000000000E+00 0. -1.
          4    1    6    6  502    0  0.36418502314E+02 -0.21378500225E+03  0.20603462444E+03  0.29913308236E+03  0.00000000000E+00 0. -1.
          3    1    5    5  503    0  0.17877850547E+03 -0.28521520230E+02  0.24749449722E+03  0.30664108871E+03  0.00000000000E+00 0. -1.
         -4    1    5    5    0  503  0.81112958776E+03 -0.74706264667E+02  0.85977607645E+03  0.11843678211E+04  0.00000000000E+00 0.  1.
         -1    1    6    6    0  502  0.18668984050E+03 -0.43005628220E+03  0.48135757236E+03  0.67194241931E+03  0.00000000000E+00 0.  1.
<mgrwt>
<rscale>  0 0.43123717E+04</rscale>
<asrwt>0</asrwt>
<pdfrwt beam="1">  1        2 0.37768528E+00 0.43123717E+04</pdfrwt>
<pdfrwt beam="2">  1       -2 0.29135040E+00 0.43123717E+04</pdfrwt>
<totfact> 0.10208767E-01</totfact>
</mgrwt>
</event>
<event>
12    1  0.1980523E-007  0.2817950E+04  0.7818608E-02  0.8297717E-01
         -2   -1    0    0    0  501 -0.00000000000E+00  0.00000000000E+00  0.18655996765E+04  0.18655996765E+04  0.00000000000E+00 0.  1.
          2   -1    0    0  501    0  0.00000000000E+00 -0.00000000000E+00 -0.10641135764E+04  0.10641135764E+04  0.00000000000E+00 0. -1.
         23    2    1    2    0    0  0.11255284964E+04 -0.31810266583E+03 -0.13607812802E+03  0.11810287252E+04  0.91147630384E+02 0.  0.
        254    2    1    2    0    0 -0.11255284964E+04  0.31810266583E+03  0.93756422814E+03  0.17486845277E+04  0.90048164525E+03 0.  0.
        -24    2    4    4    0    0 -0.52484759691E+03  0.51095758705E+03  0.17786159605E+03  0.75793789504E+03  0.79324962293E+02 0.  0.
         24    2    4    4    0    0 -0.60068089951E+03 -0.19285492123E+03  0.75970263209E+03  0.99074663270E+03  0.80126383509E+02 0.  0.
         13    1    3    3    0    0  0.37720091031E+03 -0.12646951794E+03 -0.85348084241E+02  0.40688986371E+03  0.00000000000E+00 0.  1.
        -13    1    3    3    0    0  0.74832758611E+03 -0.19163314789E+03 -0.50730043781E+02  0.77413886147E+03  0.00000000000E+00 0. -1.
          4    1    6    6  502    0 -0.58348093717E+03 -0.18738782205E+03  0.75437470250E+03  0.97192869680E+03  0.00000000000E+00 0. -1.
          1    1    5    5  503    0 -0.18665375178E+03  0.19270549184E+03  0.26905880006E+02  0.26962743929E+03  0.00000000000E+00 0. -1.
         -2    1    5    5    0  503 -0.33819384514E+03  0.31825209521E+03  0.15095571604E+03  0.48831045576E+03  0.00000000000E+00 0.  1.
         -3    1    6    6    0  502 -0.17199962344E+02 -0.54670991791E+01  0.53279295899E+01  0.18817935907E+02  0.00000000000E+00 0.  1.
<mgrwt>
<rscale>  0 0.28179496E+04</rscale>
<asrwt>0</asrwt>
<pdfrwt beam="1">  1        2 0.16370978E+00 0.28179496E+04</pdfrwt>
<pdfrwt beam="2">  1       -2 0.28701534E+00 0.28179496E+04</pdfrwt>
<totfact> 0.76041016E-01</totfact>
</mgrwt>
</event>
<event>
12    1  0.1980523E-007  0.2466858E+04  0.7818608E-02  0.8414889E-01
          1   -1    0    0  501    0  0.00000000000E+00  0.00000000000E+00  0.22334915450E+04  0.22334915450E+04  0.00000000000E+00 0. -1.
         -1   -1    0    0    0  501 -0.00000000000E+00 -0.00000000000E+00 -0.68115188604E+03  0.68115188604E+03  0.00000000000E+00 0.  1.
         23    2    1    2    0    0 -0.41972508343E+03 -0.49663645857E+03  0.16709846641E+04  0.17953612973E+04  0.91189485807E+02 0.  0.
        254    2    1    2    0    0  0.41972508343E+03  0.49663645857E+03 -0.11864500517E+03  0.11192821338E+04  0.90327124392E+03 0.  0.
        -24    2    4    4    0    0  0.55753379461E+02 -0.42502100003E+02 -0.39300429656E+03  0.40867408209E+03  0.87448615961E+02 0.  0.
         24    2    4    4    0    0  0.36397170397E+03  0.53913855858E+03  0.27435929139E+03  0.71060805168E+03  0.80901147779E+02 0.  0.
         13    1    3    3    0    0 -0.10373877854E+03 -0.15886734865E+03  0.58436927628E+03  0.61440053687E+03  0.00000000000E+00 0. -1.
        -13    1    3    3    0    0 -0.31598630489E+03 -0.33776910992E+03  0.10866153879E+04  0.11809607604E+04  0.00000000000E+00 0.  1.
          2    1    6    6  502    0  0.18792358855E+03  0.21380328454E+03  0.13824133439E+03  0.31644555005E+03  0.00000000000E+00 0. -1.
          1    1    5    5  503    0 -0.20423825615E+02 -0.90319714646E+01 -0.38243093020E+02  0.44285926941E+02  0.00000000000E+00 0. -1.
         -2    1    5    5    0  503  0.76177205076E+02 -0.33470128539E+02 -0.35476120354E+03  0.36438815515E+03  0.00000000000E+00 0.  1.
         -1    1    6    6    0  502  0.17604811542E+03  0.32533527403E+03  0.13611795700E+03  0.39416250163E+03  0.00000000000E+00 0.  1.
<mgrwt>
<rscale>  0 0.24668579E+04</rscale>
<asrwt>0</asrwt>
<pdfrwt beam="1">  1        1 0.34361408E+00 0.24668579E+04</pdfrwt>
<pdfrwt beam="2">  1       -1 0.10479260E+00 0.24668579E+04</pdfrwt>
<totfact> 0.15745285E+00</totfact>
</mgrwt>
</event>
<event>
12    1  0.1980523E-007  0.2104157E+04  0.7818608E-02  0.8559414E-01
          1   -1    0    0  501    0  0.00000000000E+00  0.00000000000E+00  0.89243006866E+03  0.89243006866E+03  0.00000000000E+00 0. -1.
         -1   -1    0    0    0  501 -0.00000000000E+00 -0.00000000000E+00 -0.12402868581E+04  0.12402868581E+04  0.00000000000E+00 0.  1.
         23    2    1    2    0    0 -0.79218313399E+03  0.31183168730E+03 -0.62642182427E+02  0.85870404622E+03  0.93034815999E+02 0.  0.
        254    2    1    2    0    0  0.79218313399E+03 -0.31183168730E+03 -0.28521460702E+03  0.12740128806E+04  0.90386300332E+03 0.  0.
        -24    2    4    4    0    0  0.94852905108E+02  0.11226278708E+03 -0.41086042739E+03  0.44381730832E+03  0.81040146863E+02 0.  0.
         24    2    4    4    0    0  0.69733022888E+03 -0.42409447438E+03  0.12564582037E+03  0.83019557223E+03  0.85511663939E+02 0.  0.
         11    1    3    3    0    0 -0.17491262727E+03  0.93411139834E+02  0.17399687487E+02  0.19905480991E+03  0.00000000000E+00 0. -1.
        -11    1    3    3    0    0 -0.61727050672E+03  0.21842054747E+03 -0.80041869914E+02  0.65964923631E+03  0.00000000000E+00 0.  1.
          4    1    6    6  502    0  0.29230159211E+03 -0.20352288139E+03  0.91484716311E+02  0.36773800092E+03  0.00000000000E+00 0. -1.
          3    1    5    5  503    0  0.79656317517E+02  0.95944074095E+02 -0.23037842811E+03  0.26196300199E+03  0.00000000000E+00 0. -1.
         -4    1    5    5    0  503  0.15196587592E+02  0.16318712982E+02 -0.18048199927E+03  0.18185430633E+03  0.00000000000E+00 0.  1.
         -3    1    6    6    0  502  0.40502863677E+03 -0.22057159299E+03  0.34161104056E+02  0.46245757131E+03  0.00000000000E+00 0.  1.
<mgrwt>
<rscale>  0 0.21041571E+04</rscale>
<asrwt>0</asrwt>
<pdfrwt beam="1">  1        1 0.13729694E+00 0.21041571E+04</pdfrwt>
<pdfrwt beam="2">  1       -1 0.19081336E+00 0.21041571E+04</pdfrwt>
<totfact> 0.29594006E+00</totfact>
</mgrwt>
</event>
<event>
12    1  0.1980523E-007  0.2391455E+04  0.7818608E-02  0.8442710E-01
          2   -1    0    0  501    0  0.00000000000E+00  0.00000000000E+00  0.78078282710E+03  0.78078282710E+03  0.00000000000E+00 0. -1.
         -2   -1    0    0    0  501 -0.00000000000E+00 -0.00000000000E+00 -0.18311925512E+04  0.18311925512E+04  0.00000000000E+00 0.  1.
         23    2    1    2    0    0  0.95921540286E+03  0.35021845898E+03 -0.53605923726E+03  0.11568894876E+04  0.91030888245E+02 0.  0.
        254    2    1    2    0    0 -0.95921540286E+03 -0.35021845898E+03 -0.51435048682E+03  0.14550858907E+04  0.89998409308E+03 0.  0.
        -24    2    4    4    0    0 -0.62465254534E+03  0.64417819402E+02 -0.64189573134E+03  0.90155782383E+03  0.80224197932E+02 0.  0.
         24    2    4    4    0    0 -0.33456285753E+03 -0.41463627839E+03  0.12754524453E+03  0.55352806683E+03  0.79183220272E+02 0.  0.
         11    1    3    3    0    0  0.31110623019E+03  0.84943989233E+02 -0.13265417520E+03  0.34871148241E+03  0.00000000000E+00 0. -1.
        -11    1    3    3    0    0  0.64810917268E+03  0.26527446975E+03 -0.40340506206E+03  0.80817800521E+03  0.00000000000E+00 0.  1.
          2    1    6    6  502    0 -0.16678362425E+03 -0.25840744676E+03  0.95517820276E+02  0.32204788440E+03  0.00000000000E+00 0. -1.
          3    1    5    5  503    0 -0.22460946077E+03 -0.61287593928E+01 -0.19359047673E+03  0.29658766704E+03  0.00000000000E+00 0. -1.
         -4    1    5    5    0  503 -0.40004308457E+03  0.70546578795E+02 -0.44830525462E+03  0.60497015679E+03  0.00000000000E+00 0.  1.
         -1    1    6    6    0  502 -0.16777923328E+03 -0.15622883163E+03  0.32027424252E+02  0.23148018242E+03  0.00000000000E+00 0.  1.
<mgrwt>
<rscale>  0 0.23914545E+04</rscale>
<asrwt>0</asrwt>
<pdfrwt beam="1">  1        2 0.12012044E+00 0.23914545E+04</pdfrwt>
<pdfrwt beam="2">  1       -2 0.28172193E+00 0.23914545E+04</pdfrwt>
<totfact> 0.13160488E+00</totfact>
</mgrwt>
</event>
<event>
12    1  0.1980523E-007  0.2234500E+04  0.7818608E-02  0.8504204E-01
         -1   -1    0    0    0  501 -0.00000000000E+00  0.00000000000E+00  0.26023338025E+04  0.26023338025E+04  0.00000000000E+00 0.  1.
          1   -1    0    0  501    0  0.00000000000E+00 -0.00000000000E+00 -0.47966475816E+03  0.47966475816E+03  0.00000000000E+00 0. -1.
         23    2    1    2    0    0 -0.25199076631E+03 -0.90063754065E+03  0.92439656448E+03  0.13183019999E+04  0.93615322143E+02 0.  0.
        254    2    1    2    0    0  0.25199076631E+03  0.90063754065E+03  0.11982724799E+04  0.17636965608E+04  0.89449499527E+03 0.  0.
        -24    2    4    4    0    0  0.55160252748E+02  0.85588717371E+02 -0.13457525811E+03  0.18704295715E+03  0.80662790060E+02 0.  0.
         24    2    4    4    0    0  0.19683051356E+03  0.81504882328E+03  0.13328477380E+04  0.15766536036E+04  0.79414468495E+02 0.  0.
         11    1    3    3    0    0 -0.19828960566E+03 -0.54314790891E+03  0.58155917345E+03  0.82008505101E+03  0.00000000000E+00 0. -1.
        -11    1    3    3    0    0 -0.53701160653E+02 -0.35748963174E+03  0.34283739103E+03  0.49821694888E+03  0.00000000000E+00 0.  1.
          2    1    6    6  502    0  0.35535772291E+02  0.16988977297E+03  0.21971579509E+03  0.28000063693E+03  0.00000000000E+00 0. -1.
          3    1    5    5  503    0  0.17040415649E+02 -0.13133587540E+02 -0.10417279723E+02  0.23903694359E+02  0.00000000000E+00 0. -1.
         -4    1    5    5    0  503  0.38119837099E+02  0.98722304911E+02 -0.12415797838E+03  0.16313926279E+03  0.00000000000E+00 0.  1.
         -1    1    6    6    0  502  0.16129474127E+03  0.64515905031E+03  0.11131319429E+04  0.12966529667E+04  0.00000000000E+00 0.  1.
<mgrwt>
<rscale>  0 0.22345002E+04</rscale>
<asrwt>0</asrwt>
<pdfrwt beam="1">  1        1 0.73794580E-01 0.22345002E+04</pdfrwt>
<pdfrwt beam="2">  1       -1 0.40035904E+00 0.22345002E+04</pdfrwt>
<totfact> 0.30369843E-01</totfact>
</mgrwt>
</event>
<event>
12    1  0.1980523E-007  0.1580893E+04  0.7818608E-02  0.8832373E-01
         -3   -1    0    0    0  501 -0.00000000000E+00  0.00000000000E+00  0.53654084529E+03  0.53654084529E+03  0.00000000000E+00 0.  1.
          3   -1    0    0  501    0  0.00000000000E+00 -0.00000000000E+00 -0.11645071673E+04  0.11645071673E+04  0.00000000000E+00 0. -1.
         23    2    1    2    0    0 -0.50743845984E+03 -0.12497457311E+03 -0.18208062994E+03  0.56100683612E+03  0.91993912467E+02 0.  0.
        254    2    1    2    0    0  0.50743845984E+03  0.12497457311E+03 -0.44588569207E+03  0.11400411765E+04  0.90981723396E+03 0.  0.
        -24    2    4    4    0    0 -0.24209295009E+03 -0.49606899261E+02 -0.20193045957E+03  0.32875321550E+03  0.78948877515E+02 0.  0.
         24    2    4    4    0    0  0.74953140993E+03  0.17458147237E+03 -0.24395523250E+03  0.81128796097E+03  0.79987343925E+02 0.  0.
         11    1    3    3    0    0 -0.12333557651E+03 -0.20570113799E+02 -0.85322089451E+02  0.15137586651E+03  0.00000000000E+00 0. -1.
        -11    1    3    3    0    0 -0.38410288333E+03 -0.10440445931E+03 -0.96758540488E+02  0.40963096961E+03  0.00000000000E+00 0.  1.
          4    1    6    6  502    0  0.85985394902E+02 -0.13713407413E+01 -0.12843655098E+02  0.86950147718E+02  0.00000000000E+00 0. -1.
          1    1    5    5  503    0 -0.70052695832E+02 -0.65058457142E+01 -0.16708946350E+02  0.72311099493E+02  0.00000000000E+00 0. -1.
         -2    1    5    5    0  503 -0.17204025426E+03 -0.43101053547E+02 -0.18522151322E+03  0.25644211601E+03  0.00000000000E+00 0.  1.
         -3    1    6    6    0  502  0.66354601503E+03  0.17595281311E+03 -0.23111157740E+03  0.72433781325E+03  0.00000000000E+00 0.  1.
<mgrwt>
<rscale>  0 0.15808930E+04</rscale>
<asrwt>0</asrwt>
<pdfrwt beam="1">  1        3 0.17915495E+00 0.15808930E+04</pdfrwt>
<pdfrwt beam="2">  1       -3 0.82544745E-01 0.15808930E+04</pdfrwt>
<totfact> 0.68596539E-01</totfact>
</mgrwt>
</event>
<event>
12    1  0.1980523E-007  0.2019434E+04  0.7818608E-02  0.8597588E-01
          1   -1    0    0  501    0  0.00000000000E+00  0.00000000000E+00  0.45835063500E+03  0.45835063500E+03  0.00000000000E+00 0.  1.
         -1   -1    0    0    0  501 -0.00000000000E+00 -0.00000000000E+00 -0.22243426137E+04  0.22243426137E+04  0.00000000000E+00 0. -1.
         23    2    1    2    0    0 -0.27189029219E+03  0.51178349883E+03  0.35131124665E+02  0.58781416503E+03  0.91894591916E+02 0.  0.
        254    2    1    2    0    0  0.27189029219E+03 -0.51178349883E+03 -0.18011231033E+04  0.20948790836E+04  0.89923704385E+03 0.  0.
        -24    2    4    4    0    0  0.30387856088E+03 -0.75083213605E+03 -0.13100818161E+04  0.15424649775E+04  0.82418236550E+02 0.  0.
         24    2    4    4    0    0 -0.31988268689E+02  0.23904863721E+03 -0.49104128725E+03  0.55241410613E+03  0.76630924433E+02 0.  0.
         13    1    3    3    0    0 -0.95930773678E+02  0.25767557645E+03  0.44800785484E+02  0.27857947953E+03  0.00000000000E+00 0.  1.
        -13    1    3    3    0    0 -0.17595951851E+03  0.25410792238E+03 -0.96696608186E+01  0.30923468550E+03  0.00000000000E+00 0. -1.
          4    1    6    6  502    0  0.41279558217E+01  0.54422208787E+02 -0.18768683580E+03  0.19546141604E+03  0.00000000000E+00 0. -1.
          3    1    5    5  503    0  0.28541819752E+03 -0.69243538291E+03 -0.11648636236E+04  0.13848601260E+04  0.00000000000E+00 0. -1.
         -4    1    5    5    0  503  0.18460363366E+02 -0.58396753132E+02 -0.14521819247E+03  0.15760485150E+03  0.00000000000E+00 0.  1.
         -3    1    6    6    0  502 -0.36116224511E+02  0.18462642843E+03 -0.30335445145E+03  0.35695269009E+03  0.00000000000E+00 0.  1.
<mgrwt>
<rscale>  0 0.20194344E+04</rscale>
<asrwt>0</asrwt>
<pdfrwt beam="1">  1        1 0.70515482E-01 0.20194344E+04</pdfrwt>
<pdfrwt beam="2">  1       -1 0.34220656E+00 0.20194344E+04</pdfrwt>
<totfact> 0.81034936E-01</totfact>
</mgrwt>
</event>
<event>
12    1  0.1980523E-007  0.4576522E+04  0.7818608E-02  0.7897375E-01
         -2   -1    0    0    0  501 -0.00000000000E+00  0.00000000000E+00  0.15063032091E+04  0.15063032091E+04  0.00000000000E+00 0.  1.
          2   -1    0    0  501    0  0.00000000000E+00 -0.00000000000E+00 -0.34761510234E+04  0.34761510234E+04  0.00000000000E+00 0. -1.
         23    2    1    2    0    0  0.73696700855E+03 -0.15625301051E+03  0.13016857759E+04  0.15063945416E+04  0.85459234371E+02 0.  0.
        254    2    1    2    0    0 -0.73696700855E+03  0.15625301051E+03 -0.32715335902E+04  0.34760596910E+04  0.90140089203E+03 0.  0.
        -24    2    4    4    0    0 -0.90407115602E+03 -0.20944435327E+02 -0.23427721211E+04  0.25125597301E+04  0.81190277499E+02 0.  0.
         24    2    4    4    0    0  0.16710414747E+03  0.17719744584E+03 -0.92876146910E+03  0.96349996088E+03  0.80072324913E+02 0.  0.
         11    1    3    3    0    0  0.18622603745E+03 -0.57940189516E+02  0.40474358355E+03  0.44928228433E+03  0.00000000000E+00 0.  1.
        -11    1    3    3    0    0  0.55074097109E+03 -0.98312820996E+02  0.89694219238E+03  0.10571122573E+04  0.00000000000E+00 0. -1.
          4    1    6    6  502    0  0.35212465207E+02  0.94143247999E+02 -0.36839826727E+03  0.38186404934E+03  0.00000000000E+00 0. -1.
          3    1    5    5  503    0 -0.49256587504E+03 -0.47994033980E+02 -0.13254170529E+04  0.14147985485E+04  0.00000000000E+00 0. -1.
         -4    1    5    5    0  503 -0.41150528098E+03  0.27049598653E+02 -0.10173550682E+04  0.10977611816E+04  0.00000000000E+00 0.  1.
         -3    1    6    6    0  502  0.13189168227E+03  0.83054197841E+02 -0.56036320184E+03  0.58163591155E+03  0.00000000000E+00 0.  1.
<mgrwt>
<rscale>  0 0.45765216E+04</rscale>
<asrwt>0</asrwt>
<pdfrwt beam="1">  1        2 0.53479246E+00 0.45765216E+04</pdfrwt>
<pdfrwt beam="2">  1       -2 0.23173896E+00 0.45765216E+04</pdfrwt>
<totfact> 0.52946858E-02</totfact>
</mgrwt>
</event>
<event>
12    1  0.1980523E-007  0.1586846E+04  0.7818608E-02  0.8828670E-01
         -2   -1    0    0    0  501 -0.00000000000E+00  0.00000000000E+00  0.27789432906E+03  0.27789432906E+03  0.00000000000E+00 0. -1.
          2   -1    0    0  501    0  0.00000000000E+00 -0.00000000000E+00 -0.22653209664E+04  0.22653209664E+04  0.00000000000E+00 0.  1.
         23    2    1    2    0    0 -0.22927260997E+03  0.27623648299E+03 -0.45174880274E+02  0.37301289526E+03  0.90693583029E+02 0.  0.
        254    2    1    2    0    0  0.22927260997E+03 -0.27623648299E+03 -0.19422517571E+04  0.21702024002E+04  0.89920189378E+03 0.  0.
        -24    2    4    4    0    0  0.22541530311E+03  0.26486185564E+03 -0.41182429008E+03  0.54500519806E+03  0.80421132524E+02 0.  0.
         24    2    4    4    0    0  0.38573068535E+01 -0.54109833863E+03 -0.15304274670E+04  0.16251972021E+04  0.79091233750E+02 0.  0.
         13    1    3    3    0    0 -0.21225584245E+03  0.19911717522E+03 -0.29787350229E+02  0.29255337693E+03  0.00000000000E+00 0. -1.
        -13    1    3    3    0    0 -0.17016767519E+02  0.77119307770E+02 -0.15387530046E+02  0.80459518322E+02  0.00000000000E+00 0.  1.
          4    1    6    6  502    0  0.13706300648E+01 -0.16919488188E+03 -0.37539499550E+03  0.41176472569E+03  0.00000000000E+00 0. -1.
          3    1    5    5  503    0  0.75828880537E+02  0.10218096782E+03 -0.21095170730E+03  0.24635663604E+03  0.00000000000E+00 0. -1.
         -4    1    5    5    0  503  0.14958642258E+03  0.16268088782E+03 -0.20087258278E+03  0.29864856202E+03  0.00000000000E+00 0.  1.
         -3    1    6    6    0  502  0.24866767887E+01 -0.37190345676E+03 -0.11550324715E+04  0.12134324764E+04  0.00000000000E+00 0.  1.
<mgrwt>
<rscale>  0 0.15868457E+04</rscale>
<asrwt>0</asrwt>
<pdfrwt beam="1">  1        2 0.34851093E+00 0.15868457E+04</pdfrwt>
<pdfrwt beam="2">  1       -2 0.42752972E-01 0.15868457E+04</pdfrwt>
<totfact> 0.23641345E+01</totfact>
</mgrwt>
</event>
<event>
12    1  0.1980523E-007  0.2723117E+04  0.7818608E-02  0.8327543E-01
         -2   -1    0    0    0  501 -0.00000000000E+00  0.00000000000E+00  0.14666493761E+04  0.14666493761E+04  0.00000000000E+00 0.  1.
          2   -1    0    0  501    0  0.00000000000E+00 -0.00000000000E+00 -0.12639977155E+04  0.12639977155E+04  0.00000000000E+00 0. -1.
         23    2    1    2    0    0  0.46318467057E+03 -0.11097892060E+04 -0.50436759476E+02  0.12069769663E+04  0.89874410569E+02 0.  0.
        254    2    1    2    0    0 -0.46318467057E+03  0.11097892060E+04  0.25308842005E+03  0.15236701253E+04  0.90074679101E+03 0.  0.
        -24    2    4    4    0    0  0.11649350179E+03  0.21275867079E+03  0.36689655335E+03  0.44684496886E+03  0.78869242261E+02 0.  0.
         24    2    4    4    0    0 -0.57967817236E+03  0.89703053519E+03 -0.11380813330E+03  0.10768251564E+04  0.76873673766E+02 0.  0.
         11    1    3    3    0    0  0.26302207972E+03 -0.57769178385E+03 -0.66688592894E+02  0.63824429490E+03  0.00000000000E+00 0. -1.
        -11    1    3    3    0    0  0.20016259085E+03 -0.53209742213E+03  0.16251833419E+02  0.56873267139E+03  0.00000000000E+00 0.  1.
          4    1    6    6  502    0 -0.10665932842E+03  0.12453347234E+03 -0.34415888644E+02  0.16753880584E+03  0.00000000000E+00 0. -1.
          1    1    5    5  503    0  0.78457059776E+02  0.14635215445E+03  0.18005036233E+03  0.24493386110E+03  0.00000000000E+00 0. -1.
         -2    1    5    5    0  503  0.38036442010E+02  0.66406516343E+02  0.18684619103E+03  0.20191110775E+03  0.00000000000E+00 0.  1.
         -3    1    6    6    0  502 -0.47301884394E+03  0.77249706285E+03 -0.79392244654E+02  0.90928635057E+03  0.00000000000E+00 0.  1.
<mgrwt>
<rscale>  0 0.27231169E+04</rscale>
<asrwt>0</asrwt>
<pdfrwt beam="1">  1        2 0.19446119E+00 0.27231169E+04</pdfrwt>
<pdfrwt beam="2">  1       -2 0.22563836E+00 0.27231169E+04</pdfrwt>
<totfact> 0.13837727E+00</totfact>
</mgrwt>
</event>
<event>
12    1  0.1980523E-007  0.1427599E+04  0.7818608E-02  0.8934080E-01
          2   -1    0    0  501    0  0.00000000000E+00  0.00000000000E+00  0.34380077816E+04  0.34380077816E+04  0.00000000000E+00 0. -1.
         -2   -1    0    0    0  501 -0.00000000000E+00 -0.00000000000E+00 -0.14819912391E+03  0.14819912391E+03  0.00000000000E+00 0.  1.
         23    2    1    2    0    0 -0.32269292090E+03 -0.22744431763E+03  0.13821687562E+04  0.14403123940E+04  0.90816753558E+02 0.  0.
        254    2    1    2    0    0  0.32269292090E+03  0.22744431763E+03  0.19076399014E+04  0.21458945115E+04  0.89995089985E+03 0.  0.
        -24    2    4    4    0    0  0.40755689794E+03  0.13868883826E+03  0.19459490528E+04  0.19944692615E+04  0.76502942892E+02 0.  0.
         24    2    4    4    0    0 -0.84863977044E+02  0.88755479371E+02 -0.38309151352E+02  0.15142524996E+03  0.79891085430E+02 0.  0.
         11    1    3    3    0    0 -0.14446903758E+03 -0.12625200672E+03  0.52430814029E+03  0.55830985841E+03  0.00000000000E+00 0.  1.
        -11    1    3    3    0    0 -0.17822388332E+03 -0.10119231091E+03  0.85786061593E+03  0.88200253556E+03  0.00000000000E+00 0. -1.
          4    1    6    6  502    0 -0.36489715959E+02  0.19226066514E+02  0.22662335181E+02  0.47060837649E+02  0.00000000000E+00 0. -1.
          1    1    5    5  503    0  0.23703634896E+02  0.22951904462E+01  0.51824744959E+02  0.57034501809E+02  0.00000000000E+00 0. -1.
         -2    1    5    5    0  503  0.38385326304E+03  0.13639364782E+03  0.18941243078E+04  0.19374347597E+04  0.00000000000E+00 0.  1.
         -3    1    6    6    0  502 -0.48374261084E+02  0.69529412857E+02 -0.60971486533E+02  0.10436441231E+03  0.00000000000E+00 0.  1.
<mgrwt>
<rscale>  0 0.14275990E+04</rscale>
<asrwt>0</asrwt>
<pdfrwt beam="1">  1        2 0.52892422E+00 0.14275990E+04</pdfrwt>
<pdfrwt beam="2">  1       -2 0.22799868E-01 0.14275990E+04</pdfrwt>
<totfact> 0.14999232E+01</totfact>
</mgrwt>
</event>
<event>
12    1  0.1980523E-007  0.1964747E+04  0.7818608E-02  0.8623282E-01
          2   -1    0    0  501    0  0.00000000000E+00  0.00000000000E+00  0.13708352194E+04  0.13708352194E+04  0.00000000000E+00 0. -1.
         -2   -1    0    0    0  501 -0.00000000000E+00 -0.00000000000E+00 -0.70399257013E+03  0.70399257013E+03  0.00000000000E+00 0.  1.
         23    2    1    2    0    0  0.48160599166E+03  0.11624166524E+03 -0.36437565413E+03  0.62123555606E+03  0.87792612745E+02 0.  0.
        254    2    1    2    0    0 -0.48160599166E+03 -0.11624166524E+03  0.10312183034E+04  0.14535922335E+04  0.89669545330E+03 0.  0.
        -24    2    4    4    0    0 -0.26694120759E+03  0.34973442747E+03  0.72194281014E+03  0.84913408234E+03  0.79091659491E+02 0.  0.
         24    2    4    4    0    0 -0.21466478407E+03 -0.46597609271E+03  0.30927549326E+03  0.60445815113E+03  0.80645131484E+02 0.  0.
         13    1    3    3    0    0  0.46464633351E+03  0.93023346169E+02 -0.34986365235E+03  0.58902812617E+03  0.00000000000E+00 0.  1.
        -13    1    3    3    0    0  0.16959658149E+02  0.23218319068E+02 -0.14512001778E+02  0.32207429896E+02  0.00000000000E+00 0. -1.
          4    1    6    6  502    0 -0.83777866289E+02 -0.13902600064E+03  0.60275316224E+02  0.17314754829E+03  0.00000000000E+00 0. -1.
          1    1    5    5  503    0 -0.16115493201E+03  0.22711108094E+03  0.52382297074E+03  0.59324603654E+03  0.00000000000E+00 0. -1.
         -2    1    5    5    0  503 -0.10578627559E+03  0.12262334653E+03  0.19811983940E+03  0.25588804579E+03  0.00000000000E+00 0.  1.
         -3    1    6    6    0  502 -0.13088691778E+03 -0.32695009207E+03  0.24900017703E+03  0.43131060283E+03  0.00000000000E+00 0.  1.
<mgrwt>
<rscale>  0 0.19647471E+04</rscale>
<asrwt>0</asrwt>
<pdfrwt beam="1">  1        2 0.21089773E+00 0.19647471E+04</pdfrwt>
<pdfrwt beam="2">  1       -2 0.10830655E+00 0.19647471E+04</pdfrwt>
<totfact> 0.95604746E+00</totfact>
</mgrwt>
</event>
<event>
12    1  0.1980523E-007  0.1563241E+04  0.7818608E-02  0.8843454E-01
         -2   -1    0    0    0  501 -0.00000000000E+00  0.00000000000E+00  0.90822161737E+03  0.90822161737E+03  0.00000000000E+00 0.  1.
          2   -1    0    0  501    0  0.00000000000E+00 -0.00000000000E+00 -0.67266728360E+03  0.67266728360E+03  0.00000000000E+00 0. -1.
         23    2    1    2    0    0  0.45624687027E+02  0.11028607503E+03  0.58654092299E+03  0.60535283865E+03  0.90427730859E+02 0.  0.
        254    2    1    2    0    0 -0.45624687027E+02 -0.11028607503E+03 -0.35098658922E+03  0.97553606232E+03  0.90234937395E+03 0.  0.
        -24    2    4    4    0    0 -0.14053971325E+03  0.23297264968E+03  0.17642977839E+03  0.33431623454E+03  0.81315505745E+02 0.  0.
         24    2    4    4    0    0  0.94915026227E+02 -0.34325872470E+03 -0.52741636761E+03  0.64121982778E+03  0.78482026175E+02 0.  0.
         13    1    3    3    0    0 -0.21578321997E+02  0.28676810546E+02  0.25097223160E+03  0.25352523440E+03  0.00000000000E+00 0.  1.
        -13    1    3    3    0    0  0.67203009024E+02  0.81609264480E+02  0.33556869139E+03  0.35182760425E+03  0.00000000000E+00 0. -1.
          4    1    6    6  502    0 -0.15862220415E+01 -0.11538226467E+03 -0.13883011093E+03  0.18052529685E+03  0.00000000000E+00 0. -1.
          1    1    5    5  503    0 -0.27399501763E+02  0.12081600438E+03  0.89501952704E+02  0.15283271623E+03  0.00000000000E+00 0. -1.
         -2    1    5    5    0  503 -0.11314021149E+03  0.11215664529E+03  0.86927825687E+02  0.18148351831E+03  0.00000000000E+00 0.  1.
         -3    1    6    6    0  502  0.96501248268E+02 -0.22787646003E+03 -0.38858625668E+03  0.46069453094E+03  0.00000000000E+00 0.  1.
<mgrwt>
<rscale>  0 0.15632415E+04</rscale>
<asrwt>0</asrwt>
<pdfrwt beam="1">  1        2 0.10348727E+00 0.15632415E+04</pdfrwt>
<pdfrwt beam="2">  1       -2 0.13972640E+00 0.15632415E+04</pdfrwt>
<totfact> 0.14948317E+01</totfact>
</mgrwt>
</event>
<event>
12    1  0.1980523E-007  0.1129535E+04  0.7818608E-02  0.9176873E-01
         -2   -1    0    0    0  501 -0.00000000000E+00  0.00000000000E+00  0.17829160495E+03  0.17829160495E+03  0.00000000000E+00 0.  1.
          2   -1    0    0  501    0  0.00000000000E+00 -0.00000000000E+00 -0.17889933724E+04  0.17889933724E+04  0.00000000000E+00 0. -1.
         23    2    1    2    0    0 -0.56000432630E+02 -0.14322276921E+03 -0.10612087292E+03  0.20772692289E+03  0.90774582063E+02 0.  0.
        254    2    1    2    0    0  0.56000432630E+02  0.14322276921E+03 -0.15045808946E+04  0.17595580545E+04  0.89923971709E+03 0.  0.
        -24    2    4    4    0    0 -0.65250752267E+02  0.17805316946E+03  0.38264921672E+02  0.20955244372E+03  0.80544587745E+02 0.  0.
         24    2    4    4    0    0  0.12125118490E+03 -0.34830400243E+02 -0.15428458162E+04  0.15500056108E+04  0.78925117252E+02 0.  0.
         13    1    3    3    0    0 -0.40531934855E+02 -0.15153657892E+03 -0.10741812618E+03  0.19011792742E+03  0.00000000000E+00 0. -1.
        -13    1    3    3    0    0 -0.15468497775E+02  0.83138097115E+01  0.12972532630E+01  0.17608995467E+02  0.00000000000E+00 0.  1.
          2    1    6    6  502    0  0.20303300098E+02 -0.27311175138E+02 -0.16649976498E+03  0.16994203724E+03  0.00000000000E+00 0. -1.
          1    1    5    5  503    0 -0.36424801551E+02  0.26554529814E+02 -0.13209000557E+02  0.46972193023E+02  0.00000000000E+00 0. -1.
         -2    1    5    5    0  503 -0.28825950716E+02  0.15149863964E+03  0.51473922229E+02  0.16258025070E+03  0.00000000000E+00 0.  1.
         -1    1    6    6    0  502  0.10094788480E+03 -0.75192251053E+01 -0.13763460513E+04  0.13800635735E+04  0.00000000000E+00 0.  1.
<mgrwt>
<rscale>  0 0.11295353E+04</rscale>
<asrwt>0</asrwt>
<pdfrwt beam="1">  1        2 0.27522975E+00 0.11295353E+04</pdfrwt>
<pdfrwt beam="2">  1       -2 0.27429478E-01 0.11295353E+04</pdfrwt>
<totfact> 0.10505848E+02</totfact>
</mgrwt>
</event>
<event>
12    1  0.1980523E-007  0.1476781E+04  0.7818608E-02  0.8900042E-01
          2   -1    0    0  501    0  0.00000000000E+00  0.00000000000E+00  0.17598267747E+04  0.17598267747E+04  0.00000000000E+00 0. -1.
         -2   -1    0    0    0  501 -0.00000000000E+00 -0.00000000000E+00 -0.30981475404E+03  0.30981475404E+03  0.00000000000E+00 0.  1.
         23    2    1    2    0    0  0.94877197226E+01 -0.43848072035E+03  0.27382850598E+03  0.52487785783E+03  0.90329153678E+02 0.  0.
        254    2    1    2    0    0 -0.94877197226E+01  0.43848072035E+03  0.11761835147E+04  0.15447636709E+04  0.90029538474E+03 0.  0.
        -24    2    4    4    0    0 -0.88223821048E+02  0.33709281183E+02  0.11131629999E+04  0.11200554477E+04  0.80452367753E+02 0.  0.
         24    2    4    4    0    0  0.78736101325E+02  0.40477143917E+03  0.63020514783E+02  0.42470822315E+03  0.79788457223E+02 0.  0.
         13    1    3    3    0    0  0.46116156253E+02 -0.31129389065E+03  0.17878492634E+03  0.36193181141E+03  0.00000000000E+00 0.  1.
        -13    1    3    3    0    0 -0.36628436531E+02 -0.12718682971E+03  0.95043579649E+02  0.16294604643E+03  0.00000000000E+00 0. -1.
          4    1    6    6  502    0  0.88911859183E+02  0.32167006711E+03  0.31368881161E+02  0.33520286020E+03  0.00000000000E+00 0. -1.
          1    1    5    5  503    0 -0.87490318226E+02  0.28473449333E+02  0.61316746772E+03  0.62003196415E+03  0.00000000000E+00 0. -1.
         -2    1    5    5    0  503 -0.73350282105E+00  0.52358318491E+01  0.49999553215E+03  0.50002348358E+03  0.00000000000E+00 0.  1.
         -1    1    6    6    0  502 -0.10175757858E+02  0.83101372061E+02  0.31651633622E+02  0.89505362953E+02  0.00000000000E+00 0.  1.
<mgrwt>
<rscale>  0 0.14767807E+04</rscale>
<asrwt>0</asrwt>
<pdfrwt beam="1">  1        2 0.27074257E+00 0.14767807E+04</pdfrwt>
<pdfrwt beam="2">  1       -2 0.47663810E-01 0.14767807E+04</pdfrwt>
<totfact> 0.36668629E+01</totfact>
</mgrwt>
</event>
<event>
12    1  0.1980523E-007  0.1243809E+04  0.7818608E-02  0.9075352E-01
         -2   -1    0    0    0  501 -0.00000000000E+00  0.00000000000E+00  0.16382679097E+03  0.16382679097E+03  0.00000000000E+00 0.  1.
          2   -1    0    0  501    0  0.00000000000E+00 -0.00000000000E+00 -0.23608165381E+04  0.23608165381E+04  0.00000000000E+00 0. -1.
         23    2    1    2    0    0  0.27163564339E+03 -0.13251368722E+02 -0.36087012786E+03  0.46064745668E+03  0.89483566298E+02 0.  0.
        254    2    1    2    0    0 -0.27163564339E+03  0.13251368722E+02 -0.18361196193E+04  0.20639958724E+04  0.90265285874E+03 0.  0.
        -24    2    4    4    0    0  0.17676202660E+03 -0.13274284046E+03 -0.13896709778E+04  0.14094908362E+04  0.81323521272E+02 0.  0.
         24    2    4    4    0    0 -0.44839766998E+03  0.14599420918E+03 -0.44644864151E+03  0.65450503620E+03  0.81765966875E+02 0.  0.
         13    1    3    3    0    0  0.18625642821E+03 -0.47307887321E+02 -0.21636924633E+03  0.28938753257E+03  0.00000000000E+00 0. -1.
        -13    1    3    3    0    0  0.85379215179E+02  0.34056518598E+02 -0.14450088153E+03  0.17125992411E+03  0.00000000000E+00 0.  1.
          2    1    6    6  502    0 -0.43903226398E+03  0.13069671618E+03 -0.41403361205E+03  0.61745833248E+03  0.00000000000E+00 0. -1.
          3    1    5    5  503    0  0.10300083336E+03 -0.47256006280E+02 -0.49987189045E+03  0.51255654192E+03  0.00000000000E+00 0. -1.
         -4    1    5    5    0  503  0.73761193235E+02 -0.85486834177E+02 -0.88979908733E+03  0.89693429428E+03  0.00000000000E+00 0.  1.
         -1    1    6    6    0  502 -0.93654060014E+01  0.15297492998E+02 -0.32415029457E+02  0.37046703717E+02  0.00000000000E+00 0.  1.
<mgrwt>
<rscale>  0 0.12438087E+04</rscale>
<asrwt>0</asrwt>
<pdfrwt beam="1">  1        2 0.36320253E+00 0.12438087E+04</pdfrwt>
<pdfrwt beam="2">  1       -2 0.25204123E-01 0.12438087E+04</pdfrwt>
<totfact> 0.58458269E+01</totfact>
</mgrwt>
</event>
<event>
12    1  0.1980523E-007  0.1832851E+04  0.7818608E-02  0.8689022E-01
          2   -1    0    0  501    0  0.00000000000E+00  0.00000000000E+00  0.23793722293E+04  0.23793722293E+04  0.00000000000E+00 0. -1.
         -2   -1    0    0    0  501 -0.00000000000E+00 -0.00000000000E+00 -0.35296517544E+03  0.35296517544E+03  0.00000000000E+00 0.  1.
         23    2    1    2    0    0 -0.41944890322E+03  0.36631950309E+03  0.13428781542E+04  0.14564697974E+04  0.88629412633E+02 0.  0.
        254    2    1    2    0    0  0.41944890322E+03 -0.36631950309E+03  0.68352889959E+03  0.12758676073E+04  0.92222504527E+03 0.  0.
        -24    2    4    4    0    0 -0.10289766208E+03 -0.20236365672E+03  0.68139609234E+03  0.72268490894E+03  0.80211374006E+02 0.  0.
         24    2    4    4    0    0  0.52234656530E+03 -0.16395584637E+03  0.21328072458E+01  0.55318269840E+03  0.79240741450E+02 0.  0.
         11    1    3    3    0    0 -0.13500758960E+03  0.13300865053E+03  0.56602263301E+03  0.59690867931E+03  0.00000000000E+00 0. -1.
        -11    1    3    3    0    0 -0.28444131362E+03  0.23331085257E+03  0.77685552124E+03  0.85956111807E+03  0.00000000000E+00 0.  1.
          4    1    6    6  502    0  0.39773623859E+03 -0.12935091271E+03  0.35128054194E+02  0.41971389577E+03  0.00000000000E+00 0. -1.
          3    1    5    5  503    0  0.34361929461E+01  0.10152430013E+01 -0.99079762427E-01  0.35844047084E+01  0.00000000000E+00 0. -1.
         -4    1    5    5    0  503 -0.10633385502E+03 -0.20337889972E+03  0.68149517211E+03  0.71910050423E+03  0.00000000000E+00 0.  1.
         -3    1    6    6    0  502  0.12461032670E+03 -0.34604933662E+02 -0.32995246948E+02  0.13346880263E+03  0.00000000000E+00 0.  1.
<mgrwt>
<rscale>  0 0.18328508E+04</rscale>
<asrwt>0</asrwt>
<pdfrwt beam="1">  1        2 0.36605726E+00 0.18328508E+04</pdfrwt>
<pdfrwt beam="2">  1       -2 0.54302336E-01 0.18328508E+04</pdfrwt>
<totfact> 0.12288514E+01</totfact>
</mgrwt>
</event>
<event>
12    1  0.1980523E-007  0.3435610E+04  0.7818608E-02  0.8129221E-01
          2   -1    0    0  501    0  0.00000000000E+00  0.00000000000E+00  0.10519254178E+04  0.10519254178E+04  0.00000000000E+00 0. -1.
         -2   -1    0    0    0  501 -0.00000000000E+00 -0.00000000000E+00 -0.28051933704E+04  0.28051933704E+04  0.00000000000E+00 0.  1.
         23    2    1    2    0    0  0.87712513759E+03  0.12565219766E+04 -0.13295180995E+04  0.20306292186E+04  0.87410880305E+02 0.  0.
        254    2    1    2    0    0 -0.87712513759E+03 -0.12565219766E+04 -0.42374985307E+03  0.18264895695E+04  0.89905740909E+03 0.  0.
        -24    2    4    4    0    0 -0.67453821423E+03 -0.42397743370E+03 -0.52871157567E+03  0.95962716382E+03  0.81176945908E+02 0.  0.
         24    2    4    4    0    0 -0.20258692336E+03 -0.83254454287E+03  0.10496172260E+03  0.86686240566E+03  0.79130207592E+02 0.  0.
         13    1    3    3    0    0  0.27002409714E+03  0.45951397476E+03 -0.46192494343E+03  0.70529480319E+03  0.00000000000E+00 0.  1.
        -13    1    3    3    0    0  0.60710104044E+03  0.79700800182E+03 -0.86759315609E+03  0.13253344154E+04  0.00000000000E+00 0. -1.
          2    1    6    6  502    0 -0.17886703032E+03 -0.79235570258E+03  0.11086298167E+03  0.81982411202E+03  0.00000000000E+00 0. -1.
          1    1    5    5  503    0 -0.55068006111E+03 -0.30728331049E+03 -0.41158293482E+03  0.75304188120E+03  0.00000000000E+00 0. -1.
         -2    1    5    5    0  503 -0.12385815312E+03 -0.11669412321E+03 -0.11712864086E+03  0.20658528261E+03  0.00000000000E+00 0.  1.
         -1    1    6    6    0  502 -0.23719893047E+02 -0.40188840294E+02 -0.59012590638E+01  0.47038293643E+02  0.00000000000E+00 0.  1.
<mgrwt>
<rscale>  0 0.34356101E+04</rscale>
<asrwt>0</asrwt>
<pdfrwt beam="1">  1        2 0.16183468E+00 0.34356101E+04</pdfrwt>
<pdfrwt beam="2">  1       -2 0.43156821E+00 0.34356101E+04</pdfrwt>
<totfact> 0.88547293E-02</totfact>
</mgrwt>
</event>
<event>
12    1  0.1980523E-007  0.1981461E+04  0.7818608E-02  0.8615338E-01
          2   -1    0    0  501    0  0.00000000000E+00  0.00000000000E+00  0.70480632178E+03  0.70480632178E+03  0.00000000000E+00 0. -1.
         -2   -1    0    0    0  501 -0.00000000000E+00 -0.00000000000E+00 -0.13926478813E+04  0.13926478813E+04  0.00000000000E+00 0.  1.
         23    2    1    2    0    0  0.36765404779E+03 -0.61185339741E+03  0.65250627327E+02  0.72266794240E+03  0.91963209088E+02 0.  0.
        254    2    1    2    0    0 -0.36765404779E+03  0.61185339741E+03 -0.75309218681E+03  0.13747862606E+04  0.90186215235E+03 0.  0.
        -24    2    4    4    0    0 -0.54097281966E+03  0.72835730331E+03 -0.50839560131E+03  0.10430299796E+04  0.79306355176E+02 0.  0.
         24    2    4    4    0    0  0.17331877188E+03 -0.11650390589E+03 -0.24469658550E+03  0.33175628107E+03  0.81075608519E+02 0.  0.
         11    1    3    3    0    0  0.27949929911E+03 -0.40882122833E+03  0.13808315042E+02  0.49542438828E+03  0.00000000000E+00 0.  1.
        -11    1    3    3    0    0  0.88154748679E+02 -0.20303216908E+03  0.51442312285E+02  0.22724355412E+03  0.00000000000E+00 0. -1.
          4    1    6    6  502    0  0.48201684580E+02 -0.29937209746E+02 -0.12799416372E+03  0.14000766004E+03  0.00000000000E+00 0. -1.
          1    1    5    5  503    0 -0.19481585593E+03  0.31204580161E+03 -0.17697072507E+03  0.40822106457E+03  0.00000000000E+00 0. -1.
         -2    1    5    5    0  503 -0.34615696374E+03  0.41631150170E+03 -0.33142487624E+03  0.63480891501E+03  0.00000000000E+00 0.  1.
         -3    1    6    6    0  502  0.12511708730E+03 -0.86566696147E+02 -0.11670242179E+03  0.19174862103E+03  0.00000000000E+00 0.  1.
<mgrwt>
<rscale>  0 0.19814611E+04</rscale>
<asrwt>0</asrwt>
<pdfrwt beam="1">  1        2 0.10843174E+00 0.19814611E+04</pdfrwt>
<pdfrwt beam="2">  1       -2 0.21425352E+00 0.19814611E+04</pdfrwt>
<totfact> 0.40614595E+00</totfact>
</mgrwt>
</event>
<event>
12    1  0.1980523E-007  0.1333693E+04  0.7818608E-02  0.9003265E-01
         -2   -1    0    0    0  501 -0.00000000000E+00  0.00000000000E+00  0.43604092658E+03  0.43604092658E+03  0.00000000000E+00 0.  1.
          2   -1    0    0  501    0  0.00000000000E+00 -0.00000000000E+00 -0.10198229318E+04  0.10198229318E+04  0.00000000000E+00 0. -1.
         23    2    1    2    0    0 -0.21163926325E+03  0.23884679648E+03 -0.32737456341E+03  0.46570843044E+03  0.88720163852E+02 0.  0.
        254    2    1    2    0    0  0.21163926325E+03 -0.23884679648E+03 -0.25640744180E+03  0.99015542794E+03  0.90156753786E+03 0.  0.
        -24    2    4    4    0    0  0.51967241952E+03 -0.16751900677E+03  0.35586266985E+02  0.55283024747E+03  0.78948457129E+02 0.  0.
         24    2    4    4    0    0 -0.30803315626E+03 -0.71327789709E+02 -0.29199370879E+03  0.43732518047E+03  0.77594513727E+02 0.  0.
         11    1    3    3    0    0 -0.16798937113E+03  0.17662511595E+03 -0.29608491087E+03  0.38351419119E+03  0.00000000000E+00 0. -1.
        -11    1    3    3    0    0 -0.43649892123E+02  0.62221680525E+02 -0.31289652543E+02  0.82194239251E+02  0.00000000000E+00 0.  1.
          4    1    6    6  502    0 -0.27504941038E+03 -0.75116935601E+02 -0.22740249745E+03  0.36470073761E+03  0.00000000000E+00 0. -1.
          1    1    5    5  503    0  0.31744092349E+03 -0.66462267956E+02  0.24042008486E+01  0.32433278150E+03  0.00000000000E+00 0. -1.
         -2    1    5    5    0  503  0.20223149602E+03 -0.10105673881E+03  0.33182066137E+02  0.22849746597E+03  0.00000000000E+00 0.  1.
         -3    1    6    6    0  502 -0.32983745877E+02  0.37891458922E+01 -0.64591211338E+02  0.72624442860E+02  0.00000000000E+00 0.  1.
<mgrwt>
<rscale>  0 0.13336934E+04</rscale>
<asrwt>0</asrwt>
<pdfrwt beam="1">  1        2 0.15689584E+00 0.13336934E+04</pdfrwt>
<pdfrwt beam="2">  1       -2 0.67083220E-01 0.13336934E+04</pdfrwt>
<totfact> 0.48794711E+01</totfact>
</mgrwt>
</event>
<event>
12    1  0.1980523E-007  0.1229172E+04  0.7818608E-02  0.9087699E-01
         -2   -1    0    0    0  501 -0.00000000000E+00  0.00000000000E+00  0.10202178509E+04  0.10202178509E+04  0.00000000000E+00 0.  1.
          2   -1    0    0  501    0  0.00000000000E+00 -0.00000000000E+00 -0.37023060642E+03  0.37023060642E+03  0.00000000000E+00 0. -1.
         23    2    1    2    0    0 -0.47462155810E+00  0.24121429334E+03  0.63726819408E+01  0.25785667283E+03  0.90911451821E+02 0.  0.
        254    2    1    2    0    0  0.47462155810E+00 -0.24121429334E+03  0.64361456256E+03  0.11325917845E+04  0.90018880500E+03 0.  0.
        -24    2    4    4    0    0  0.13526521444E+03 -0.19214024479E+03 -0.17089195016E+03  0.30178618878E+03  0.81586109136E+02 0.  0.
         24    2    4    4    0    0 -0.13479059288E+03 -0.49074048543E+02  0.81450651272E+03  0.83080559574E+03  0.78995648486E+02 0.  0.
         11    1    3    3    0    0 -0.19608770327E+02  0.22789899742E+03  0.21993019131E+02  0.22979588723E+03  0.00000000000E+00 0.  1.
        -11    1    3    3    0    0  0.19134148769E+02  0.13315295920E+02 -0.15620337191E+02  0.28060785600E+02  0.00000000000E+00 0. -1.
          4    1    6    6  502    0 -0.90581073082E+02 -0.70346149021E+02  0.57453749677E+03  0.58587272225E+03  0.00000000000E+00 0. -1.
          3    1    5    5  503    0  0.13181755884E+03 -0.16601751602E+03 -0.17529127077E+03  0.27507219789E+03  0.00000000000E+00 0. -1.
         -4    1    5    5    0  503  0.34476556041E+01 -0.26122728774E+02  0.43993206093E+01  0.26713990896E+02  0.00000000000E+00 0.  1.
         -3    1    6    6    0  502 -0.44209519799E+02  0.21272100478E+02  0.23996901595E+03  0.24493287349E+03  0.00000000000E+00 0.  1.
<mgrwt>
<rscale>  0 0.12291719E+04</rscale>
<asrwt>0</asrwt>
<pdfrwt beam="1">  1        2 0.56958555E-01 0.12291719E+04</pdfrwt>
<pdfrwt beam="2">  1       -2 0.15695659E+00 0.12291719E+04</pdfrwt>
<totfact> 0.22649582E+01</totfact>
</mgrwt>
</event>
<event>
12    1  0.1980523E-007  0.2151117E+04  0.7818608E-02  0.8539054E-01
          1   -1    0    0  501    0  0.00000000000E+00  0.00000000000E+00  0.11869808847E+04  0.11869808847E+04  0.00000000000E+00 0. -1.
         -1   -1    0    0    0  501 -0.00000000000E+00 -0.00000000000E+00 -0.97459530273E+03  0.97459530273E+03  0.00000000000E+00 0.  1.
         23    2    1    2    0    0  0.48820401724E+03  0.73174762278E+03  0.18229566859E+03  0.90219128442E+03  0.83184475726E+02 0.  0.
        254    2    1    2    0    0 -0.48820401724E+03 -0.73174762278E+03  0.30089913391E+02  0.12593849030E+04  0.90074812528E+03 0.  0.
        -24    2    4    4    0    0 -0.62387054289E+03 -0.78217929677E+03  0.19934139853E+03  0.10232647825E+04  0.79466442296E+02 0.  0.
         24    2    4    4    0    0  0.13566652564E+03  0.50431673986E+02 -0.16925148514E+03  0.23612012048E+03  0.78472199889E+02 0.  0.
         13    1    3    3    0    0  0.25104720508E+03  0.40582992726E+03  0.13763161122E+03  0.49665389301E+03  0.00000000000E+00 0. -1.
        -13    1    3    3    0    0  0.23715681217E+03  0.32591769552E+03  0.44664057369E+02  0.40553739141E+03  0.00000000000E+00 0.  1.
          2    1    6    6  502    0  0.56742902819E+02 -0.15070871753E+02 -0.85437983373E+02  0.10366550631E+03  0.00000000000E+00 0. -1.
          3    1    5    5  503    0 -0.14390586466E+02 -0.11457606692E+02  0.14546477042E+02  0.23451348026E+02  0.00000000000E+00 0. -1.
         -4    1    5    5    0  503 -0.60947995642E+03 -0.77072169007E+03  0.18479492149E+03  0.99981343452E+03  0.00000000000E+00 0.  1.
         -1    1    6    6    0  502  0.78923622826E+02  0.65502545740E+02 -0.83813501764E+02  0.13245461417E+03  0.00000000000E+00 0.  1.
<mgrwt>
<rscale>  0 0.21511169E+04</rscale>
<asrwt>0</asrwt>
<pdfrwt beam="1">  1        1 0.18261244E+00 0.21511169E+04</pdfrwt>
<pdfrwt beam="2">  1       -1 0.14993774E+00 0.21511169E+04</pdfrwt>
<totfact> 0.34937081E+00</totfact>
</mgrwt>
</event>
<event>
12    1  0.1980523E-007  0.2163451E+04  0.7818608E-02  0.8533796E-01
         -1   -1    0    0    0  501 -0.00000000000E+00  0.00000000000E+00  0.14536849568E+04  0.14536849568E+04  0.00000000000E+00 0.  1.
          1   -1    0    0  501    0  0.00000000000E+00 -0.00000000000E+00 -0.80494080522E+03  0.80494080522E+03  0.00000000000E+00 0. -1.
         23    2    1    2    0    0 -0.28720502655E+03  0.67220678572E+03  0.80200301127E+03  0.10893726182E+04  0.95787166212E+02 0.  0.
        254    2    1    2    0    0  0.28720502655E+03 -0.67220678572E+03 -0.15325885967E+03  0.11692531438E+04  0.89961988985E+03 0.  0.
        -24    2    4    4    0    0 -0.89253908630E+01 -0.76395738675E+03  0.81103231032E+02  0.77249417050E+03  0.80367642788E+02 0.  0.
         24    2    4    4    0    0  0.29613041741E+03  0.91750601022E+02 -0.23436209071E+03  0.39675897332E+03  0.79879261659E+02 0.  0.
         11    1    3    3    0    0 -0.15791206506E+03  0.35509110452E+03  0.35577270014E+03  0.52687771538E+03  0.00000000000E+00 0. -1.
        -11    1    3    3    0    0 -0.12929296148E+03  0.31711568120E+03  0.44623031113E+03  0.56249490284E+03  0.00000000000E+00 0.  1.
          2    1    6    6  502    0  0.84309445308E+02  0.65163325978E+02 -0.73288472965E+02  0.12932726661E+03  0.00000000000E+00 0. -1.
          1    1    5    5  503    0 -0.30497318578E+02 -0.42452365372E+03  0.14178248301E+02  0.42585377976E+03  0.00000000000E+00 0. -1.
         -2    1    5    5    0  503  0.21571927715E+02 -0.33943373302E+03  0.66924982731E+02  0.34664039074E+03  0.00000000000E+00 0.  1.
         -1    1    6    6    0  502  0.21182097210E+03  0.26587275044E+02 -0.16107361774E+03  0.26743170670E+03  0.00000000000E+00 0.  1.
<mgrwt>
<rscale>  0 0.21634513E+04</rscale>
<asrwt>0</asrwt>
<pdfrwt beam="1">  1        1 0.12383705E+00 0.21634513E+04</pdfrwt>
<pdfrwt beam="2">  1       -1 0.22364384E+00 0.21634513E+04</pdfrwt>
<totfact> 0.20829960E+00</totfact>
</mgrwt>
</event>
<event>
12    1  0.1980523E-007  0.1874268E+04  0.7818608E-02  0.8667772E-01
         -4   -1    0    0    0  501 -0.00000000000E+00  0.00000000000E+00  0.37810903719E+03  0.37810903719E+03  0.00000000000E+00 0. -1.
          4   -1    0    0  501    0  0.00000000000E+00 -0.00000000000E+00 -0.23226646576E+04  0.23226646576E+04  0.00000000000E+00 0.  1.
         23    2    1    2    0    0  0.63490318569E+03 -0.15999659279E+02 -0.27616736906E+03  0.69912728113E+03  0.95668674068E+02 0.  0.
        254    2    1    2    0    0 -0.63490318569E+03  0.15999659279E+02 -0.16683882513E+04  0.20016464136E+04  0.90537890619E+03 0.  0.
        -24    2    4    4    0    0 -0.70594675685E+03  0.60328309291E+02 -0.61440411396E+03  0.94133455461E+03  0.81351091216E+02 0.  0.
         24    2    4    4    0    0  0.71043571168E+02 -0.44328650012E+02 -0.10539841373E+04  0.10603118590E+04  0.79790089369E+02 0.  0.
         13    1    3    3    0    0  0.41070707331E+03  0.23264249190E+02 -0.21127796291E+03  0.46244989239E+03  0.00000000000E+00 0. -1.
        -13    1    3    3    0    0  0.22419611237E+03 -0.39263908469E+02 -0.64889406151E+02  0.23667738874E+03  0.00000000000E+00 0.  1.
          2    1    6    6  502    0 -0.16214907841E+02 -0.16008212598E+02 -0.15628146992E+03  0.15793379609E+03  0.00000000000E+00 0. -1.
          1    1    5    5  503    0 -0.25870199447E+03  0.45688197367E+02 -0.26949070916E+03  0.37635007060E+03  0.00000000000E+00 0. -1.
         -2    1    5    5    0  503 -0.44724476239E+03  0.14640111924E+02 -0.34491340480E+03  0.56498448401E+03  0.00000000000E+00 0.  1.
         -1    1    6    6    0  502  0.87258479009E+02 -0.28320437415E+02 -0.89770266742E+03  0.90237806292E+03  0.00000000000E+00 0.  1.
<mgrwt>
<rscale>  0 0.18742684E+04</rscale>
<asrwt>0</asrwt>
<pdfrwt beam="1">  1        4 0.35733301E+00 0.18742684E+04</pdfrwt>
<pdfrwt beam="2">  1       -4 0.58170623E-01 0.18742684E+04</pdfrwt>
<totfact> 0.70193375E-02</totfact>
</mgrwt>
</event>
<event>
12    1  0.1980523E-007  0.1748033E+04  0.7818608E-02  0.8734434E-01
          1   -1    0    0  501    0  0.00000000000E+00  0.00000000000E+00  0.37581826861E+03  0.37581826861E+03  0.00000000000E+00 0. -1.
         -1   -1    0    0    0  501 -0.00000000000E+00 -0.00000000000E+00 -0.20326444336E+04  0.20326444336E+04  0.00000000000E+00 0.  1.
         23    2    1    2    0    0  0.12699547273E+03  0.62162102852E+03 -0.70693345450E+03  0.95421861388E+03  0.90761780511E+02 0.  0.
        254    2    1    2    0    0 -0.12699547273E+03 -0.62162102852E+03 -0.94989271049E+03  0.14542440883E+04  0.89999397431E+03 0.  0.
        -24    2    4    4    0    0 -0.37245202748E+03 -0.25644568607E+03 -0.89141063188E+03  0.10027501534E+04  0.80062805327E+02 0.  0.
         24    2    4    4    0    0  0.24545655475E+03 -0.36517534245E+03 -0.58482078619E+02  0.45149393495E+03  0.82611553522E+02 0.  0.
         13    1    3    3    0    0  0.11041161675E+03  0.39163265982E+03 -0.40275375194E+03  0.57251851504E+03  0.00000000000E+00 0. -1.
        -13    1    3    3    0    0  0.16583855979E+02  0.22998836870E+03 -0.30417970255E+03  0.38170009885E+03  0.00000000000E+00 0.  1.
          2    1    6    6  502    0  0.12544043149E+03 -0.11621639702E+03 -0.14181590737E+02  0.17158866601E+03  0.00000000000E+00 0. -1.
          3    1    5    5  503    0 -0.30450445567E+03 -0.23441131169E+03 -0.70164548170E+03  0.79998625523E+03  0.00000000000E+00 0. -1.
         -4    1    5    5    0  503 -0.67947571806E+02 -0.22034374382E+02 -0.18976515018E+03  0.20276389814E+03  0.00000000000E+00 0.  1.
         -1    1    6    6    0  502  0.12001612326E+03 -0.24895894544E+03 -0.44300487882E+02  0.27990526894E+03  0.00000000000E+00 0.  1.
<mgrwt>
<rscale>  0 0.17480331E+04</rscale>
<asrwt>0</asrwt>
<pdfrwt beam="1">  1        1 0.57818195E-01 0.17480331E+04</pdfrwt>
<pdfrwt beam="2">  1       -1 0.31271453E+00 0.17480331E+04</pdfrwt>
<totfact> 0.16897571E+00</totfact>
</mgrwt>
</event>
<event>
12    1  0.1980523E-007  0.1865381E+04  0.7818608E-02  0.8672283E-01
         -1   -1    0    0    0  501 -0.00000000000E+00  0.00000000000E+00  0.62601196314E+03  0.62601196314E+03  0.00000000000E+00 0.  1.
          1   -1    0    0  501    0  0.00000000000E+00 -0.00000000000E+00 -0.13896081856E+04  0.13896081856E+04  0.00000000000E+00 0. -1.
         23    2    1    2    0    0 -0.66888086707E+03 -0.21546023733E+03 -0.16597821378E+03  0.72793458962E+03  0.92278226634E+02 0.  0.
        254    2    1    2    0    0  0.66888086707E+03  0.21546023733E+03 -0.59761800866E+03  0.12876855591E+04  0.89842199809E+03 0.  0.
        -24    2    4    4    0    0 -0.10896574365E+03  0.23592890584E+03  0.45195028904E+02  0.27530411689E+03  0.78827560162E+02 0.  0.
         24    2    4    4    0    0  0.77784661072E+03 -0.20468668512E+02 -0.64281303756E+03  0.10123814422E+04  0.79014347304E+02 0.  0.
         11    1    3    3    0    0 -0.30909546307E+03 -0.14458853507E+03 -0.97488410373E+02  0.35489412494E+03  0.00000000000E+00 0. -1.
        -11    1    3    3    0    0 -0.35978540400E+03 -0.70871702262E+02 -0.68489803404E+02  0.37304046467E+03  0.00000000000E+00 0.  1.
          2    1    6    6  502    0  0.18606431868E+03  0.25209801537E+02 -0.13513302090E+03  0.23133611503E+03  0.00000000000E+00 0. -1.
          3    1    5    5  503    0 -0.34565100650E+02  0.59630759611E+02 -0.22226475204E+02  0.72419540697E+02  0.00000000000E+00 0. -1.
         -4    1    5    5    0  503 -0.74400642998E+02  0.17629814623E+03  0.67421504108E+02  0.20288457620E+03  0.00000000000E+00 0.  1.
         -1    1    6    6    0  502  0.59178229204E+03 -0.45678470049E+02 -0.50768001667E+03  0.78104532719E+03  0.00000000000E+00 0.  1.
<mgrwt>
<rscale>  0 0.18653808E+04</rscale>
<asrwt>0</asrwt>
<pdfrwt beam="1">  1        1 0.21378587E+00 0.18653808E+04</pdfrwt>
<pdfrwt beam="2">  1       -1 0.96309535E-01 0.18653808E+04</pdfrwt>
<totfact> 0.76120543E+00</totfact>
</mgrwt>
</event>
<event>
12    1  0.1980523E-007  0.1717691E+04  0.7818608E-02  0.8751339E-01
          1   -1    0    0  501    0  0.00000000000E+00  0.00000000000E+00  0.31129402882E+04  0.31129402882E+04  0.00000000000E+00 0. -1.
         -1   -1    0    0    0  501 -0.00000000000E+00 -0.00000000000E+00 -0.23695134392E+03  0.23695134392E+03  0.00000000000E+00 0.  1.
         23    2    1    2    0    0 -0.42929948136E+03  0.21005678602E+03  0.17696783294E+04  0.18353592837E+04  0.91435292008E+02 0.  0.
        254    2    1    2    0    0  0.42929948136E+03 -0.21005678602E+03  0.11063106148E+04  0.15145323484E+04  0.91731301079E+03 0.  0.
        -24    2    4    4    0    0  0.62388589435E+03 -0.33589335695E+02  0.10637164162E+04  0.12361663431E+04  0.79074402332E+02 0.  0.
         24    2    4    4    0    0 -0.19458641299E+03 -0.17646745033E+03  0.42594198634E+02  0.27836600528E+03  0.81662316852E+02 0.  0.
         13    1    3    3    0    0 -0.37287337400E+03  0.21030511632E+03  0.16125438597E+04  0.16684005797E+04  0.00000000000E+00 0. -1.
        -13    1    3    3    0    0 -0.56426107368E+02 -0.24833029927E+00  0.15713446977E+03  0.16695870402E+03  0.00000000000E+00 0.  1.
          4    1    6    6  502    0 -0.68274300519E+02 -0.79560594474E+02  0.55531035749E+02  0.11863795445E+03  0.00000000000E+00 0. -1.
          3    1    5    5  503    0  0.99699451750E+01  0.27823318247E+01  0.43487008041E+01  0.11227304924E+02  0.00000000000E+00 0. -1.
         -4    1    5    5    0  503  0.61391594918E+03 -0.36371667520E+02  0.10593677154E+04  0.12249390382E+04  0.00000000000E+00 0.  1.
         -3    1    6    6    0  502 -0.12631211247E+03 -0.96906855851E+02 -0.12936837115E+02  0.15972805083E+03  0.00000000000E+00 0.  1.
<mgrwt>
<rscale>  0 0.17176908E+04</rscale>
<asrwt>0</asrwt>
<pdfrwt beam="1">  1        1 0.47891386E+00 0.17176908E+04</pdfrwt>
<pdfrwt beam="2">  1       -1 0.36454055E-01 0.17176908E+04</pdfrwt>
<totfact> 0.33981350E+00</totfact>
</mgrwt>
</event>
<event>
12    1  0.1980523E-007  0.1899129E+04  0.7818608E-02  0.8655290E-01
          2   -1    0    0  501    0  0.00000000000E+00  0.00000000000E+00  0.17359871642E+04  0.17359871642E+04  0.00000000000E+00 0. -1.
         -2   -1    0    0    0  501 -0.00000000000E+00 -0.00000000000E+00 -0.51940053857E+03  0.51940053857E+03  0.00000000000E+00 0.  1.
         23    2    1    2    0    0 -0.58273913340E+03  0.19823586526E+02  0.10003198147E+04  0.11615900774E+04  0.93133796723E+02 0.  0.
        254    2    1    2    0    0  0.58273913340E+03 -0.19823586526E+02  0.21626681097E+03  0.10937976254E+04  0.89980222250E+03 0.  0.
        -24    2    4    4    0    0  0.75071457589E+03  0.17422193635E+03  0.48437031758E+02  0.77660300487E+03  0.82706853154E+02 0.  0.
         24    2    4    4    0    0 -0.16797544250E+03 -0.19404552288E+03  0.16782977922E+03  0.31719462053E+03  0.81093638897E+02 0.  0.
         11    1    3    3    0    0 -0.33558365913E+03 -0.33595666250E+02  0.55199554815E+03  0.64687258888E+03  0.00000000000E+00 0.  1.
        -11    1    3    3    0    0 -0.24715547427E+03  0.53419252776E+02  0.44832426652E+03  0.51471748851E+03  0.00000000000E+00 0. -1.
          2    1    6    6  502    0 -0.12746331343E+03 -0.18948661348E+03  0.14382137683E+03  0.26988268080E+03  0.00000000000E+00 0. -1.
          1    1    5    5  503    0  0.62385677064E+03  0.17564716653E+03  0.45413942476E+02  0.64970118020E+03  0.00000000000E+00 0. -1.
         -2    1    5    5    0  503  0.12685780526E+03 -0.14252301789E+01  0.30230892824E+01  0.12690182467E+03  0.00000000000E+00 0.  1.
         -1    1    6    6    0  502 -0.40512129066E+02 -0.45589093971E+01  0.24008402386E+02  0.47311939734E+02  0.00000000000E+00 0.  1.
<mgrwt>
<rscale>  0 0.18991289E+04</rscale>
<asrwt>0</asrwt>
<pdfrwt beam="1">  1        2 0.26707495E+00 0.18991289E+04</pdfrwt>
<pdfrwt beam="2">  1       -2 0.79907776E-01 0.18991289E+04</pdfrwt>
<totfact> 0.12155612E+01</totfact>
</mgrwt>
</event>
<event>
12    1  0.1980523E-007  0.2154469E+04  0.7818608E-02  0.8537622E-01
         -1   -1    0    0    0  501 -0.00000000000E+00  0.00000000000E+00  0.99662221956E+03  0.99662221956E+03  0.00000000000E+00 0.  1.
          1   -1    0    0  501    0  0.00000000000E+00 -0.00000000000E+00 -0.11643668358E+04  0.11643668358E+04  0.00000000000E+00 0. -1.
         23    2    1    2    0    0  0.20115673966E+03 -0.79411308772E+03 -0.41220845327E+03  0.92146570433E+03  0.90020027284E+02 0.  0.
        254    2    1    2    0    0 -0.20115673966E+03  0.79411308772E+03  0.24446383699E+03  0.12395233511E+04  0.89753882383E+03 0.  0.
        -24    2    4    4    0    0  0.33918052604E+03  0.38607725026E+03  0.18247820691E+02  0.52050203287E+03  0.80562465482E+02 0.  0.
         24    2    4    4    0    0 -0.54033726570E+03  0.40803583745E+03  0.22621601630E+03  0.71902131821E+03  0.85792567618E+02 0.  0.
         11    1    3    3    0    0  0.93882112849E+02 -0.49320934306E+03 -0.28733374747E+03  0.57847211656E+03  0.00000000000E+00 0. -1.
        -11    1    3    3    0    0  0.10727462681E+03 -0.30090374466E+03 -0.12487470580E+03  0.34299358777E+03  0.00000000000E+00 0.  1.
          4    1    6    6  502    0 -0.18416600755E+03  0.90805839510E+02  0.76300083402E+02  0.21905369559E+03  0.00000000000E+00 0. -1.
          1    1    5    5  503    0  0.20845474752E+03  0.24298234752E+03  0.50230292864E+02  0.32406308844E+03  0.00000000000E+00 0. -1.
         -2    1    5    5    0  503  0.13072577852E+03  0.14309490275E+03 -0.31982472173E+02  0.19643894443E+03  0.00000000000E+00 0.  1.
         -3    1    6    6    0  502 -0.35617125815E+03  0.31722999794E+03  0.14991593290E+03  0.49996762261E+03  0.00000000000E+00 0.  1.
<mgrwt>
<rscale>  0 0.21544687E+04</rscale>
<asrwt>0</asrwt>
<pdfrwt beam="1">  1        1 0.17913336E+00 0.21544687E+04</pdfrwt>
<pdfrwt beam="2">  1       -1 0.15332649E+00 0.21544687E+04</pdfrwt>
<totfact> 0.34158034E+00</totfact>
</mgrwt>
</event>
<event>
12    1  0.1980523E-007  0.1889314E+04  0.7818608E-02  0.8660194E-01
         -1   -1    0    0    0  501 -0.00000000000E+00  0.00000000000E+00  0.28751171841E+03  0.28751171841E+03  0.00000000000E+00 0.  1.
          1   -1    0    0  501    0  0.00000000000E+00 -0.00000000000E+00 -0.31037927737E+04  0.31037927737E+04  0.00000000000E+00 0. -1.
         23    2    1    2    0    0  0.42317477127E+03  0.48098820044E+03 -0.47516445518E+03  0.80303667245E+03  0.93059668149E+02 0.  0.
        254    2    1    2    0    0 -0.42317477127E+03 -0.48098820044E+03 -0.23411166001E+04  0.25882678197E+04  0.89881968995E+03 0.  0.
        -24    2    4    4    0    0 -0.51876165203E+03 -0.25761191921E+03 -0.63443407885E+03  0.86271464483E+03  0.79324683808E+02 0.  0.
         24    2    4    4    0    0  0.95586880762E+02 -0.22337628123E+03 -0.17066825213E+04  0.17255531749E+04  0.75727907955E+02 0.  0.
         13    1    3    3    0    0  0.15144835926E+03  0.19661319848E+03 -0.13224851844E+03  0.28121704423E+03  0.00000000000E+00 0.  1.
        -13    1    3    3    0    0  0.27172641201E+03  0.28437500196E+03 -0.34291593674E+03  0.52181962822E+03  0.00000000000E+00 0. -1.
          4    1    6    6  502    0  0.83051018491E+02 -0.12217786106E+03 -0.11678162564E+04  0.11771234897E+04  0.00000000000E+00 0. -1.
          1    1    5    5  503    0 -0.29223361627E+03 -0.16341397808E+03 -0.41794526011E+03  0.53552110617E+03  0.00000000000E+00 0. -1.
         -2    1    5    5    0  503 -0.22652803576E+03 -0.94197941125E+02 -0.21648881874E+03  0.32719353866E+03  0.00000000000E+00 0.  1.
         -3    1    6    6    0  502  0.12535862271E+02 -0.10119842018E+03 -0.53886626492E+03  0.54842968515E+03  0.00000000000E+00 0.  1.
<mgrwt>
<rscale>  0 0.18893139E+04</rscale>
<asrwt>0</asrwt>
<pdfrwt beam="1">  1        1 0.47750658E+00 0.18893139E+04</pdfrwt>
<pdfrwt beam="2">  1       -1 0.44232573E-01 0.18893139E+04</pdfrwt>
<totfact> 0.23818924E+00</totfact>
</mgrwt>
</event>
<event>
12    1  0.1980523E-007  0.2104183E+04  0.7818608E-02  0.8559403E-01
         -1   -1    0    0    0  501 -0.00000000000E+00  0.00000000000E+00  0.81570193672E+03  0.81570193672E+03  0.00000000000E+00 0.  1.
          1   -1    0    0  501    0  0.00000000000E+00 -0.00000000000E+00 -0.13569863834E+04  0.13569863834E+04  0.00000000000E+00 0. -1.
         23    2    1    2    0    0 -0.54216893273E+03 -0.54268699464E+03  0.17275542048E+03  0.79153346636E+03  0.90688848851E+02 0.  0.
        254    2    1    2    0    0  0.54216893273E+03  0.54268699464E+03 -0.71403986711E+03  0.13811548537E+04  0.89959961778E+03 0.  0.
        -24    2    4    4    0    0  0.64642479876E+03  0.53053143184E+03 -0.21772873459E+03  0.86796629859E+03  0.81431400624E+02 0.  0.
         24    2    4    4    0    0 -0.10425586603E+03  0.12155562799E+02 -0.49631113252E+03  0.51318855511E+03  0.77593231167E+02 0.  0.
         13    1    3    3    0    0 -0.37158192638E+03 -0.38758786312E+03  0.79301955642E+02  0.54275803064E+03  0.00000000000E+00 0. -1.
        -13    1    3    3    0    0 -0.17058700635E+03 -0.15509913151E+03  0.93453464834E+02  0.24877543573E+03  0.00000000000E+00 0.  1.
          4    1    6    6  502    0 -0.56289909636E+02  0.40409031141E+02 -0.19921456414E+03  0.21092151689E+03  0.00000000000E+00 0. -1.
          3    1    5    5  503    0  0.50456647774E+03  0.45524358672E+03 -0.17315814711E+03  0.70129722488E+03  0.00000000000E+00 0. -1.
         -4    1    5    5    0  503  0.14185832102E+03  0.75287845114E+02 -0.44570587483E+02  0.16666907371E+03  0.00000000000E+00 0.  1.
         -3    1    6    6    0  502 -0.47965956392E+02 -0.28253468343E+02 -0.29709656839E+03  0.30226703822E+03  0.00000000000E+00 0.  1.
<mgrwt>
<rscale>  0 0.21041829E+04</rscale>
<asrwt>0</asrwt>
<pdfrwt beam="1">  1        1 0.20876713E+00 0.21041829E+04</pdfrwt>
<pdfrwt beam="2">  1       -1 0.12549261E+00 0.21041829E+04</pdfrwt>
<totfact> 0.41977204E+00</totfact>
</mgrwt>
</event>
<event>
12    1  0.1980523E-007  0.2247334E+04  0.7818608E-02  0.8498981E-01
          2   -1    0    0  501    0  0.00000000000E+00  0.00000000000E+00  0.66900679069E+03  0.66900679069E+03  0.00000000000E+00 0. -1.
         -2   -1    0    0    0  501 -0.00000000000E+00 -0.00000000000E+00 -0.18873170077E+04  0.18873170077E+04  0.00000000000E+00 0.  1.
         23    2    1    2    0    0 -0.39283520631E+03 -0.57456129225E+03  0.19509885578E+03  0.72889336052E+03  0.93711203315E+02 0.  0.
        254    2    1    2    0    0  0.39283520631E+03  0.57456129225E+03 -0.14134090728E+04  0.18274304379E+04  0.92592473794E+03 0.  0.
        -24    2    4    4    0    0 -0.21723609735E+03  0.43008360472E+03 -0.39359390054E+03  0.62727202656E+03  0.79941276672E+02 0.  0.
         24    2    4    4    0    0  0.61007130366E+03  0.14447768753E+03 -0.10198151723E+04  0.12001584113E+04  0.85419136833E+02 0.  0.
         11    1    3    3    0    0 -0.19843105313E+03 -0.31067694180E+03  0.15022576276E+03  0.39807389366E+03  0.00000000000E+00 0. -1.
        -11    1    3    3    0    0 -0.19440415318E+03 -0.26388435044E+03  0.44873093022E+02  0.33081946687E+03  0.00000000000E+00 0.  1.
          4    1    6    6  502    0  0.82112159024E+02  0.57345047293E+01 -0.18784803098E+03  0.20509064812E+03  0.00000000000E+00 0. -1.
          1    1    5    5  503    0 -0.40647079609E+02  0.55633208520E+02 -0.92588150145E+02  0.11541145748E+03  0.00000000000E+00 0. -1.
         -2    1    5    5    0  503 -0.17658901774E+03  0.37445039620E+03 -0.30100575040E+03  0.51186056907E+03  0.00000000000E+00 0.  1.
         -3    1    6    6    0  502  0.52795914464E+03  0.13874318280E+03 -0.83196714130E+03  0.99506776321E+03  0.00000000000E+00 0.  1.
<mgrwt>
<rscale>  0 0.22473343E+04</rscale>
<asrwt>0</asrwt>
<pdfrwt beam="1">  1        2 0.10292412E+00 0.22473343E+04</pdfrwt>
<pdfrwt beam="2">  1       -2 0.29035646E+00 0.22473343E+04</pdfrwt>
<totfact> 0.14383750E+00</totfact>
</mgrwt>
</event>
<event>
12    1  0.1980523E-007  0.1556680E+04  0.7818608E-02  0.8847612E-01
          1   -1    0    0  501    0  0.00000000000E+00  0.00000000000E+00  0.16998126821E+04  0.16998126821E+04  0.00000000000E+00 0. -1.
         -1   -1    0    0    0  501 -0.00000000000E+00 -0.00000000000E+00 -0.35640011747E+03  0.35640011747E+03  0.00000000000E+00 0.  1.
         23    2    1    2    0    0  0.37807249516E+03  0.21481120111E+03  0.80777543917E+03  0.92290670307E+03  0.10086108633E+03 0.  0.
        254    2    1    2    0    0 -0.37807249516E+03 -0.21481120111E+03  0.53563712545E+03  0.11333060965E+04  0.89910673140E+03 0.  0.
        -24    2    4    4    0    0  0.12375709031E+03 -0.41987876593E+03  0.30231357602E+03  0.53788702641E+03  0.79466719171E+02 0.  0.
         24    2    4    4    0    0 -0.50182958546E+03  0.20506756481E+03  0.23332354943E+03  0.59541907008E+03  0.78729608835E+02 0.  0.
         11    1    3    3    0    0  0.27784119920E+03  0.18176939942E+03  0.52607499438E+03  0.62208580296E+03  0.00000000000E+00 0.  1.
        -11    1    3    3    0    0  0.10023129596E+03  0.33041801694E+02  0.28170044479E+03  0.30082090011E+03  0.00000000000E+00 0. -1.
          2    1    6    6  502    0 -0.20493618891E+03  0.98461200099E+02  0.58524739565E+02  0.23477349635E+03  0.00000000000E+00 0. -1.
          3    1    5    5  503    0  0.37953367560E+02 -0.25146692640E+03  0.19557541179E+03  0.32082053375E+03  0.00000000000E+00 0. -1.
         -4    1    5    5    0  503  0.85803722747E+02 -0.16841183953E+03  0.10673816424E+03  0.21706649266E+03  0.00000000000E+00 0.  1.
         -1    1    6    6    0  502 -0.29689339656E+03  0.10660636472E+03  0.17479880986E+03  0.36064557372E+03  0.00000000000E+00 0.  1.
<mgrwt>
<rscale>  0 0.15566804E+04</rscale>
<asrwt>0</asrwt>
<pdfrwt beam="1">  1        1 0.26150964E+00 0.15566804E+04</pdfrwt>
<pdfrwt beam="2">  1       -1 0.54830788E-01 0.15566804E+04</pdfrwt>
<totfact> 0.15430381E+01</totfact>
</mgrwt>
</event>
<event>
12    1  0.1980523E-007  0.1168156E+04  0.7818608E-02  0.9141196E-01
         -2   -1    0    0    0  501 -0.00000000000E+00  0.00000000000E+00  0.21071241587E+03  0.21071241587E+03  0.00000000000E+00 0. -1.
          2   -1    0    0  501    0  0.00000000000E+00 -0.00000000000E+00 -0.16190165667E+04  0.16190165667E+04  0.00000000000E+00 0.  1.
         23    2    1    2    0    0  0.18882369711E+03  0.22773216639E+02 -0.44594052389E+03  0.49939626676E+03  0.11983602304E+03 0.  0.
        254    2    1    2    0    0 -0.18882369711E+03 -0.22773216639E+02 -0.96236362691E+03  0.13303327158E+04  0.89859244171E+03 0.  0.
        -24    2    4    4    0    0  0.14005659716E+03 -0.24763021549E+03 -0.86151541200E+03  0.91116587182E+03  0.84130058951E+02 0.  0.
         24    2    4    4    0    0 -0.32888029427E+03  0.22485699885E+03 -0.10084821491E+03  0.41916684397E+03  0.82507955635E+02 0.  0.
         13    1    3    3    0    0  0.88752037952E+02  0.82189866524E+01 -0.34571048997E+03  0.35701571234E+03  0.00000000000E+00 0.  1.
        -13    1    3    3    0    0  0.10007165916E+03  0.14554229986E+02 -0.10023003392E+03  0.14238055442E+03  0.00000000000E+00 0. -1.
          2    1    6    6  502    0 -0.32668781852E+02  0.19563799684E+00  0.39492920181E+01  0.32907210294E+02  0.00000000000E+00 0. -1.
          3    1    5    5  503    0  0.16288446841E+02 -0.13424152924E+02 -0.15849792432E+03  0.15989719633E+03  0.00000000000E+00 0. -1.
         -4    1    5    5    0  503  0.12376815032E+03 -0.23420606257E+03 -0.70301748768E+03  0.75126867548E+03  0.00000000000E+00 0.  1.
         -1    1    6    6    0  502 -0.29621151241E+03  0.22466136086E+03 -0.10479750693E+03  0.38625963368E+03  0.00000000000E+00 0.  1.
<mgrwt>
<rscale>  0 0.11681556E+04</rscale>
<asrwt>0</asrwt>
<pdfrwt beam="1">  1        2 0.24907949E+00 0.11681556E+04</pdfrwt>
<pdfrwt beam="2">  1       -2 0.32417293E-01 0.11681556E+04</pdfrwt>
<totfact> 0.95339025E+01</totfact>
</mgrwt>
</event>
<event>
12    1  0.1980523E-007  0.2610502E+04  0.7818608E-02  0.8364643E-01
          1   -1    0    0  501    0  0.00000000000E+00  0.00000000000E+00  0.24764200990E+04  0.24764200990E+04  0.00000000000E+00 0. -1.
         -1   -1    0    0    0  501 -0.00000000000E+00 -0.00000000000E+00 -0.68796097236E+03  0.68796097236E+03  0.00000000000E+00 0.  1.
         23    2    1    2    0    0 -0.55761143896E+03  0.93170562794E+03  0.12444631112E+04  0.16541022732E+04  0.91433040721E+02 0.  0.
        254    2    1    2    0    0  0.55761143896E+03 -0.93170562794E+03  0.54399601538E+03  0.15102787981E+04  0.89777752778E+03 0.  0.
        -24    2    4    4    0    0 -0.14095263227E+03  0.71194217513E+02  0.20204275533E+02  0.17817707899E+03  0.80016233212E+02 0.  0.
         24    2    4    4    0    0  0.69856407123E+03 -0.10028998455E+04  0.52379173984E+03  0.13321017192E+04  0.79607423170E+02 0.  0.
         11    1    3    3    0    0 -0.21099412095E+03  0.29131601068E+03  0.36761317974E+03  0.51431798245E+03  0.00000000000E+00 0.  1.
        -11    1    3    3    0    0 -0.34661731801E+03  0.64038961726E+03  0.87684993149E+03  0.11397842907E+04  0.00000000000E+00 0. -1.
          2    1    6    6  502    0  0.35162459301E+03 -0.44072213721E+03  0.25778653407E+03  0.61994334724E+03  0.00000000000E+00 0. -1.
          3    1    5    5  503    0 -0.14366507451E+02 -0.16609831168E+02 -0.37186853658E+01  0.22273563896E+02  0.00000000000E+00 0. -1.
         -4    1    5    5    0  503 -0.12658612482E+03  0.87804048681E+02  0.23922960899E+02  0.15590351510E+03  0.00000000000E+00 0.  1.
         -1    1    6    6    0  502  0.34693947822E+03 -0.56217770824E+03  0.26600520578E+03  0.71215837192E+03  0.00000000000E+00 0.  1.
<mgrwt>
<rscale>  0 0.26105022E+04</rscale>
<asrwt>0</asrwt>
<pdfrwt beam="1">  1        1 0.38098770E+00 0.26105022E+04</pdfrwt>
<pdfrwt beam="2">  1       -1 0.10584015E+00 0.26105022E+04</pdfrwt>
<totfact> 0.10340077E+00</totfact>
</mgrwt>
</event>
<event>
12    1  0.1980523E-007  0.3675236E+04  0.7818608E-02  0.8073472E-01
          2   -1    0    0  501    0  0.00000000000E+00  0.00000000000E+00  0.20121139508E+04  0.20121139508E+04  0.00000000000E+00 0.  1.
         -2   -1    0    0    0  501 -0.00000000000E+00 -0.00000000000E+00 -0.16782546799E+04  0.16782546799E+04  0.00000000000E+00 0. -1.
         23    2    1    2    0    0 -0.14847831496E+04  0.77782378050E+03 -0.25113084155E+03  0.16977714115E+04  0.98844479707E+02 0.  0.
        254    2    1    2    0    0  0.14847831496E+04 -0.77782378050E+03  0.58499011245E+03  0.19925972193E+04  0.90478694270E+03 0.  0.
        -24    2    4    4    0    0  0.43254263217E+03 -0.67755553212E+03  0.44814460684E+03  0.92377923066E+03  0.79748671503E+02 0.  0.
         24    2    4    4    0    0  0.10522405175E+04 -0.10026824838E+03  0.13684550562E+03  0.10688179886E+04  0.79883491213E+02 0.  0.
         11    1    3    3    0    0 -0.42151094771E+03  0.24894628426E+03 -0.35610555625E+02  0.49082974967E+03  0.00000000000E+00 0. -1.
        -11    1    3    3    0    0 -0.10632722019E+04  0.52887749623E+03 -0.21552028593E+03  0.12069416618E+04  0.00000000000E+00 0.  1.
          2    1    6    6  502    0  0.25706055291E+03 -0.84626109540E+01  0.64034868668E+02  0.26505133097E+03  0.00000000000E+00 0. -1.
          1    1    5    5  503    0  0.69303388582E+02 -0.77282273654E+02  0.34950413908E+02  0.10953100439E+03  0.00000000000E+00 0. -1.
         -2    1    5    5    0  503  0.36323924358E+03 -0.60027325847E+03  0.41319419293E+03  0.81424822627E+03  0.00000000000E+00 0.  1.
         -3    1    6    6    0  502  0.79517996457E+03 -0.91805637422E+02  0.72810636950E+02  0.80376665766E+03  0.00000000000E+00 0.  1.
<mgrwt>
<rscale>  0 0.36752359E+04</rscale>
<asrwt>0</asrwt>
<pdfrwt beam="1">  1        2 0.30955599E+00 0.36752359E+04</pdfrwt>
<pdfrwt beam="2">  1       -2 0.25819303E+00 0.36752359E+04</pdfrwt>
<totfact> 0.30499238E-01</totfact>
</mgrwt>
</event>
<event>
12    1  0.2199139E-007  0.2164032E+04  0.7818608E-02  0.8533550E-01
         -2   -1    0    0    0  501 -0.00000000000E+00  0.00000000000E+00  0.72919853219E+03  0.72919853219E+03  0.00000000000E+00 0.  1.
          2   -1    0    0  501    0  0.00000000000E+00 -0.00000000000E+00 -0.16055409915E+04  0.16055409915E+04  0.00000000000E+00 0. -1.
         23    2    1    2    0    0 -0.43013521166E+03  0.77617772286E+03 -0.26949080071E+03  0.93171150027E+03  0.89402853948E+02 0.  0.
        254    2    1    2    0    0  0.43013521166E+03 -0.77617772286E+03 -0.60685165864E+03  0.14030280234E+04  0.90152678342E+03 0.  0.
        -24    2    4    4    0    0 -0.70849302956E+02  0.16177050038E+03 -0.50969818589E+02  0.20058688973E+03  0.80298564127E+02 0.  0.
         24    2    4    4    0    0  0.50098451461E+03 -0.93794822324E+03 -0.55588184005E+03  0.12024411337E+04  0.78279669128E+02 0.  0.
         13    1    3    3    0    0 -0.13408362697E+03  0.16375619810E+03 -0.61762776433E+02  0.22047483301E+03  0.00000000000E+00 0. -1.
        -13    1    3    3    0    0 -0.29605158469E+03  0.61242152475E+03 -0.20772802427E+03  0.71123666725E+03  0.00000000000E+00 0.  1.
          4    1    6    6  502    0  0.63964558651E+02 -0.14910027743E+03 -0.57859838189E+02  0.17225016217E+03  0.00000000000E+00 0. -1.
          1    1    5    5  503    0  0.88328948585E+01  0.30164246191E+02 -0.33195387934E+02  0.45714719292E+02  0.00000000000E+00 0. -1.
         -2    1    5    5    0  503 -0.79682197814E+02  0.13160625419E+03 -0.17774430655E+02  0.15487217044E+03  0.00000000000E+00 0.  1.
         -3    1    6    6    0  502  0.43701995596E+03 -0.78884794582E+03 -0.49802200186E+03  0.10301909715E+04  0.00000000000E+00 0.  1.
<mgrwt>
<rscale>  0 0.21640315E+04</rscale>
<asrwt>0</asrwt>
<pdfrwt beam="1">  1        2 0.24700631E+00 0.21640315E+04</pdfrwt>
<pdfrwt beam="2">  1       -2 0.11218439E+00 0.21640315E+04</pdfrwt>
<totfact> 0.63589690E+00</totfact>
</mgrwt>
</event>
<event>
12    1  0.1980523E-007  0.2194237E+04  0.7818608E-02  0.8520831E-01
         -2   -1    0    0    0  501 -0.00000000000E+00  0.00000000000E+00  0.12165996134E+04  0.12165996134E+04  0.00000000000E+00 0.  1.
          2   -1    0    0  501    0  0.00000000000E+00 -0.00000000000E+00 -0.98937107810E+03  0.98937107810E+03  0.00000000000E+00 0. -1.
         23    2    1    2    0    0 -0.20767490042E+03  0.81164059738E+03 -0.26182596755E+03  0.88267820733E+03  0.93159308869E+02 0.  0.
        254    2    1    2    0    0  0.20767490042E+03 -0.81164059738E+03  0.48905450283E+03  0.13232924842E+04  0.90002187100E+03 0.  0.
        -24    2    4    4    0    0 -0.25817827632E+03 -0.18372131648E+03 -0.99208984888E+02  0.34154598547E+03  0.80010580617E+02 0.  0.
         24    2    4    4    0    0  0.46585317675E+03 -0.62791928091E+03  0.58826348772E+03  0.98174649869E+03  0.80439114104E+02 0.  0.
         13    1    3    3    0    0 -0.13586288350E+03  0.50126127944E+03 -0.11516873349E+03  0.53196374928E+03  0.00000000000E+00 0. -1.
        -13    1    3    3    0    0 -0.71812016918E+02  0.31037931795E+03 -0.14665723406E+03  0.35071445805E+03  0.00000000000E+00 0.  1.
          2    1    6    6  502    0  0.34623129627E+03 -0.52090915395E+03  0.46656967825E+03  0.78032667637E+03  0.00000000000E+00 0. -1.
          1    1    5    5  503    0 -0.21907794155E+03 -0.12230718938E+03 -0.96081038131E+02  0.26867407567E+03  0.00000000000E+00 0. -1.
         -2    1    5    5    0  503 -0.39100334777E+02 -0.61414127098E+02 -0.31279467570E+01  0.72871909799E+02  0.00000000000E+00 0.  1.
         -1    1    6    6    0  502  0.11962188047E+03 -0.10701012695E+03  0.12169380947E+03  0.20141982232E+03  0.00000000000E+00 0.  1.
<mgrwt>
<rscale>  0 0.21942365E+04</rscale>
<asrwt>0</asrwt>
<pdfrwt beam="1">  1        2 0.15221094E+00 0.21942365E+04</pdfrwt>
<pdfrwt beam="2">  1       -2 0.18716917E+00 0.21942365E+04</pdfrwt>
<totfact> 0.37892205E+00</totfact>
</mgrwt>
</event>
<event>
12    1  0.2095006E-007  0.3164943E+04  0.7818608E-02  0.8198137E-01
          2   -1    0    0  501    0  0.00000000000E+00  0.00000000000E+00  0.18075747377E+04  0.18075747377E+04  0.00000000000E+00 0. -1.
         -2   -1    0    0    0  501 -0.00000000000E+00 -0.00000000000E+00 -0.13854014953E+04  0.13854014953E+04  0.00000000000E+00 0.  1.
         23    2    1    2    0    0  0.10662918584E+04  0.98950575639E+03  0.22444010381E+03  0.14747130240E+04  0.91132726973E+02 0.  0.
        254    2    1    2    0    0 -0.10662918584E+04 -0.98950575639E+03  0.19773313864E+03  0.17182632089E+04  0.89287742264E+03 0.  0.
        -24    2    4    4    0    0 -0.84762211385E+03 -0.26573215490E+03 -0.10946219034E+03  0.89845472222E+03  0.78498985529E+02 0.  0.
         24    2    4    4    0    0 -0.21866974451E+03 -0.72377360149E+03  0.30719532898E+03  0.81980848670E+03  0.77796538061E+02 0.  0.
         13    1    3    3    0    0  0.62589819977E+03  0.63102035396E+03  0.16214075940E+03  0.90345164200E+03  0.00000000000E+00 0. -1.
        -13    1    3    3    0    0  0.44039365859E+03  0.35848540243E+03  0.62299344410E+02  0.57126138203E+03  0.00000000000E+00 0.  1.
          2    1    6    6  502    0 -0.14356571957E+03 -0.35600477773E+03  0.17475150867E+03  0.42176842863E+03  0.00000000000E+00 0. -1.
          3    1    5    5  503    0 -0.32974261747E+03 -0.11769258656E+03 -0.79316507313E+02  0.35898864472E+03  0.00000000000E+00 0. -1.
         -4    1    5    5    0  503 -0.51787949638E+03 -0.14803956834E+03 -0.30145683029E+02  0.53946607750E+03  0.00000000000E+00 0.  1.
         -1    1    6    6    0  502 -0.75104024944E+02 -0.36776882375E+03  0.13244382032E+03  0.39804005807E+03  0.00000000000E+00 0.  1.
<mgrwt>
<rscale>  0 0.31649434E+04</rscale>
<asrwt>0</asrwt>
<pdfrwt beam="1">  1        2 0.27808842E+00 0.31649434E+04</pdfrwt>
<pdfrwt beam="2">  1       -2 0.21313869E+00 0.31649434E+04</pdfrwt>
<totfact> 0.78893385E-01</totfact>
</mgrwt>
</event>
<event>
12    1  0.1980523E-007  0.1380304E+04  0.7818608E-02  0.8968200E-01
          1   -1    0    0  501    0  0.00000000000E+00  0.00000000000E+00  0.96595563342E+03  0.96595563342E+03  0.00000000000E+00 0. -1.
         -1   -1    0    0    0  501 -0.00000000000E+00 -0.00000000000E+00 -0.49309714845E+03  0.49309714845E+03  0.00000000000E+00 0.  1.
         23    2    1    2    0    0  0.14157067336E+03 -0.13627698898E+03 -0.21852871062E+03  0.30764781987E+03  0.90987419066E+02 0.  0.
        254    2    1    2    0    0 -0.14157067336E+03  0.13627698898E+03  0.69138719558E+03  0.11514049620E+04  0.89950178378E+03 0.  0.
        -24    2    4    4    0    0  0.72397412958E+02 -0.19178766142E+03  0.71853338387E+03  0.75086057222E+03  0.74010017561E+02 0.  0.
         24    2    4    4    0    0 -0.21396808631E+03  0.32806465040E+03 -0.27146188288E+02  0.40054438978E+03  0.79310376651E+02 0.  0.
         11    1    3    3    0    0 -0.29014551121E+00 -0.39673995743E+01  0.82869972835E+01  0.91923211311E+01  0.00000000000E+00 0. -1.
        -11    1    3    3    0    0  0.14186081887E+03 -0.13230958941E+03 -0.22681570790E+03  0.29845549874E+03  0.00000000000E+00 0.  1.
          4    1    6    6  502    0 -0.32034610154E+02  0.46530950246E+02 -0.32742281192E+02  0.65294736053E+02  0.00000000000E+00 0. -1.
          3    1    5    5  503    0  0.35932572638E+02 -0.43272552562E+02  0.30083212879E+03  0.30604514911E+03  0.00000000000E+00 0. -1.
         -4    1    5    5    0  503  0.36464840319E+02 -0.14851510886E+03  0.41770125508E+03  0.44481542311E+03  0.00000000000E+00 0.  1.
         -3    1    6    6    0  502 -0.18193347616E+03  0.28153370016E+03  0.55960929039E+01  0.33524965373E+03  0.00000000000E+00 0.  1.
<mgrwt>
<rscale>  0 0.13803043E+04</rscale>
<asrwt>0</asrwt>
<pdfrwt beam="1">  1        1 0.14860856E+00 0.13803043E+04</pdfrwt>
<pdfrwt beam="2">  1       -1 0.75861099E-01 0.13803043E+04</pdfrwt>
<totfact> 0.27444810E+01</totfact>
</mgrwt>
</event>
<event>
12    1  0.1980523E-007  0.1896129E+04  0.7818608E-02  0.8656786E-01
         -1   -1    0    0    0  501 -0.00000000000E+00  0.00000000000E+00  0.82419285521E+03  0.82419285521E+03  0.00000000000E+00 0.  1.
          1   -1    0    0  501    0  0.00000000000E+00 -0.00000000000E+00 -0.10905530320E+04  0.10905530320E+04  0.00000000000E+00 0. -1.
         23    2    1    2    0    0 -0.11907666737E+03 -0.52693129127E+03  0.39392082098E+03  0.67489999260E+03  0.92089892930E+02 0.  0.
        254    2    1    2    0    0  0.11907666737E+03  0.52693129127E+03 -0.66028099776E+03  0.12398458946E+04  0.89967272268E+03 0.  0.
        -24    2    4    4    0    0  0.24713202844E+03 -0.15316806481E+03 -0.34356797391E+02  0.30330519152E+03  0.79239851852E+02 0.  0.
         24    2    4    4    0    0 -0.12805536107E+03  0.68009935608E+03 -0.62592420037E+03  0.93654070308E+03  0.79962955671E+02 0.  0.
         11    1    3    3    0    0 -0.10066425377E+02 -0.22330595327E+03  0.13402830425E+03  0.26063474063E+03  0.00000000000E+00 0. -1.
        -11    1    3    3    0    0 -0.10901024199E+03 -0.30362533801E+03  0.25989251673E+03  0.41426525197E+03  0.00000000000E+00 0.  1.
          2    1    6    6  502    0 -0.12096487165E+02  0.26003207441E+03 -0.21599240756E+03  0.33825393545E+03  0.00000000000E+00 0. -1.
          3    1    5    5  503    0  0.37484796561E+02 -0.60689179289E+02  0.16718407749E+01  0.71351815026E+02  0.00000000000E+00 0. -1.
         -4    1    5    5    0  503  0.20964723188E+03 -0.92478885519E+02 -0.36028638166E+02  0.23195337650E+03  0.00000000000E+00 0.  1.
         -1    1    6    6    0  502 -0.11595887390E+03  0.42006728167E+03 -0.40993179280E+03  0.59828676763E+03  0.00000000000E+00 0.  1.
<mgrwt>
<rscale>  0 0.18961287E+04</rscale>
<asrwt>0</asrwt>
<pdfrwt beam="1">  1        1 0.16777739E+00 0.18961287E+04</pdfrwt>
<pdfrwt beam="2">  1       -1 0.12679890E+00 0.18961287E+04</pdfrwt>
<totfact> 0.65147871E+00</totfact>
</mgrwt>
</event>
<event>
12    1  0.1980523E-007  0.1574992E+04  0.7818608E-02  0.8836060E-01
         -2   -1    0    0    0  501 -0.00000000000E+00  0.00000000000E+00  0.34897870046E+03  0.34897870046E+03  0.00000000000E+00 0. -1.
          2   -1    0    0  501    0  0.00000000000E+00 -0.00000000000E+00 -0.17770425258E+04  0.17770425258E+04  0.00000000000E+00 0.  1.
         23    2    1    2    0    0 -0.53410990310E+02  0.51213306448E+03 -0.64251037639E+03  0.82575679644E+03  0.62623425886E+02 0.  0.
        254    2    1    2    0    0  0.53410990310E+02 -0.51213306448E+03 -0.78555344893E+03  0.13002644298E+04  0.89914423574E+03 0.  0.
        -24    2    4    4    0    0 -0.92064737043E+02 -0.49619707351E+03 -0.94188285374E+03  0.10716254906E+04  0.80934729174E+02 0.  0.
         24    2    4    4    0    0  0.14547572735E+03 -0.15935990964E+02  0.15632940481E+03  0.22863893919E+03  0.80123271589E+02 0.  0.
         11    1    3    3    0    0 -0.28244628799E+02  0.66002506181E+02 -0.84219593890E+02  0.11066629963E+03  0.00000000000E+00 0. -1.
        -11    1    3    3    0    0 -0.25166361510E+02  0.44613055830E+03 -0.55829078250E+03  0.71509049681E+03  0.00000000000E+00 0.  1.
          4    1    6    6  502    0  0.68391058695E+01  0.22058345138E+02  0.21371002509E+02  0.31465277809E+02  0.00000000000E+00 0. -1.
          3    1    5    5  503    0 -0.35417251447E+00 -0.44333184529E+02 -0.13745050906E+03  0.14442367925E+03  0.00000000000E+00 0. -1.
         -4    1    5    5    0  503 -0.91710564528E+02 -0.45186388898E+03 -0.80443234468E+03  0.92720181136E+03  0.00000000000E+00 0.  1.
         -3    1    6    6    0  502  0.13863662148E+03 -0.37994336102E+02  0.13495840230E+03  0.19717366138E+03  0.00000000000E+00 0.  1.
<mgrwt>
<rscale>  0 0.15749921E+04</rscale>
<asrwt>0</asrwt>
<pdfrwt beam="1">  1        2 0.27339115E+00 0.15749921E+04</pdfrwt>
<pdfrwt beam="2">  1       -2 0.53689031E-01 0.15749921E+04</pdfrwt>
<totfact> 0.27903322E+01</totfact>
</mgrwt>
</event>
<event>
12    1  0.3136358E-007  0.2696590E+04  0.7818608E-02  0.8336112E-01
          1   -1    0    0  501    0  0.00000000000E+00  0.00000000000E+00  0.16853344091E+04  0.16853344091E+04  0.00000000000E+00 0. -1.
         -1   -1    0    0    0  501 -0.00000000000E+00 -0.00000000000E+00 -0.10786576722E+04  0.10786576722E+04  0.00000000000E+00 0.  1.
         23    2    1    2    0    0 -0.42447148044E+03 -0.10851905154E+04 -0.74552306449E+01  0.11688180027E+04  0.90914522764E+02 0.  0.
        254    2    1    2    0    0  0.42447148044E+03  0.10851905154E+04  0.61413196764E+03  0.15951740786E+04  0.89978207082E+03 0.  0.
        -24    2    4    4    0    0  0.42426463505E+03  0.89561349705E+03  0.50358702536E+02  0.99553267005E+03  0.80157853961E+02 0.  0.
         24    2    4    4    0    0  0.20684538690E+00  0.18957701837E+03  0.56377326510E+03  0.59964140858E+03  0.76092284472E+02 0.  0.
         11    1    3    3    0    0 -0.12549238199E+03 -0.43585582999E+03 -0.17276509862E+02  0.45389108855E+03  0.00000000000E+00 0.  1.
        -11    1    3    3    0    0 -0.29897909845E+03 -0.64933468544E+03  0.98212792171E+01  0.71492691413E+03  0.00000000000E+00 0. -1.
          4    1    6    6  502    0 -0.51356472972E+01 -0.39759781044E+01  0.47828984371E+01  0.80659402742E+01  0.00000000000E+00 0. -1.
          1    1    5    5  503    0  0.92535183659E+02  0.19224702739E+03  0.43948367329E+02  0.21783741356E+03  0.00000000000E+00 0. -1.
         -2    1    5    5    0  503  0.33172945139E+03  0.70336646966E+03  0.64103352071E+01  0.77769525649E+03  0.00000000000E+00 0.  1.
         -3    1    6    6    0  502  0.53424926841E+01  0.19355299648E+03  0.55899036667E+03  0.59157546830E+03  0.00000000000E+00 0.  1.
<mgrwt>
<rscale>  0 0.26965896E+04</rscale>
<asrwt>0</asrwt>
<pdfrwt beam="1">  1        1 0.25928222E+00 0.26965896E+04</pdfrwt>
<pdfrwt beam="2">  1       -1 0.16594733E+00 0.26965896E+04</pdfrwt>
<totfact> 0.11231737E+00</totfact>
</mgrwt>
</event>
<event>
12    1  0.1980523E-007  0.1996635E+04  0.7818608E-02  0.8608196E-01
          2   -1    0    0  501    0  0.00000000000E+00  0.00000000000E+00  0.18981185404E+04  0.18981185404E+04  0.00000000000E+00 0. -1.
         -2   -1    0    0    0  501 -0.00000000000E+00 -0.00000000000E+00 -0.52506596511E+03  0.52506596511E+03  0.00000000000E+00 0.  1.
         23    2    1    2    0    0 -0.61560524636E+03  0.42981634749E+03  0.24173612615E+03  0.79409814034E+03  0.91889008463E+02 0.  0.
        254    2    1    2    0    0  0.61560524636E+03 -0.42981634749E+03  0.11313164491E+04  0.16290863652E+04  0.90018529492E+03 0.  0.
        -24    2    4    4    0    0  0.74402226221E+03 -0.58917360474E+03  0.93046240890E+03  0.13314939762E+04  0.80132709178E+02 0.  0.
         24    2    4    4    0    0 -0.12841701584E+03  0.15935725725E+03  0.20085404023E+03  0.29759238898E+03  0.79581524902E+02 0.  0.
         13    1    3    3    0    0 -0.35645923340E+03  0.19346032435E+03  0.12343235082E+03  0.42394059419E+03  0.00000000000E+00 0.  1.
        -13    1    3    3    0    0 -0.25914601297E+03  0.23635602315E+03  0.11830377533E+03  0.37015754615E+03  0.00000000000E+00 0. -1.
          4    1    6    6  502    0 -0.50357409156E+01  0.41129392691E+02  0.12515994150E+02  0.43285514197E+02  0.00000000000E+00 0. -1.
          3    1    5    5  503    0  0.61029883662E+02 -0.74482737378E+02  0.11258466993E+03  0.14814733467E+03  0.00000000000E+00 0. -1.
         -4    1    5    5    0  503  0.68299237855E+03 -0.51469086736E+03  0.81787773897E+03  0.11833466415E+04  0.00000000000E+00 0.  1.
         -3    1    6    6    0  502 -0.12338127493E+03  0.11822786456E+03  0.18833804608E+03  0.25430687478E+03  0.00000000000E+00 0.  1.
<mgrwt>
<rscale>  0 0.19966346E+04</rscale>
<asrwt>0</asrwt>
<pdfrwt beam="1">  1        2 0.29201823E+00 0.19966346E+04</pdfrwt>
<pdfrwt beam="2">  1       -2 0.80779380E-01 0.19966346E+04</pdfrwt>
<totfact> 0.95658344E+00</totfact>
</mgrwt>
</event>
<event>
12    1  0.1980523E-007  0.1114723E+04  0.7818608E-02  0.9190959E-01
          1   -1    0    0  501    0  0.00000000000E+00  0.00000000000E+00  0.16674038726E+03  0.16674038726E+03  0.00000000000E+00 0. -1.
         -1   -1    0    0    0  501 -0.00000000000E+00 -0.00000000000E+00 -0.18630884297E+04  0.18630884297E+04  0.00000000000E+00 0.  1.
         23    2    1    2    0    0  0.70093662434E+02 -0.11267207137E+03 -0.50871975761E+03  0.53356778599E+03  0.91053134375E+02 0.  0.
        254    2    1    2    0    0 -0.70093662434E+02  0.11267207137E+03 -0.11876282848E+04  0.14962610309E+04  0.90040436066E+03 0.  0.
        -24    2    4    4    0    0  0.28053937594E+03 -0.26144486736E+03 -0.49086298780E+03  0.62744187990E+03  0.75372937658E+02 0.  0.
         24    2    4    4    0    0 -0.35063303838E+03  0.37411693874E+03 -0.69676529700E+03  0.86881915105E+03  0.80360603993E+02 0.  0.
         11    1    3    3    0    0  0.10815927497E+02  0.10133176852E+02 -0.13961426607E+02  0.20361409421E+02  0.00000000000E+00 0. -1.
        -11    1    3    3    0    0  0.59277734938E+02 -0.12280524822E+03 -0.49475833100E+03  0.51320637657E+03  0.00000000000E+00 0.  1.
          2    1    6    6  502    0 -0.42831229686E+02  0.65268574567E+02 -0.15347405989E+03  0.17218823457E+03  0.00000000000E+00 0. -1.
          3    1    5    5  503    0  0.26610477801E+02 -0.37615791716E+02 -0.10178065058E+03  0.11172451006E+03  0.00000000000E+00 0. -1.
         -4    1    5    5    0  503  0.25392889814E+03 -0.22382907565E+03 -0.38908233722E+03  0.51571736984E+03  0.00000000000E+00 0.  1.
         -1    1    6    6    0  502 -0.30780180869E+03  0.30884836417E+03 -0.54329123710E+03  0.69663091648E+03  0.00000000000E+00 0.  1.
<mgrwt>
<rscale>  0 0.11147234E+04</rscale>
<asrwt>0</asrwt>
<pdfrwt beam="1">  1        1 0.25652366E-01 0.11147234E+04</pdfrwt>
<pdfrwt beam="2">  1       -1 0.28662900E+00 0.11147234E+04</pdfrwt>
<totfact> 0.76331438E+00</totfact>
</mgrwt>
</event>
<event>
12    1  0.1980523E-007  0.3616330E+04  0.7818608E-02  0.8086761E-01
          2   -1    0    0  501    0  0.00000000000E+00  0.00000000000E+00  0.15148139738E+04  0.15148139738E+04  0.00000000000E+00 0. -1.
         -2   -1    0    0    0  501 -0.00000000000E+00 -0.00000000000E+00 -0.21583253078E+04  0.21583253078E+04  0.00000000000E+00 0.  1.
         23    2    1    2    0    0  0.14033470629E+04 -0.29321575138E+03  0.61595287470E+03  0.15629998407E+04  0.90620650375E+02 0.  0.
        254    2    1    2    0    0 -0.14033470629E+04  0.29321575138E+03 -0.12594642087E+04  0.21101394409E+04  0.90059975078E+03 0.  0.
        -24    2    4    4    0    0 -0.19800175195E+03 -0.10047578829E+03  0.93304215110E+02  0.25423046896E+03  0.81408703360E+02 0.  0.
         24    2    4    4    0    0 -0.12053453110E+04  0.39369153967E+03 -0.13527684238E+04  0.18559089719E+04  0.81026887818E+02 0.  0.
         11    1    3    3    0    0  0.11610828729E+04 -0.21106657510E+03  0.52318421989E+03  0.12908850703E+04  0.00000000000E+00 0. -1.
        -11    1    3    3    0    0  0.24226419005E+03 -0.82149176285E+02  0.92768654805E+02  0.27211477038E+03  0.00000000000E+00 0.  1.
          2    1    6    6  502    0 -0.81024602529E+03  0.23747485566E+03 -0.85824770719E+03  0.12039443739E+04  0.00000000000E+00 0. -1.
          1    1    5    5  503    0 -0.19049751996E+03 -0.96739099489E+02  0.10640009064E+03  0.23868124721E+03  0.00000000000E+00 0. -1.
         -2    1    5    5    0  503 -0.75042319887E+01 -0.37366887965E+01 -0.13095875535E+02  0.15549221747E+02  0.00000000000E+00 0.  1.
         -1    1    6    6    0  502 -0.39509928567E+03  0.15621668401E+03 -0.49452071659E+03  0.65196459799E+03  0.00000000000E+00 0.  1.
<mgrwt>
<rscale>  0 0.36163304E+04</rscale>
<asrwt>0</asrwt>
<pdfrwt beam="1">  1        2 0.23304830E+00 0.36163304E+04</pdfrwt>
<pdfrwt beam="2">  1       -2 0.33205005E+00 0.36163304E+04</pdfrwt>
<totfact> 0.20424245E-01</totfact>
</mgrwt>
</event>
<event>
12    1  0.1980523E-007  0.1405671E+04  0.7818608E-02  0.8949724E-01
          2   -1    0    0  501    0  0.00000000000E+00  0.00000000000E+00  0.13475971491E+04  0.13475971491E+04  0.00000000000E+00 0. -1.
         -2   -1    0    0    0  501 -0.00000000000E+00 -0.00000000000E+00 -0.36656182097E+03  0.36656182097E+03  0.00000000000E+00 0.  1.
         23    2    1    2    0    0  0.12531115565E+03 -0.24364071507E+03  0.63523738980E+03  0.69790456679E+03  0.92089951580E+02 0.  0.
        254    2    1    2    0    0 -0.12531115565E+03  0.24364071507E+03  0.34579793832E+03  0.10162544033E+04  0.91549610280E+03 0.  0.
        -24    2    4    4    0    0 -0.36403438654E+03  0.46734117814E+03  0.11683293431E+03  0.60905866528E+03  0.79835530032E+02 0.  0.
         24    2    4    4    0    0  0.23872323089E+03 -0.22370046306E+03  0.22896500401E+03  0.40719573799E+03  0.79703938614E+02 0.  0.
         13    1    3    3    0    0  0.85001492299E+02 -0.91627504968E+02  0.20825580536E+03  0.24288131634E+03  0.00000000000E+00 0.  1.
        -13    1    3    3    0    0  0.40309663348E+02 -0.15201321011E+03  0.42698158444E+03  0.45502325046E+03  0.00000000000E+00 0. -1.
          2    1    6    6  502    0  0.19478183876E+03 -0.20886036348E+03  0.17067298003E+03  0.33270389576E+03  0.00000000000E+00 0. -1.
          3    1    5    5  503    0 -0.33988733046E+03  0.42618527265E+03  0.12822893185E+03  0.55999994910E+03  0.00000000000E+00 0. -1.
         -4    1    5    5    0  503 -0.24147056074E+02  0.41155905488E+02 -0.11395997538E+02  0.49058716182E+02  0.00000000000E+00 0.  1.
         -1    1    6    6    0  502  0.43941392135E+02 -0.14840099586E+02  0.58292023985E+02  0.74491842229E+02  0.00000000000E+00 0.  1.
<mgrwt>
<rscale>  0 0.14056709E+04</rscale>
<asrwt>0</asrwt>
<pdfrwt beam="1">  1        2 0.20732264E+00 0.14056709E+04</pdfrwt>
<pdfrwt beam="2">  1       -2 0.56394127E-01 0.14056709E+04</pdfrwt>
<totfact> 0.44524411E+01</totfact>
</mgrwt>
</event>
<event>
12    1  0.1980523E-007  0.1786697E+04  0.7818608E-02  0.8713406E-01
          2   -1    0    0  501    0  0.00000000000E+00  0.00000000000E+00  0.55681443456E+03  0.55681443456E+03  0.00000000000E+00 0. -1.
         -2   -1    0    0    0  501 -0.00000000000E+00 -0.00000000000E+00 -0.14332805141E+04  0.14332805141E+04  0.00000000000E+00 0.  1.
         23    2    1    2    0    0 -0.30340452887E+03 -0.39448912475E+03 -0.81455305778E+03  0.95890159389E+03  0.91211869498E+02 0.  0.
        254    2    1    2    0    0  0.30340452887E+03  0.39448912475E+03 -0.61913021731E+02  0.10311933547E+04  0.90102748843E+03 0.  0.
        -24    2    4    4    0    0  0.61107967077E+03  0.21419891545E+03 -0.11445482639E+03  0.66190312147E+03  0.75606187071E+02 0.  0.
         24    2    4    4    0    0 -0.30767514190E+03  0.18029020930E+03  0.52541804660E+02  0.36929023326E+03  0.80287499869E+02 0.  0.
         11    1    3    3    0    0 -0.14647018646E+03 -0.12039857607E+03 -0.32677780959E+03  0.37780030370E+03  0.00000000000E+00 0. -1.
        -11    1    3    3    0    0 -0.15693434242E+03 -0.27409054868E+03 -0.48777524820E+03  0.58110129019E+03  0.00000000000E+00 0.  1.
          4    1    6    6  502    0 -0.64586618183E+02  0.30224298917E+02 -0.20927899749E+02  0.74316327151E+02  0.00000000000E+00 0. -1.
          1    1    5    5  503    0  0.93854488087E+02  0.33827332653E+02 -0.46034048859E+02  0.10987304957E+03  0.00000000000E+00 0. -1.
         -4    1    5    5    0  503  0.51722518268E+03  0.18037158280E+03 -0.68420777533E+02  0.55203007190E+03  0.00000000000E+00 0.  1.
         -3    1    6    6    0  502 -0.24308852371E+03  0.15006591038E+03  0.73469704409E+02  0.29497390611E+03  0.00000000000E+00 0.  1.
<mgrwt>
<rscale>  0 0.17866967E+04</rscale>
<asrwt>0</asrwt>
<pdfrwt beam="1">  1        2 0.85663761E-01 0.17866967E+04</pdfrwt>
<pdfrwt beam="2">  1       -2 0.22050469E+00 0.17866967E+04</pdfrwt>
<totfact> 0.50268476E+00</totfact>
</mgrwt>
</event>
<event>
12    1  0.1980523E-007  0.1092422E+04  0.7818608E-02  0.9212610E-01
          1   -1    0    0  501    0  0.00000000000E+00  0.00000000000E+00  0.46538037143E+03  0.46538037143E+03  0.00000000000E+00 0. -1.
         -1   -1    0    0    0  501 -0.00000000000E+00 -0.00000000000E+00 -0.64108046332E+03  0.64108046332E+03  0.00000000000E+00 0.  1.
         23    2    1    2    0    0 -0.11538459037E+03  0.47226706372E+02  0.62463928388E+02  0.16722787244E+03  0.92300885599E+02 0.  0.
        254    2    1    2    0    0  0.11538459037E+03 -0.47226706372E+02 -0.23816402029E+03  0.93923296231E+03  0.89994027104E+03 0.  0.
        -24    2    4    4    0    0 -0.17662819534E+03  0.22203567327E+03 -0.40562528721E+03  0.50102649320E+03  0.77448781014E+02 0.  0.
         24    2    4    4    0    0  0.29201278570E+03 -0.26926237964E+03  0.16746126692E+03  0.43820646910E+03  0.78790466072E+02 0.  0.
         13    1    3    3    0    0 -0.92686218515E+02  0.47773442872E+02  0.85528083659E+02  0.13486322716E+03  0.00000000000E+00 0. -1.
        -13    1    3    3    0    0 -0.22698371852E+02 -0.54673650056E+00 -0.23064155271E+02  0.32364645277E+02  0.00000000000E+00 0.  1.
          2    1    6    6  502    0  0.38789794430E+02 -0.69689042369E+02  0.13402731613E+02  0.80875484499E+02  0.00000000000E+00 0. -1.
          1    1    5    5  503    0 -0.55112434881E+02  0.10653851662E+03 -0.11894539878E+03  0.16892555725E+03  0.00000000000E+00 0. -1.
         -2    1    5    5    0  503 -0.12151576045E+03  0.11549715665E+03 -0.28667988843E+03  0.33210093595E+03  0.00000000000E+00 0.  1.
         -1    1    6    6    0  502  0.25322299127E+03 -0.19957333727E+03  0.15405853531E+03  0.35733098461E+03  0.00000000000E+00 0.  1.
<mgrwt>
<rscale>  0 0.10924216E+04</rscale>
<asrwt>0</asrwt>
<pdfrwt beam="1">  1        1 0.71596981E-01 0.10924216E+04</pdfrwt>
<pdfrwt beam="2">  1       -1 0.98627763E-01 0.10924216E+04</pdfrwt>
<totfact> 0.47998514E+01</totfact>
</mgrwt>
</event>
<event>
12    1  0.1980523E-007  0.1757025E+04  0.7818608E-02  0.8729493E-01
         -2   -1    0    0    0  501 -0.00000000000E+00  0.00000000000E+00  0.66691441459E+03  0.66691441459E+03  0.00000000000E+00 0.  1.
          2   -1    0    0  501    0  0.00000000000E+00 -0.00000000000E+00 -0.11572462982E+04  0.11572462982E+04  0.00000000000E+00 0. -1.
         23    2    1    2    0    0  0.32160185281E+03  0.19891246145E+03 -0.72476959016E+03  0.82123461483E+03  0.78367178844E+02 0.  0.
        254    2    1    2    0    0 -0.32160185281E+03 -0.19891246145E+03  0.23443770655E+03  0.10029260980E+04  0.89883580294E+03 0.  0.
        -24    2    4    4    0    0  0.25009431797E+02  0.28156153017E+03 -0.10941013614E+03  0.31334003473E+03  0.79429418513E+02 0.  0.
         24    2    4    4    0    0 -0.34661128461E+03 -0.48047399162E+03  0.34384784269E+03  0.68958606322E+03  0.79391186002E+02 0.  0.
         11    1    3    3    0    0  0.20165109259E+03  0.11926165691E+03 -0.52578687176E+03  0.57561996184E+03  0.00000000000E+00 0. -1.
        -11    1    3    3    0    0  0.11995076022E+03  0.79650804542E+02 -0.19898271840E+03  0.24561465299E+03  0.00000000000E+00 0.  1.
          4    1    6    6  502    0 -0.23019404836E+03 -0.35390285555E+03  0.20916937103E+03  0.47115640380E+03  0.00000000000E+00 0. -1.
          3    1    5    5  503    0  0.10184800856E+02  0.25948151112E+03 -0.75874572661E+02  0.27053897234E+03  0.00000000000E+00 0. -1.
         -4    1    5    5    0  503  0.14824630940E+02  0.22080019058E+02 -0.33535563479E+02  0.42801062393E+02  0.00000000000E+00 0.  1.
         -3    1    6    6    0  502 -0.11641723625E+03 -0.12657113608E+03  0.13467847167E+03  0.21842965942E+03  0.00000000000E+00 0.  1.
<mgrwt>
<rscale>  0 0.17570250E+04</rscale>
<asrwt>0</asrwt>
<pdfrwt beam="1">  1        2 0.17803789E+00 0.17570250E+04</pdfrwt>
<pdfrwt beam="2">  1       -2 0.10260222E+00 0.17570250E+04</pdfrwt>
<totfact> 0.14794386E+01</totfact>
</mgrwt>
</event>
<event>
12    1  0.1980523E-007  0.1762147E+04  0.7818608E-02  0.8726692E-01
          2   -1    0    0  501    0  0.00000000000E+00  0.00000000000E+00  0.15772893908E+04  0.15772893908E+04  0.00000000000E+00 0.  1.
         -2   -1    0    0    0  501 -0.00000000000E+00 -0.00000000000E+00 -0.49216767816E+03  0.49216767816E+03  0.00000000000E+00 0. -1.
         23    2    1    2    0    0  0.62040854164E+03 -0.12323716003E+02  0.18738549211E+03  0.65454467879E+03  0.90866833106E+02 0.  0.
        254    2    1    2    0    0 -0.62040854164E+03  0.12323716003E+02  0.89773622049E+03  0.14149123901E+04  0.90054878693E+03 0.  0.
        -24    2    4    4    0    0 -0.20632381414E+02 -0.36408312410E+03  0.23295011857E+03  0.44011332153E+03  0.80322858683E+02 0.  0.
         24    2    4    4    0    0 -0.59977616023E+03  0.37640684011E+03  0.66478610192E+03  0.97479906860E+03  0.82940407368E+02 0.  0.
         11    1    3    3    0    0  0.16154484866E+03  0.36572006314E+02  0.45703994228E+02  0.17182288806E+03  0.00000000000E+00 0.  1.
        -11    1    3    3    0    0  0.45886369298E+03 -0.48895722316E+02  0.14168149788E+03  0.48272179072E+03  0.00000000000E+00 0. -1.
          4    1    6    6  502    0 -0.14760292530E+03  0.11314208005E+03  0.21990573361E+03  0.28800396786E+03  0.00000000000E+00 0. -1.
          3    1    5    5  503    0  0.85655082960E+01 -0.14379035397E+01  0.10698921176E+02  0.13780508456E+02  0.00000000000E+00 0. -1.
         -4    1    5    5    0  503 -0.29197889710E+02 -0.36264522056E+03  0.22225119739E+03  0.42633281307E+03  0.00000000000E+00 0.  1.
         -3    1    6    6    0  502 -0.45217323493E+03  0.26326476006E+03  0.44488036831E+03  0.68679510073E+03  0.00000000000E+00 0.  1.
<mgrwt>
<rscale>  0 0.17621474E+04</rscale>
<asrwt>0</asrwt>
<pdfrwt beam="1">  1        2 0.24265990E+00 0.17621474E+04</pdfrwt>
<pdfrwt beam="2">  1       -2 0.75718105E-01 0.17621474E+04</pdfrwt>
<totfact> 0.16998813E+01</totfact>
</mgrwt>
</event>
<event>
12    1  0.1980523E-007  0.3437158E+04  0.7818608E-02  0.8128846E-01
          2   -1    0    0  501    0  0.00000000000E+00  0.00000000000E+00  0.20103552170E+04  0.20103552170E+04  0.00000000000E+00 0. -1.
         -2   -1    0    0    0  501 -0.00000000000E+00 -0.00000000000E+00 -0.14691503759E+04  0.14691503759E+04  0.00000000000E+00 0.  1.
         23    2    1    2    0    0  0.84801650118E+02 -0.14462334040E+04  0.93603961785E+03  0.17275090905E+04  0.96618388169E+02 0.  0.
        254    2    1    2    0    0 -0.84801650118E+02  0.14462334040E+04 -0.39483477671E+03  0.17519965023E+04  0.90267096137E+03 0.  0.
        -24    2    4    4    0    0 -0.37168214654E+03  0.86586081025E+03  0.74333910340E+02  0.94851662485E+03  0.79345425834E+02 0.  0.
         24    2    4    4    0    0  0.28688049642E+03  0.58037259377E+03 -0.46916868705E+03  0.80347987748E+03  0.79548034447E+02 0.  0.
         13    1    3    3    0    0  0.38474825274E+02 -0.51554789802E+03  0.28037722502E+03  0.58811677042E+03  0.00000000000E+00 0.  1.
        -13    1    3    3    0    0  0.46326824844E+02 -0.93068550599E+03  0.65566239283E+03  0.11393923201E+04  0.00000000000E+00 0. -1.
          4    1    6    6  502    0  0.83111599944E+02  0.20672490472E+03 -0.12056240349E+03  0.25333380630E+03  0.00000000000E+00 0. -1.
          3    1    5    5  503    0 -0.18335288566E+03  0.39406743719E+03  0.71748402900E+02  0.44051703605E+03  0.00000000000E+00 0. -1.
         -4    1    5    5    0  503 -0.18832926088E+03  0.47179337306E+03  0.25855074407E+01  0.50799958880E+03  0.00000000000E+00 0.  1.
         -3    1    6    6    0  502  0.20376889648E+03  0.37364768904E+03 -0.34860628356E+03  0.55014607118E+03  0.00000000000E+00 0.  1.
<mgrwt>
<rscale>  0 0.34371582E+04</rscale>
<asrwt>0</asrwt>
<pdfrwt beam="1">  1        2 0.30928542E+00 0.34371582E+04</pdfrwt>
<pdfrwt beam="2">  1       -2 0.22602313E+00 0.34371582E+04</pdfrwt>
<totfact> 0.49313419E-01</totfact>
</mgrwt>
</event>
<event>
12    1  0.1980523E-007  0.1468526E+04  0.7818608E-02  0.8905657E-01
          2   -1    0    0  501    0  0.00000000000E+00  0.00000000000E+00  0.17856023290E+03  0.17856023290E+03  0.00000000000E+00 0.  1.
         -2   -1    0    0    0  501 -0.00000000000E+00 -0.00000000000E+00 -0.30193850633E+04  0.30193850633E+04  0.00000000000E+00 0. -1.
         23    2    1    2    0    0  0.29440622219E+03 -0.32367491306E+03 -0.64596543309E+03  0.78542785513E+03  0.90471552817E+02 0.  0.
        254    2    1    2    0    0 -0.29440622219E+03  0.32367491306E+03 -0.21948593973E+04  0.24125174411E+04  0.90077308822E+03 0.  0.
        -24    2    4    4    0    0  0.28482493316E+03  0.15711983843E+03 -0.42158599579E+03  0.53792221544E+03  0.76247438295E+02 0.  0.
         24    2    4    4    0    0 -0.57923115535E+03  0.16655507463E+03 -0.17732734015E+04  0.18745952256E+04  0.79745715572E+02 0.  0.
         11    1    3    3    0    0  0.17362420300E+03 -0.19520856772E+03 -0.30520203286E+03  0.40174622542E+03  0.00000000000E+00 0.  1.
        -11    1    3    3    0    0  0.12078201920E+03 -0.12846634533E+03 -0.34076340022E+03  0.38368162971E+03  0.00000000000E+00 0. -1.
          4    1    6    6  502    0 -0.14717770106E+03  0.76411644172E+02 -0.44338380122E+03  0.47338061878E+03  0.00000000000E+00 0. -1.
          1    1    5    5  503    0  0.30961012608E+02  0.10966985615E+02 -0.13329970414E+02  0.35447809332E+02  0.00000000000E+00 0. -1.
         -4    1    5    5    0  503  0.25386392055E+03  0.14615285282E+03 -0.40825602537E+03  0.50247440611E+03  0.00000000000E+00 0.  1.
         -3    1    6    6    0  502 -0.43205345429E+03  0.90143430455E+02 -0.13298896003E+04  0.14012146069E+04  0.00000000000E+00 0.  1.
<mgrwt>
<rscale>  0 0.14685259E+04</rscale>
<asrwt>0</asrwt>
<pdfrwt beam="1">  1        2 0.27470805E-01 0.14685259E+04</pdfrwt>
<pdfrwt beam="2">  1       -2 0.46452078E+00 0.14685259E+04</pdfrwt>
<totfact> 0.53549786E-01</totfact>
</mgrwt>
</event>
<event>
12    1  0.1980523E-007  0.2165974E+04  0.7818608E-02  0.8532726E-01
          1   -1    0    0  501    0  0.00000000000E+00  0.00000000000E+00  0.16464573469E+04  0.16464573469E+04  0.00000000000E+00 0. -1.
         -1   -1    0    0    0  501 -0.00000000000E+00 -0.00000000000E+00 -0.71235389840E+03  0.71235389840E+03  0.00000000000E+00 0.  1.
         23    2    1    2    0    0 -0.61460853658E+02  0.88861535502E+03  0.32492717978E+03  0.95255492219E+03  0.91479625712E+02 0.  0.
        254    2    1    2    0    0  0.61460853658E+02 -0.88861535502E+03  0.60917626876E+03  0.14062563231E+04  0.90169087510E+03 0.  0.
        -24    2    4    4    0    0 -0.32355988636E+03 -0.24253947900E+03  0.49001406490E+03  0.64023994162E+03  0.79227521148E+02 0.  0.
         24    2    4    4    0    0  0.38502074002E+03 -0.64607587603E+03  0.11916220386E+03  0.76601638152E+03  0.83225345295E+02 0.  0.
         13    1    3    3    0    0 -0.70653415516E+02  0.52763947799E+03  0.16238237575E+03  0.55656388655E+03  0.00000000000E+00 0. -1.
        -13    1    3    3    0    0  0.91925618571E+01  0.36097587703E+03  0.16254480402E+03  0.39599103564E+03  0.00000000000E+00 0.  1.
          2    1    6    6  502    0  0.59197038730E+02 -0.16310134234E+03  0.39974959649E+02  0.17805711069E+03  0.00000000000E+00 0. -1.
          1    1    5    5  503    0 -0.12460204119E+03 -0.48688078229E+02  0.17428393615E+03  0.21970682290E+03  0.00000000000E+00 0. -1.
         -2    1    5    5    0  503 -0.19895784518E+03 -0.19385140077E+03  0.31573012876E+03  0.42053311872E+03  0.00000000000E+00 0.  1.
         -1    1    6    6    0  502  0.32582370129E+03 -0.48297453369E+03  0.79187244206E+02  0.58795927083E+03  0.00000000000E+00 0.  1.
<mgrwt>
<rscale>  0 0.21659735E+04</rscale>
<asrwt>0</asrwt>
<pdfrwt beam="1">  1        1 0.25330113E+00 0.21659735E+04</pdfrwt>
<pdfrwt beam="2">  1       -1 0.10959291E+00 0.21659735E+04</pdfrwt>
<totfact> 0.36502485E+00</totfact>
</mgrwt>
</event>
<event>
12    1  0.2114352E-007  0.2929811E+04  0.7818608E-02  0.8264063E-01
          2   -1    0    0  501    0  0.00000000000E+00  0.00000000000E+00  0.18825600647E+04  0.18825600647E+04  0.00000000000E+00 0. -1.
         -2   -1    0    0    0  501 -0.00000000000E+00 -0.00000000000E+00 -0.11399098901E+04  0.11399098901E+04  0.00000000000E+00 0.  1.
         23    2    1    2    0    0  0.71035782501E+03  0.95088593562E+03  0.92352657027E+03  0.15067087659E+04  0.92074302797E+02 0.  0.
        254    2    1    2    0    0 -0.71035782501E+03 -0.95088593562E+03 -0.18087639562E+03  0.15157611889E+04  0.92521533126E+03 0.  0.
        -24    2    4    4    0    0 -0.11570908511E+03  0.92764194235E+02 -0.26114926581E+03  0.30965362640E+03  0.75449593777E+02 0.  0.
         24    2    4    4    0    0 -0.59464873990E+03 -0.10436501299E+04  0.80272870187E+02  0.12061075625E+04  0.73749584758E+02 0.  0.
         13    1    3    3    0    0  0.42071683657E+03  0.52275047742E+03  0.57040684718E+03  0.88070124873E+03  0.00000000000E+00 0.  1.
        -13    1    3    3    0    0  0.28964098844E+03  0.42813545820E+03  0.35311972309E+03  0.62600751720E+03  0.00000000000E+00 0. -1.
          4    1    6    6  502    0 -0.16628796743E+01  0.94494830082E+00  0.13612189031E+01  0.23475546861E+01  0.00000000000E+00 0. -1.
          1    1    5    5  503    0 -0.52001391585E+01 -0.12270762904E+02 -0.29012228683E+02  0.31926830138E+02  0.00000000000E+00 0. -1.
         -2    1    5    5    0  503 -0.11050894595E+03  0.10503495714E+03 -0.23213703712E+03  0.27772679626E+03  0.00000000000E+00 0.  1.
         -3    1    6    6    0  502 -0.59298586023E+03 -0.10445950782E+04  0.78911651284E+02  0.12037600078E+04  0.00000000000E+00 0.  1.
<mgrwt>
<rscale>  0 0.29298115E+04</rscale>
<asrwt>0</asrwt>
<pdfrwt beam="1">  1        2 0.28962463E+00 0.29298115E+04</pdfrwt>
<pdfrwt beam="2">  1       -2 0.17537075E+00 0.29298115E+04</pdfrwt>
<totfact> 0.13057727E+00</totfact>
</mgrwt>
</event>
<event>
12    1  0.1980523E-007  0.4456537E+04  0.7818608E-02  0.7918290E-01
         -2   -1    0    0    0  501 -0.00000000000E+00  0.00000000000E+00  0.14685065620E+04  0.14685065620E+04  0.00000000000E+00 0.  1.
          2   -1    0    0  501    0  0.00000000000E+00 -0.00000000000E+00 -0.33811082420E+04  0.33811082420E+04  0.00000000000E+00 0. -1.
         23    2    1    2    0    0  0.12255497399E+04  0.16208912061E+04 -0.16347508037E+04  0.26096058173E+04  0.91497893398E+02 0.  0.
        254    2    1    2    0    0 -0.12255497399E+04 -0.16208912061E+04 -0.27785087631E+03  0.22400089867E+04  0.90065458645E+03 0.  0.
        -24    2    4    4    0    0 -0.10296240322E+04 -0.76505926067E+03  0.81321257221E+02  0.12878834473E+04  0.81174547023E+02 0.  0.
         24    2    4    4    0    0 -0.19592570772E+03 -0.85583194542E+03 -0.35917213353E+03  0.95212553937E+03  0.81873191304E+02 0.  0.
         13    1    3    3    0    0  0.22209963058E+03  0.24289360886E+03 -0.24688992750E+03  0.41143673564E+03  0.00000000000E+00 0.  1.
        -13    1    3    3    0    0  0.10034501093E+04  0.13779975972E+04 -0.13878608762E+04  0.21981690816E+04  0.00000000000E+00 0. -1.
          2    1    6    6  502    0 -0.10341473034E+03 -0.34242025715E+03 -0.11175011280E+03  0.37474568266E+03  0.00000000000E+00 0. -1.
          1    1    5    5  503    0 -0.22256716436E+02 -0.56298607558E+01 -0.45678027177E+01  0.23407724800E+02  0.00000000000E+00 0. -1.
         -4    1    5    5    0  503 -0.10073673157E+04 -0.75942939991E+03  0.85889059939E+02  0.12644757225E+04  0.00000000000E+00 0.  1.
         -1    1    6    6    0  502 -0.92510977381E+02 -0.51341168827E+03 -0.24742202074E+03  0.57737985671E+03  0.00000000000E+00 0.  1.
<mgrwt>
<rscale>  0 0.44565366E+04</rscale>
<asrwt>0</asrwt>
<pdfrwt beam="1">  1        2 0.52017049E+00 0.44565366E+04</pdfrwt>
<pdfrwt beam="2">  1       -2 0.22592409E+00 0.44565366E+04</pdfrwt>
<totfact> 0.67617213E-02</totfact>
</mgrwt>
</event>
<event>
12    1  0.1980523E-007  0.1584383E+04  0.7818608E-02  0.8830200E-01
          2   -1    0    0  501    0  0.00000000000E+00  0.00000000000E+00  0.91815133459E+03  0.91815133459E+03  0.00000000000E+00 0. -1.
         -2   -1    0    0    0  501 -0.00000000000E+00 -0.00000000000E+00 -0.68351221334E+03  0.68351221334E+03  0.00000000000E+00 0.  1.
         23    2    1    2    0    0  0.82197004345E+02  0.18542262910E+03 -0.41329594554E+03  0.46903122451E+03  0.89659645655E+02 0.  0.
        254    2    1    2    0    0 -0.82197004345E+02 -0.18542262910E+03  0.64793506679E+03  0.11326323234E+04  0.90658603032E+03 0.  0.
        -24    2    4    4    0    0 -0.38932004879E+03 -0.38470629217E+03  0.40560246014E+03  0.68596644335E+03  0.80421229245E+02 0.  0.
         24    2    4    4    0    0  0.30712304444E+03  0.19928366307E+03  0.24233260665E+03  0.44666588007E+03  0.82138744667E+02 0.  0.
         13    1    3    3    0    0  0.25050216100E+02  0.73385772972E+02 -0.74046286653E+02  0.10721864375E+03  0.00000000000E+00 0. -1.
        -13    1    3    3    0    0  0.57146788246E+02  0.11203685613E+03 -0.33924965889E+03  0.36181258076E+03  0.00000000000E+00 0.  1.
          2    1    6    6  502    0  0.10173947715E+03  0.88472374873E+02  0.13141937228E+03  0.18827993450E+03  0.00000000000E+00 0. -1.
          1    1    5    5  503    0 -0.33097899586E+03 -0.33004816755E+03  0.30785802830E+03  0.55969228527E+03  0.00000000000E+00 0. -1.
         -4    1    5    5    0  503 -0.58341052923E+02 -0.54658124621E+02  0.97744431840E+02  0.12627415808E+03  0.00000000000E+00 0.  1.
         -1    1    6    6    0  502  0.20538356729E+03  0.11081128820E+03  0.11091323437E+03  0.25838594556E+03  0.00000000000E+00 0.  1.
<mgrwt>
<rscale>  0 0.15843834E+04</rscale>
<asrwt>0</asrwt>
<pdfrwt beam="1">  1        2 0.14125405E+00 0.15843834E+04</pdfrwt>
<pdfrwt beam="2">  1       -2 0.10515572E+00 0.15843834E+04</pdfrwt>
<totfact> 0.20049949E+01</totfact>
</mgrwt>
</event>
<event>
12    1  0.1980523E-007  0.1765518E+04  0.7818608E-02  0.8724854E-01
         -2   -1    0    0    0  501 -0.00000000000E+00  0.00000000000E+00  0.54176361638E+03  0.54176361638E+03  0.00000000000E+00 0.  1.
          2   -1    0    0  501    0  0.00000000000E+00 -0.00000000000E+00 -0.14383830436E+04  0.14383830436E+04  0.00000000000E+00 0. -1.
         23    2    1    2    0    0  0.31688323538E+03 -0.18493410344E+03  0.26868823127E+03  0.46391662527E+03  0.91704209794E+02 0.  0.
        254    2    1    2    0    0 -0.31688323538E+03  0.18493410344E+03 -0.11653076584E+04  0.15162300347E+04  0.89799552991E+03 0.  0.
        -24    2    4    4    0    0 -0.91563671824E+01 -0.34281999676E+03 -0.46770999958E+03  0.58554640537E+03  0.80638451720E+02 0.  0.
         24    2    4    4    0    0 -0.30772686820E+03  0.52775410020E+03 -0.69759765885E+03  0.93068362930E+03  0.79431155810E+02 0.  0.
         11    1    3    3    0    0  0.19340072043E+03 -0.15560833713E+03  0.20489452681E+03  0.32186885585E+03  0.00000000000E+00 0. -1.
        -11    1    3    3    0    0  0.12348251495E+03 -0.29325766305E+02  0.63793704464E+02  0.14204776942E+03  0.00000000000E+00 0.  1.
          2    1    6    6  502    0 -0.13931451229E+03  0.18347656419E+03 -0.22263079312E+03  0.32036955689E+03  0.00000000000E+00 0. -1.
          1    1    5    5  503    0  0.25477796565E+02 -0.24331985017E+03 -0.29510945817E+03  0.38333178828E+03  0.00000000000E+00 0. -1.
         -2    1    5    5    0  503 -0.34634163747E+02 -0.99500146594E+02 -0.17260054141E+03  0.20221461709E+03  0.00000000000E+00 0.  1.
         -1    1    6    6    0  502 -0.16841235592E+03  0.34427753601E+03 -0.47496686574E+03  0.61031407241E+03  0.00000000000E+00 0.  1.
<mgrwt>
<rscale>  0 0.17655182E+04</rscale>
<asrwt>0</asrwt>
<pdfrwt beam="1">  1        2 0.22128970E+00 0.17655182E+04</pdfrwt>
<pdfrwt beam="2">  1       -2 0.83348249E-01 0.17655182E+04</pdfrwt>
<totfact> 0.16409758E+01</totfact>
</mgrwt>
</event>
<event>
12    1  0.1980523E-007  0.1640791E+04  0.7818608E-02  0.8795873E-01
          1   -1    0    0  501    0  0.00000000000E+00  0.00000000000E+00  0.22414237364E+04  0.22414237364E+04  0.00000000000E+00 0. -1.
         -1   -1    0    0    0  501 -0.00000000000E+00 -0.00000000000E+00 -0.30027734391E+03  0.30027734391E+03  0.00000000000E+00 0.  1.
         23    2    1    2    0    0 -0.65225337938E+02 -0.44044828489E+03  0.13781724884E+03  0.47563426624E+03  0.94790953009E+02 0.  0.
        254    2    1    2    0    0  0.65225337938E+02  0.44044828489E+03  0.18033291437E+04  0.20660668141E+04  0.90464746914E+03 0.  0.
        -24    2    4    4    0    0 -0.13836661660E+03 -0.79805029931E+02  0.12925786270E+04  0.13048905776E+04  0.80409880894E+02 0.  0.
         24    2    4    4    0    0  0.20359195454E+03  0.52025331482E+03  0.51075051660E+03  0.76117623648E+03  0.80062333452E+02 0.  0.
         13    1    3    3    0    0  0.12479324159E+02 -0.19611393546E+03  0.36086166063E+02  0.19979644790E+03  0.00000000000E+00 0.  1.
        -13    1    3    3    0    0 -0.77704662098E+02 -0.24433434944E+03  0.10173108277E+03  0.27583781834E+03  0.00000000000E+00 0. -1.
          2    1    6    6  502    0  0.12296949211E+03  0.27379195764E+03  0.22364204842E+03  0.37429840753E+03  0.00000000000E+00 0. -1.
          1    1    5    5  503    0 -0.14563440136E+03 -0.85991123072E+02  0.12349053178E+04  0.12464329088E+04  0.00000000000E+00 0. -1.
         -2    1    5    5    0  503  0.72677847547E+01  0.61860931415E+01  0.57673309244E+02  0.58457668810E+02  0.00000000000E+00 0.  1.
         -1    1    6    6    0  502  0.80622462433E+02  0.24646135719E+03  0.28710846819E+03  0.38687782896E+03  0.00000000000E+00 0.  1.
<mgrwt>
<rscale>  0 0.16407910E+04</rscale>
<asrwt>0</asrwt>
<pdfrwt beam="1">  1        1 0.34483441E+00 0.16407910E+04</pdfrwt>
<pdfrwt beam="2">  1       -1 0.46196516E-01 0.16407910E+04</pdfrwt>
<totfact> 0.91091883E+00</totfact>
</mgrwt>
</event>
<event>
12    1  0.1980523E-007  0.3913890E+04  0.7818608E-02  0.8022147E-01
          2   -1    0    0  501    0  0.00000000000E+00  0.00000000000E+00  0.16080167155E+04  0.16080167155E+04  0.00000000000E+00 0. -1.
         -2   -1    0    0    0  501 -0.00000000000E+00 -0.00000000000E+00 -0.23815878005E+04  0.23815878005E+04  0.00000000000E+00 0.  1.
         23    2    1    2    0    0  0.17013915356E+04  0.66968168836E+03 -0.61207049171E+02  0.18318191049E+04  0.92780435907E+02 0.  0.
        254    2    1    2    0    0 -0.17013915356E+04 -0.66968168836E+03 -0.71236403586E+03  0.21577854111E+04  0.89742333359E+03 0.  0.
        -24    2    4    4    0    0 -0.69831146031E+03 -0.74860892361E+03 -0.38090030669E+03  0.10953046020E+04  0.80950054727E+02 0.  0.
         24    2    4    4    0    0 -0.10030800753E+04  0.78927235242E+02 -0.33146372916E+03  0.10624808091E+04  0.81228813458E+02 0.  0.
         13    1    3    3    0    0  0.11546899199E+04  0.41569199298E+03 -0.65495539071E+02  0.12289826320E+04  0.00000000000E+00 0. -1.
        -13    1    3    3    0    0  0.54670161564E+03  0.25398969538E+03  0.42884899003E+01  0.60283647290E+03  0.00000000000E+00 0.  1.
          4    1    6    6  502    0 -0.88879956797E+02  0.23419103472E+02 -0.13099525644E+02  0.92842332477E+02  0.00000000000E+00 0. -1.
          3    1    5    5  503    0 -0.15429503172E+03 -0.15061495252E+03 -0.47260100223E+02  0.22073816573E+03  0.00000000000E+00 0. -1.
         -4    1    5    5    0  503 -0.54401642859E+03 -0.59799397108E+03 -0.33364020647E+03  0.87456643624E+03  0.00000000000E+00 0.  1.
         -3    1    6    6    0  502 -0.91420011846E+03  0.55508131770E+02 -0.31836420352E+03  0.96963847663E+03  0.00000000000E+00 0.  1.
<mgrwt>
<rscale>  0 0.39138896E+04</rscale>
<asrwt>0</asrwt>
<pdfrwt beam="1">  1        2 0.24738719E+00 0.39138896E+04</pdfrwt>
<pdfrwt beam="2">  1       -2 0.36639812E+00 0.39138896E+04</pdfrwt>
<totfact> 0.10729450E-01</totfact>
</mgrwt>
</event>
<event>
12    1  0.1980523E-007  0.3190895E+04  0.7818608E-02  0.8191226E-01
         -2   -1    0    0    0  501 -0.00000000000E+00  0.00000000000E+00  0.32826134784E+04  0.32826134784E+04  0.00000000000E+00 0. -1.
          2   -1    0    0  501    0  0.00000000000E+00 -0.00000000000E+00 -0.77543475136E+03  0.77543475136E+03  0.00000000000E+00 0.  1.
         23    2    1    2    0    0  0.11420402494E+04 -0.90113010633E+03  0.13906866026E+04  0.20140453643E+04  0.77962192091E+02 0.  0.
        254    2    1    2    0    0 -0.11420402494E+04  0.90113010633E+03  0.11164921245E+04  0.20440028654E+04  0.90282980128E+03 0.  0.
        -24    2    4    4    0    0 -0.75039735919E+03  0.64024044883E+03  0.12037490146E+04  0.15582879977E+04  0.79030148712E+02 0.  0.
         24    2    4    4    0    0 -0.39164289017E+03  0.26088965751E+03 -0.87256890177E+02  0.48571486774E+03  0.82810633678E+02 0.  0.
         13    1    3    3    0    0  0.40153630871E+03 -0.33450276270E+03  0.45195700852E+03  0.69093316827E+03  0.00000000000E+00 0.  1.
        -13    1    3    3    0    0  0.74050394065E+03 -0.56662734364E+03  0.93872959404E+03  0.13231121961E+04  0.00000000000E+00 0. -1.
          2    1    6    6  502    0 -0.35879300249E+03  0.20626261998E+03 -0.70641738562E+02  0.41984156805E+03  0.00000000000E+00 0. -1.
          3    1    5    5  503    0 -0.35400659718E+03  0.33498279795E+03  0.64212555552E+03  0.80613855808E+03  0.00000000000E+00 0. -1.
         -2    1    5    5    0  503 -0.39639076201E+03  0.30525765088E+03  0.56162345912E+03  0.75214943958E+03  0.00000000000E+00 0.  1.
         -1    1    6    6    0  502 -0.32849887680E+02  0.54627037521E+02 -0.16615151615E+02  0.65873299690E+02  0.00000000000E+00 0.  1.
<mgrwt>
<rscale>  0 0.31908949E+04</rscale>
<asrwt>0</asrwt>
<pdfrwt beam="1">  1        2 0.11929766E+00 0.31908949E+04</pdfrwt>
<pdfrwt beam="2">  1       -2 0.50501745E+00 0.31908949E+04</pdfrwt>
<totfact> 0.46341360E-02</totfact>
</mgrwt>
</event>
<event>
12    1  0.1980523E-007  0.1916098E+04  0.7818608E-02  0.8646885E-01
         -1   -1    0    0    0  501 -0.00000000000E+00  0.00000000000E+00  0.21083730249E+04  0.21083730249E+04  0.00000000000E+00 0.  1.
          1   -1    0    0  501    0  0.00000000000E+00 -0.00000000000E+00 -0.43533941576E+03  0.43533941576E+03  0.00000000000E+00 0. -1.
         23    2    1    2    0    0  0.47848747041E+03 -0.52156503064E+03  0.95041428486E+03  0.11886006441E+04  0.92216255618E+02 0.  0.
        254    2    1    2    0    0 -0.47848747041E+03  0.52156503064E+03  0.72261932426E+03  0.13551117965E+04  0.90175881074E+03 0.  0.
        -24    2    4    4    0    0 -0.24325680513E+03 -0.16481122205E+03  0.51152651794E+03  0.59531291553E+03  0.80009228754E+02 0.  0.
         24    2    4    4    0    0 -0.23523066528E+03  0.68637625269E+03  0.21109280631E+03  0.75979888099E+03  0.79299057516E+02 0.  0.
         13    1    3    3    0    0  0.18201452571E+03 -0.19555602425E+03  0.43507090186E+03  0.51054689876E+03  0.00000000000E+00 0.  1.
        -13    1    3    3    0    0  0.29647294470E+03 -0.32600900640E+03  0.51534338301E+03  0.67805374536E+03  0.00000000000E+00 0. -1.
          4    1    6    6  502    0 -0.81267111603E+00  0.74528144695E+02  0.17142047292E+02  0.76478458218E+02  0.00000000000E+00 0. -1.
          3    1    5    5  503    0  0.27238963102E+01 -0.13475553902E+02  0.11724657865E+02  0.18068695751E+02  0.00000000000E+00 0. -1.
         -4    1    5    5    0  503 -0.24598070144E+03 -0.15133566815E+03  0.49980186008E+03  0.57724421978E+03  0.00000000000E+00 0.  1.
         -3    1    6    6    0  502 -0.23441799416E+03  0.61184810800E+03  0.19395075902E+03  0.68332042277E+03  0.00000000000E+00 0.  1.
<mgrwt>
<rscale>  0 0.19160980E+04</rscale>
<asrwt>0</asrwt>
<pdfrwt beam="1">  1        1 0.66975296E-01 0.19160980E+04</pdfrwt>
<pdfrwt beam="2">  1       -1 0.32436508E+00 0.19160980E+04</pdfrwt>
<totfact> 0.11483431E+00</totfact>
</mgrwt>
</event>
<event>
12    1  0.1980523E-007  0.2160374E+04  0.7818608E-02  0.8535105E-01
         -1   -1    0    0    0  501 -0.00000000000E+00  0.00000000000E+00  0.62263267669E+03  0.62263267669E+03  0.00000000000E+00 0.  1.
          1   -1    0    0  501    0  0.00000000000E+00 -0.00000000000E+00 -0.18739845099E+04  0.18739845099E+04  0.00000000000E+00 0. -1.
         23    2    1    2    0    0 -0.55156600950E+03 -0.63277541605E+03 -0.85981556467E+03  0.12055065928E+04  0.96610300563E+02 0.  0.
        254    2    1    2    0    0  0.55156600950E+03  0.63277541605E+03 -0.39153626859E+03  0.12911105938E+04  0.89946435491E+03 0.  0.
        -24    2    4    4    0    0 -0.62881250790E+02 -0.16947696810E+03 -0.15148212135E+03  0.24936307126E+03  0.80985269034E+02 0.  0.
         24    2    4    4    0    0  0.61444726029E+03  0.80225238414E+03 -0.24005414723E+03  0.10417475225E+04  0.80359091178E+02 0.  0.
         11    1    3    3    0    0 -0.53605984558E+03 -0.63282557968E+03 -0.84646518324E+03  0.11850450113E+04  0.00000000000E+00 0.  1.
        -11    1    3    3    0    0 -0.15506163919E+02  0.50163629539E-01 -0.13350381422E+02  0.20461581561E+02  0.00000000000E+00 0. -1.
          4    1    6    6  502    0  0.54722672392E+03  0.70607422245E+03 -0.23766607030E+03  0.92438252685E+03  0.00000000000E+00 0. -1.
          1    1    5    5  503    0 -0.55653736510E+02 -0.16031434040E+03 -0.16128865736E+03  0.23411974952E+03  0.00000000000E+00 0. -1.
         -2    1    5    5    0  503 -0.72275142795E+01 -0.91626277003E+01  0.98065360053E+01  0.15243321733E+02  0.00000000000E+00 0.  1.
         -3    1    6    6    0  502  0.67220536369E+02  0.96178161693E+02 -0.23880769300E+01  0.11736499567E+03  0.00000000000E+00 0.  1.
<mgrwt>
<rscale>  0 0.21603740E+04</rscale>
<asrwt>0</asrwt>
<pdfrwt beam="1">  1        1 0.28830530E+00 0.21603740E+04</pdfrwt>
<pdfrwt beam="2">  1       -1 0.95789644E-01 0.21603740E+04</pdfrwt>
<totfact> 0.34885482E+00</totfact>
</mgrwt>
</event>
<event>
12    1  0.1980523E-007  0.1270974E+04  0.7818608E-02  0.9052905E-01
         -2   -1    0    0    0  501 -0.00000000000E+00  0.00000000000E+00  0.26984849385E+03  0.26984849385E+03  0.00000000000E+00 0.  1.
          2   -1    0    0  501    0  0.00000000000E+00 -0.00000000000E+00 -0.14965564765E+04  0.14965564765E+04  0.00000000000E+00 0. -1.
         23    2    1    2    0    0 -0.30591806265E+02  0.29358094964E+03 -0.20378642104E+03  0.37242245498E+03  0.10021949397E+03 0.  0.
        254    2    1    2    0    0  0.30591806265E+02 -0.29358094964E+03 -0.10229215616E+04  0.13939825154E+04  0.89982948348E+03 0.  0.
        -24    2    4    4    0    0 -0.31822459782E+03  0.16351270080E+03 -0.41988483506E+03  0.55739169934E+03  0.79868227716E+02 0.  0.
         24    2    4    4    0    0  0.34881640408E+03 -0.45709365044E+03 -0.60303672655E+03  0.83659081604E+03  0.74989405105E+02 0.  0.
         11    1    3    3    0    0 -0.63359265815E+02  0.19469529096E+03 -0.15804985324E+03  0.25865113376E+03  0.00000000000E+00 0. -1.
        -11    1    3    3    0    0  0.32767459550E+02  0.98885658680E+02 -0.45736567797E+02  0.11377132122E+03  0.00000000000E+00 0.  1.
          4    1    6    6  502    0 -0.39692512904E+01 -0.47728743054E+01 -0.71155581378E+01  0.94427989788E+01  0.00000000000E+00 0. -1.
          1    1    5    5  503    0 -0.13178688666E+03  0.87802285171E+02 -0.23969502027E+03  0.28728161709E+03  0.00000000000E+00 0. -1.
         -2    1    5    5    0  503 -0.18643771116E+03  0.75710415626E+02 -0.18018981479E+03  0.27011008224E+03  0.00000000000E+00 0.  1.
         -3    1    6    6    0  502  0.35278565537E+03 -0.45232077613E+03 -0.59592116842E+03  0.82714801706E+03  0.00000000000E+00 0.  1.
<mgrwt>
<rscale>  0 0.12709737E+04</rscale>
<asrwt>0</asrwt>
<pdfrwt beam="1">  1        2 0.23023946E+00 0.12709737E+04</pdfrwt>
<pdfrwt beam="2">  1       -2 0.41515153E-01 0.12709737E+04</pdfrwt>
<totfact> 0.68809904E+01</totfact>
</mgrwt>
</event>
<event>
12    1  0.1980523E-007  0.4071621E+04  0.7818608E-02  0.7990252E-01
         -2   -1    0    0    0  501 -0.00000000000E+00  0.00000000000E+00  0.34403207549E+04  0.34403207549E+04  0.00000000000E+00 0.  1.
          2   -1    0    0  501    0  0.00000000000E+00 -0.00000000000E+00 -0.12046914374E+04  0.12046914374E+04  0.00000000000E+00 0. -1.
         23    2    1    2    0    0  0.52822045358E+03 -0.17874707211E+04  0.47045580990E+03  0.19245678621E+04  0.92543829256E+02 0.  0.
        254    2    1    2    0    0 -0.52822045358E+03  0.17874707211E+04  0.17651735076E+04  0.27204443302E+04  0.90050619959E+03 0.  0.
        -24    2    4    4    0    0 -0.42222807881E+03  0.24508801509E+03  0.62930921725E+03  0.80035892449E+03  0.78737738277E+02 0.  0.
         24    2    4    4    0    0 -0.10599237477E+03  0.15423827060E+04  0.11358642904E+04  0.19200854057E+04  0.79758911091E+02 0.  0.
         13    1    3    3    0    0  0.23848643862E+03 -0.87877225936E+03  0.18693506371E+03  0.92954891386E+03  0.00000000000E+00 0. -1.
        -13    1    3    3    0    0  0.28973401496E+03 -0.90869846171E+03  0.28352074619E+03  0.99501894819E+03  0.00000000000E+00 0.  1.
          2    1    6    6  502    0 -0.69956554751E+02  0.12800330261E+04  0.91087971080E+03  0.15726030379E+04  0.00000000000E+00 0. -1.
          1    1    5    5  503    0 -0.41185006693E+03  0.22689257040E+03  0.61802276972E+03  0.77656478160E+03  0.00000000000E+00 0. -1.
         -2    1    5    5    0  503 -0.10378011877E+02  0.18195444693E+02  0.11286447524E+02  0.23794142888E+02  0.00000000000E+00 0.  1.
         -1    1    6    6    0  502 -0.36035820021E+02  0.26234967991E+03  0.22498457960E+03  0.34748236780E+03  0.00000000000E+00 0.  1.
<mgrwt>
<rscale>  0 0.40716213E+04</rscale>
<asrwt>0</asrwt>
<pdfrwt beam="1">  1        2 0.18533715E+00 0.40716213E+04</pdfrwt>
<pdfrwt beam="2">  1       -2 0.52928011E+00 0.40716213E+04</pdfrwt>
<totfact> 0.16337808E-02</totfact>
</mgrwt>
</event>
<event>
12    1  0.2008107E-007  0.2484952E+04  0.7818608E-02  0.8408366E-01
         -2   -1    0    0    0  501 -0.00000000000E+00  0.00000000000E+00  0.79905108701E+03  0.79905108701E+03  0.00000000000E+00 0.  1.
          2   -1    0    0  501    0  0.00000000000E+00 -0.00000000000E+00 -0.19319744625E+04  0.19319744625E+04  0.00000000000E+00 0. -1.
         23    2    1    2    0    0 -0.99246682937E+03 -0.28080307425E+03 -0.83383957936E+03  0.13296501615E+04  0.94023049579E+02 0.  0.
        254    2    1    2    0    0  0.99246682937E+03  0.28080307425E+03 -0.29908379617E+03  0.14013753881E+04  0.90031166122E+03 0.  0.
        -24    2    4    4    0    0  0.98981652135E+03  0.37385948174E+03  0.15985514538E+02  0.10613028060E+04  0.81243162124E+02 0.  0.
         24    2    4    4    0    0  0.26503080224E+01 -0.93056407490E+02 -0.31506931071E+03  0.34007258207E+03  0.87830355878E+02 0.  0.
         13    1    3    3    0    0 -0.63144190563E+03 -0.21026633628E+03 -0.57909355911E+03  0.88220188311E+03  0.00000000000E+00 0. -1.
        -13    1    3    3    0    0 -0.36102492374E+03 -0.70536737976E+02 -0.25474602024E+03  0.44744827835E+03  0.00000000000E+00 0.  1.
          2    1    6    6  502    0  0.38897574190E+01  0.97817474856E+01 -0.22282171630E+01  0.10760006895E+02  0.00000000000E+00 0. -1.
          3    1    5    5  503    0  0.16845875962E+03  0.96630633703E+02  0.84113429787E+01  0.19438771502E+03  0.00000000000E+00 0. -1.
         -4    1    5    5    0  503  0.82135776173E+03  0.27722884804E+03  0.75741715594E+01  0.86691509101E+03  0.00000000000E+00 0.  1.
         -1    1    6    6    0  502 -0.12394493966E+01 -0.10283815498E+03 -0.31284109355E+03  0.32931257517E+03  0.00000000000E+00 0.  1.
<mgrwt>
<rscale>  0 0.24849517E+04</rscale>
<asrwt>0</asrwt>
<pdfrwt beam="1">  1        2 0.29722684E+00 0.24849517E+04</pdfrwt>
<pdfrwt beam="2">  1       -2 0.12293094E+00 0.24849517E+04</pdfrwt>
<totfact> 0.32545232E+00</totfact>
</mgrwt>
</event>
<event>
12    1  0.1980523E-007  0.2100987E+04  0.7818608E-02  0.8560809E-01
          2   -1    0    0  501    0  0.00000000000E+00  0.00000000000E+00  0.81382073839E+03  0.81382073839E+03  0.00000000000E+00 0. -1.
         -2   -1    0    0    0  501 -0.00000000000E+00 -0.00000000000E+00 -0.13559948907E+04  0.13559948907E+04  0.00000000000E+00 0.  1.
         23    2    1    2    0    0  0.71367739473E+03  0.43120641963E+03 -0.41429923739E+03  0.93541522018E+03  0.89907596850E+02 0.  0.
        254    2    1    2    0    0 -0.71367739473E+03 -0.43120641963E+03 -0.12787491494E+03  0.12344004089E+04  0.90117588496E+03 0.  0.
        -24    2    4    4    0    0  0.18197331380E+03  0.13924048487E+02  0.70103567013E+02  0.21169797654E+03  0.81199489550E+02 0.  0.
         24    2    4    4    0    0 -0.89565070852E+03 -0.44513046812E+03 -0.19797848195E+03  0.10227024324E+04  0.79959118195E+02 0.  0.
         13    1    3    3    0    0  0.39825432449E+03  0.21435766687E+03 -0.26746155158E+03  0.52544400073E+03  0.00000000000E+00 0.  1.
        -13    1    3    3    0    0  0.31542307023E+03  0.21684875276E+03 -0.14683768581E+03  0.40997121946E+03  0.00000000000E+00 0. -1.
          4    1    6    6  502    0 -0.12295990369E+03 -0.93225990611E+02 -0.30430423283E+02  0.15727756961E+03  0.00000000000E+00 0. -1.
          3    1    5    5  503    0  0.23142679895E+02  0.31650874958E+02  0.21160733791E+02  0.44554889439E+02  0.00000000000E+00 0. -1.
         -4    1    5    5    0  503  0.15883063390E+03 -0.17726826470E+02  0.48942833221E+02  0.16714308710E+03  0.00000000000E+00 0.  1.
         -3    1    6    6    0  502 -0.77269080483E+03 -0.35190447751E+03 -0.16754805867E+03  0.86542486278E+03  0.00000000000E+00 0.  1.
<mgrwt>
<rscale>  0 0.21009872E+04</rscale>
<asrwt>0</asrwt>
<pdfrwt beam="1">  1        2 0.12520319E+00 0.21009872E+04</pdfrwt>
<pdfrwt beam="2">  1       -2 0.20861460E+00 0.21009872E+04</pdfrwt>
<totfact> 0.36244509E+00</totfact>
</mgrwt>
</event>
<event>
12    1  0.1980523E-007  0.2717588E+04  0.7818608E-02  0.8329321E-01
          2   -1    0    0  501    0  0.00000000000E+00  0.00000000000E+00  0.16251222656E+04  0.16251222656E+04  0.00000000000E+00 0. -1.
         -2   -1    0    0    0  501 -0.00000000000E+00 -0.00000000000E+00 -0.11361120064E+04  0.11361120064E+04  0.00000000000E+00 0.  1.
         23    2    1    2    0    0  0.66507617889E+03  0.23799184336E+03 -0.77634164635E+03  0.10537119166E+04  0.92930135688E+02 0.  0.
        254    2    1    2    0    0 -0.66507617889E+03 -0.23799184336E+03  0.12653519056E+04  0.17075223555E+04  0.90307846188E+03 0.  0.
        -24    2    4    4    0    0 -0.38987888912E+03  0.32519978107E+03  0.53615768446E+03  0.74278029974E+03  0.80604375150E+02 0.  0.
         24    2    4    4    0    0 -0.27519728977E+03 -0.56319162442E+03  0.72919422109E+03  0.96474205573E+03  0.78004281266E+02 0.  0.
         13    1    3    3    0    0  0.41839924380E+03  0.18481189250E+03 -0.54350756911E+03  0.71036176734E+03  0.00000000000E+00 0.  1.
        -13    1    3    3    0    0  0.24667693509E+03  0.53179950863E+02 -0.23283407724E+03  0.34335014927E+03  0.00000000000E+00 0. -1.
          2    1    6    6  502    0 -0.86433274126E+02 -0.10774839756E+03  0.14368966921E+03  0.19931670549E+03  0.00000000000E+00 0. -1.
          1    1    5    5  503    0 -0.68385936206E+02  0.44500848997E+02  0.49253003126E+02  0.95303830716E+02  0.00000000000E+00 0. -1.
         -2    1    5    5    0  503 -0.32149295291E+03  0.28069893207E+03  0.48690468133E+03  0.64747646902E+03  0.00000000000E+00 0.  1.
         -1    1    6    6    0  502 -0.18876401565E+03 -0.45544322686E+03  0.58550455189E+03  0.76542535023E+03  0.00000000000E+00 0.  1.
<mgrwt>
<rscale>  0 0.27175878E+04</rscale>
<asrwt>0</asrwt>
<pdfrwt beam="1">  1        2 0.25001881E+00 0.27175878E+04</pdfrwt>
<pdfrwt beam="2">  1       -2 0.17478646E+00 0.27175878E+04</pdfrwt>
<totfact> 0.18651064E+00</totfact>
</mgrwt>
</event>
<event>
12    1  0.3305354E-007  0.3207849E+04  0.7818608E-02  0.8186747E-01
         -2   -1    0    0    0  501 -0.00000000000E+00  0.00000000000E+00  0.12250774483E+04  0.12250774483E+04  0.00000000000E+00 0.  1.
          2   -1    0    0  501    0  0.00000000000E+00 -0.00000000000E+00 -0.20999272707E+04  0.20999272707E+04  0.00000000000E+00 0. -1.
         23    2    1    2    0    0  0.10444191912E+04  0.95583527161E+03  0.29667854674E+02  0.14190585027E+04  0.91729706971E+02 0.  0.
        254    2    1    2    0    0 -0.10444191912E+04 -0.95583527161E+03 -0.90451767707E+03  0.19059462163E+04  0.90002568747E+03 0.  0.
        -24    2    4    4    0    0 -0.10948294602E+04 -0.78608432392E+03 -0.10081314073E+04  0.16854248574E+04  0.88022179909E+02 0.  0.
         24    2    4    4    0    0  0.50410269032E+02 -0.16975094769E+03  0.10361373027E+03  0.22052135896E+03  0.80853479795E+02 0.  0.
         13    1    3    3    0    0  0.42368896930E+03  0.32765860516E+03  0.78021640950E+01  0.53566162641E+03  0.00000000000E+00 0. -1.
        -13    1    3    3    0    0  0.62073022189E+03  0.62817666645E+03  0.21865690579E+02  0.88339687630E+03  0.00000000000E+00 0.  1.
          4    1    6    6  502    0  0.69930579774E+02 -0.98596497720E+02  0.63887601684E+02  0.13672300830E+03  0.00000000000E+00 0. -1.
          1    1    5    5  503    0 -0.68701778636E+03 -0.51212552565E+03 -0.59096131406E+03  0.10409136696E+04  0.00000000000E+00 0. -1.
         -2    1    5    5    0  503 -0.40781167387E+03 -0.27395879827E+03 -0.41717009327E+03  0.64451118781E+03  0.00000000000E+00 0.  1.
         -3    1    6    6    0  502 -0.19520310741E+02 -0.71154449969E+02  0.39726128581E+02  0.83798350663E+02  0.00000000000E+00 0.  1.
<mgrwt>
<rscale>  0 0.32078488E+04</rscale>
<asrwt>0</asrwt>
<pdfrwt beam="1">  1        2 0.32306573E+00 0.32078488E+04</pdfrwt>
<pdfrwt beam="2">  1       -2 0.18847346E+00 0.32078488E+04</pdfrwt>
<totfact> 0.78488157E-01</totfact>
</mgrwt>
</event>
<event>
12    1  0.1980523E-007  0.2854801E+04  0.7818608E-02  0.8286454E-01
          1   -1    0    0  501    0  0.00000000000E+00  0.00000000000E+00  0.10212281556E+04  0.10212281556E+04  0.00000000000E+00 0. -1.
         -1   -1    0    0    0  501 -0.00000000000E+00 -0.00000000000E+00 -0.19951197834E+04  0.19951197834E+04  0.00000000000E+00 0.  1.
         23    2    1    2    0    0  0.70549128879E+03 -0.99003733505E+03 -0.48863338196E+01  0.12186990117E+04  0.85507435050E+02 0.  0.
        254    2    1    2    0    0 -0.70549128879E+03  0.99003733505E+03 -0.96900529401E+03  0.17976489273E+04  0.90259543695E+03 0.  0.
        -24    2    4    4    0    0 -0.75379060597E+03  0.29662057058E+03 -0.49702973886E+03  0.95363668925E+03  0.78742194812E+02 0.  0.
         24    2    4    4    0    0  0.48299317178E+02  0.69341676447E+03 -0.47197555515E+03  0.84401223809E+03  0.80225308299E+02 0.  0.
         13    1    3    3    0    0  0.54215500407E+03 -0.74990856201E+03 -0.39650951164E+02  0.92621115181E+03  0.00000000000E+00 0.  1.
        -13    1    3    3    0    0  0.16333628472E+03 -0.24012877304E+03  0.34764617345E+02  0.29248785987E+03  0.00000000000E+00 0. -1.
          4    1    6    6  502    0 -0.13577839274E+02  0.36826311310E+02 -0.16848842050E+02  0.42713211100E+02  0.00000000000E+00 0. -1.
          3    1    5    5  503    0 -0.21577317384E+03  0.64263221776E+02 -0.10400737900E+03  0.24800274013E+03  0.00000000000E+00 0. -1.
         -2    1    5    5    0  503 -0.53801743212E+03  0.23235734880E+03 -0.39302235986E+03  0.70563394913E+03  0.00000000000E+00 0.  1.
         -1    1    6    6    0  502  0.61877156452E+02  0.65659045316E+03 -0.45512671310E+03  0.80129902699E+03  0.00000000000E+00 0.  1.
<mgrwt>
<rscale>  0 0.28548012E+04</rscale>
<asrwt>0</asrwt>
<pdfrwt beam="1">  1        1 0.15711202E+00 0.28548012E+04</pdfrwt>
<pdfrwt beam="2">  1       -1 0.30694151E+00 0.28548012E+04</pdfrwt>
<totfact> 0.37358939E-01</totfact>
</mgrwt>
</event>
<event>
12    1  0.1980523E-007  0.2480077E+04  0.7818608E-02  0.8410118E-01
         -1   -1    0    0    0  501 -0.00000000000E+00  0.00000000000E+00  0.10513847381E+04  0.10513847381E+04  0.00000000000E+00 0.  1.
          1   -1    0    0  501    0  0.00000000000E+00 -0.00000000000E+00 -0.14625425080E+04  0.14625425080E+04  0.00000000000E+00 0. -1.
         23    2    1    2    0    0  0.32780822620E+03 -0.15747466838E+03  0.84320481839E+03  0.92295593748E+03  0.92718889327E+02 0.  0.
        254    2    1    2    0    0 -0.32780822620E+03  0.15747466838E+03 -0.12543625884E+04  0.15909713086E+04  0.90857454144E+03 0.  0.
        -24    2    4    4    0    0 -0.19596662638E+03  0.51968299246E+03 -0.90424842602E+03  0.10641688153E+04  0.79477797414E+02 0.  0.
         24    2    4    4    0    0 -0.13184159982E+03 -0.36220832408E+03 -0.35011416234E+03  0.52680249325E+03  0.79773822469E+02 0.  0.
         13    1    3    3    0    0 -0.27385407007E+00 -0.11944448319E+01  0.54972453387E+02  0.54986110300E+02  0.00000000000E+00 0. -1.
        -13    1    3    3    0    0  0.32808208027E+03 -0.15628022355E+03  0.78823236500E+03  0.86796982718E+03  0.00000000000E+00 0.  1.
          4    1    6    6  502    0 -0.28918466802E+02 -0.59362036976E+02 -0.10410910753E+03  0.12328355700E+03  0.00000000000E+00 0. -1.
          1    1    5    5  503    0 -0.17505330147E+03  0.43773809896E+03 -0.70950097727E+03  0.85185088976E+03  0.00000000000E+00 0. -1.
         -2    1    5    5    0  503 -0.20913324909E+02  0.81944893501E+02 -0.19474744875E+03  0.21231792558E+03  0.00000000000E+00 0.  1.
         -3    1    6    6    0  502 -0.10292313302E+03 -0.30284628710E+03 -0.24600505481E+03  0.40351893625E+03  0.00000000000E+00 0.  1.
<mgrwt>
<rscale>  0 0.24800765E+04</rscale>
<asrwt>0</asrwt>
<pdfrwt beam="1">  1        1 0.22500654E+00 0.24800765E+04</pdfrwt>
<pdfrwt beam="2">  1       -1 0.16175150E+00 0.24800765E+04</pdfrwt>
<totfact> 0.17523273E+00</totfact>
</mgrwt>
</event>
<event>
12    1  0.1980523E-007  0.1965928E+04  0.7818608E-02  0.8622718E-01
         -2   -1    0    0    0  501 -0.00000000000E+00  0.00000000000E+00  0.41199364911E+03  0.41199364911E+03  0.00000000000E+00 0. -1.
          2   -1    0    0  501    0  0.00000000000E+00 -0.00000000000E+00 -0.23452267210E+04  0.23452267210E+04  0.00000000000E+00 0.  1.
         23    2    1    2    0    0 -0.25652597613E+03 -0.65085345166E+03 -0.29815040171E+03  0.76356138813E+03  0.68677066317E+02 0.  0.
        254    2    1    2    0    0  0.25652597613E+03  0.65085345166E+03 -0.16350826702E+04  0.19936589820E+04  0.90098002540E+03 0.  0.
        -24    2    4    4    0    0 -0.89011119853E+02  0.50496953075E+03 -0.14998916223E+04  0.15871385608E+04  0.80104470742E+02 0.  0.
         24    2    4    4    0    0  0.34553709598E+03  0.14588392092E+03 -0.13519104793E+03  0.40652042119E+03  0.79399183392E+02 0.  0.
         11    1    3    3    0    0 -0.17258744851E+03 -0.34468955649E+03 -0.16308423056E+03  0.41856156535E+03  0.00000000000E+00 0.  1.
        -11    1    3    3    0    0 -0.83938527614E+02 -0.30616389518E+03 -0.13506617115E+03  0.34499982278E+03  0.00000000000E+00 0. -1.
          2    1    6    6  502    0  0.33648523950E+03  0.14723928508E+03 -0.11585691927E+03  0.38512926299E+03  0.00000000000E+00 0. -1.
          3    1    5    5  503    0 -0.10113697750E+03  0.46653953769E+03 -0.13496963651E+04  0.14316312746E+04  0.00000000000E+00 0. -1.
         -4    1    5    5    0  503  0.12125857647E+02  0.38429993057E+02 -0.15019525720E+03  0.15550728624E+03  0.00000000000E+00 0.  1.
         -1    1    6    6    0  502  0.90518564805E+01 -0.13553641652E+01 -0.19334128663E+02  0.21391158195E+02  0.00000000000E+00 0.  1.
<mgrwt>
<rscale>  0 0.19659283E+04</rscale>
<asrwt>0</asrwt>
<pdfrwt beam="1">  1        2 0.36080411E+00 0.19659283E+04</pdfrwt>
<pdfrwt beam="2">  1       -2 0.63383639E-01 0.19659283E+04</pdfrwt>
<totfact> 0.91756292E+00</totfact>
</mgrwt>
</event>
<event>
12    1  0.2265719E-007  0.3139416E+04  0.7818608E-02  0.8205003E-01
         -2   -1    0    0    0  501 -0.00000000000E+00  0.00000000000E+00  0.11471727835E+04  0.11471727835E+04  0.00000000000E+00 0. -1.
          2   -1    0    0  501    0  0.00000000000E+00 -0.00000000000E+00 -0.21478747847E+04  0.21478747847E+04  0.00000000000E+00 0.  1.
         23    2    1    2    0    0 -0.12045450744E+04 -0.61876434246E+03 -0.97234520166E+03  0.16696435959E+04  0.91958677883E+02 0.  0.
        254    2    1    2    0    0  0.12045450744E+04  0.61876434246E+03 -0.28356799526E+02  0.16254039724E+04  0.89851867961E+03 0.  0.
        -24    2    4    4    0    0 -0.60893855931E+02  0.27154242549E+03  0.95689290261E+02  0.30497852420E+03  0.80075648133E+02 0.  0.
         24    2    4    4    0    0  0.12654389303E+04  0.34722191697E+03 -0.12404608979E+03  0.13204254482E+04  0.78975855863E+02 0.  0.
         13    1    3    3    0    0 -0.10646878349E+04 -0.52950048967E+03 -0.88391412069E+03  0.14816325884E+04  0.00000000000E+00 0.  1.
        -13    1    3    3    0    0 -0.13985723947E+03 -0.89263852784E+02 -0.88431080970E+02  0.18801100746E+03  0.00000000000E+00 0. -1.
          2    1    6    6  502    0  0.30785587456E+02  0.12764345586E+02  0.85866123618E+01  0.34415270231E+02  0.00000000000E+00 0. -1.
          3    1    5    5  503    0  0.17446631656E+02  0.40394965002E+02  0.26222824473E+02  0.51222794506E+02  0.00000000000E+00 0. -1.
         -4    1    5    5    0  503 -0.78340487587E+02  0.23114746049E+03  0.69466465788E+02  0.25375572970E+03  0.00000000000E+00 0.  1.
         -1    1    6    6    0  502  0.12346533429E+04  0.33445757138E+03 -0.13263270215E+03  0.12860101779E+04  0.00000000000E+00 0.  1.
<mgrwt>
<rscale>  0 0.31394162E+04</rscale>
<asrwt>0</asrwt>
<pdfrwt beam="1">  1        2 0.33044227E+00 0.31394162E+04</pdfrwt>
<pdfrwt beam="2">  1       -2 0.17648812E+00 0.31394162E+04</pdfrwt>
<totfact> 0.89673684E-01</totfact>
</mgrwt>
</event>
<event>
12    1  0.1980523E-007  0.4044560E+04  0.7818608E-02  0.7995617E-01
         -1   -1    0    0    0  501 -0.00000000000E+00  0.00000000000E+00  0.16977228575E+04  0.16977228575E+04  0.00000000000E+00 0.  1.
          1   -1    0    0  501    0  0.00000000000E+00 -0.00000000000E+00 -0.24088836588E+04  0.24088836588E+04  0.00000000000E+00 0. -1.
         23    2    1    2    0    0 -0.19431005665E+03 -0.14214790648E+04 -0.16350344723E+04  0.21770552095E+04  0.88727277565E+02 0.  0.
        254    2    1    2    0    0  0.19431005665E+03  0.14214790648E+04  0.92387367099E+03  0.19295513068E+04  0.90070336743E+03 0.  0.
        -24    2    4    4    0    0  0.47770224954E+02  0.54091844183E+03 -0.11165064472E+03  0.56001276469E+03  0.79206534067E+02 0.  0.
         24    2    4    4    0    0  0.14653983170E+03  0.88056062293E+03  0.10355243157E+04  0.13695385421E+04  0.80400728067E+02 0.  0.
         11    1    3    3    0    0 -0.78420785531E+02 -0.56543299210E+03 -0.71694878808E+03  0.91644959103E+03  0.00000000000E+00 0. -1.
        -11    1    3    3    0    0 -0.11588927112E+03 -0.85604607266E+03 -0.91808568423E+03  0.12606056184E+04  0.00000000000E+00 0.  1.
          2    1    6    6  502    0  0.60579359912E+02  0.44581437645E+03  0.57954410255E+03  0.73368364020E+03  0.00000000000E+00 0. -1.
          3    1    5    5  503    0 -0.11961171359E+02  0.10668549880E+03  0.13378074362E+01  0.10736226061E+03  0.00000000000E+00 0. -1.
         -4    1    5    5    0  503  0.59731396312E+02  0.43423294303E+03 -0.11298845216E+03  0.45265050407E+03  0.00000000000E+00 0.  1.
         -1    1    6    6    0  502  0.85960471789E+02  0.43474624648E+03  0.45598021316E+03  0.63585490195E+03  0.00000000000E+00 0.  1.
<mgrwt>
<rscale>  0 0.40445602E+04</rscale>
<asrwt>0</asrwt>
<pdfrwt beam="1">  1        1 0.37059748E+00 0.40445602E+04</pdfrwt>
<pdfrwt beam="2">  1       -1 0.26118813E+00 0.40445602E+04</pdfrwt>
<totfact> 0.72004778E-02</totfact>
</mgrwt>
</event>
<event>
12    1  0.1980523E-007  0.1785876E+04  0.7818608E-02  0.8713847E-01
         -1   -1    0    0    0  501 -0.00000000000E+00  0.00000000000E+00  0.98198306917E+03  0.98198306917E+03  0.00000000000E+00 0.  1.
          1   -1    0    0  501    0  0.00000000000E+00 -0.00000000000E+00 -0.81196748936E+03  0.81196748936E+03  0.00000000000E+00 0. -1.
         23    2    1    2    0    0  0.10920203877E+01  0.65962172918E+03  0.12148460498E+03  0.67689880515E+03  0.91276859327E+02 0.  0.
        254    2    1    2    0    0 -0.10920203877E+01 -0.65962172918E+03  0.48530974835E+02  0.11170517534E+04  0.90019294937E+03 0.  0.
        -24    2    4    4    0    0  0.37524849152E+03 -0.41374568163E+03  0.25125979938E+03  0.61726313041E+03  0.76716138599E+02 0.  0.
         24    2    4    4    0    0 -0.37634051191E+03 -0.24587604755E+03 -0.20272882454E+03  0.49978862297E+03  0.81255644044E+02 0.  0.
         11    1    3    3    0    0  0.31800002244E+00  0.23041285937E+03  0.87055921314E+02  0.24631061756E+03  0.00000000000E+00 0.  1.
        -11    1    3    3    0    0  0.77402036528E+00  0.42920886981E+03  0.34428683666E+02  0.43058818759E+03  0.00000000000E+00 0. -1.
          2    1    6    6  502    0 -0.16555196695E+03 -0.14391128776E+03 -0.12812852127E+03  0.25403706515E+03  0.00000000000E+00 0. -1.
          1    1    5    5  503    0  0.75520780574E+02 -0.42992592259E+02  0.33549376312E+02  0.93152090361E+02  0.00000000000E+00 0. -1.
         -4    1    5    5    0  503  0.29972771095E+03 -0.37075308937E+03  0.21771042306E+03  0.52411104005E+03  0.00000000000E+00 0.  1.
         -1    1    6    6    0  502 -0.21078854496E+03 -0.10196475979E+03 -0.74600303271E+02  0.24575155783E+03  0.00000000000E+00 0.  1.
<mgrwt>
<rscale>  0 0.17858761E+04</rscale>
<asrwt>0</asrwt>
<pdfrwt beam="1">  1        1 0.12491808E+00 0.17858761E+04</pdfrwt>
<pdfrwt beam="2">  1       -1 0.15107432E+00 0.17858761E+04</pdfrwt>
<totfact> 0.69796838E+00</totfact>
</mgrwt>
</event>
<event>
12    1  0.1980523E-007  0.2138655E+04  0.7818608E-02  0.8544404E-01
          1   -1    0    0  501    0  0.00000000000E+00  0.00000000000E+00  0.61403220367E+03  0.61403220367E+03  0.00000000000E+00 0. -1.
         -1   -1    0    0    0  501 -0.00000000000E+00 -0.00000000000E+00 -0.18622168046E+04  0.18622168046E+04  0.00000000000E+00 0.  1.
         23    2    1    2    0    0  0.70748304143E+03  0.51673359358E+03 -0.46251991375E+03  0.99482936104E+03  0.90636230706E+02 0.  0.
        254    2    1    2    0    0 -0.70748304143E+03 -0.51673359358E+03 -0.78566468720E+03  0.14814196473E+04  0.89988294236E+03 0.  0.
        -24    2    4    4    0    0 -0.53517418104E+03 -0.40846587536E+03 -0.97765291379E+03  0.11896745838E+04  0.79149353273E+02 0.  0.
         24    2    4    4    0    0 -0.17230886039E+03 -0.10826771821E+03  0.19198822658E+03  0.29174506346E+03  0.82725212196E+02 0.  0.
         11    1    3    3    0    0  0.34231760575E+03  0.28885289469E+03 -0.27277469018E+03  0.52442670563E+03  0.00000000000E+00 0.  1.
        -11    1    3    3    0    0  0.36516543568E+03  0.22788069889E+03 -0.18974522357E+03  0.47040265540E+03  0.00000000000E+00 0. -1.
          4    1    6    6  502    0 -0.10814370400E+03 -0.76587483069E+02  0.17260256416E+03  0.21760594760E+03  0.00000000000E+00 0. -1.
          1    1    5    5  503    0 -0.51514233322E+03 -0.40296642741E+03 -0.92319872730E+03  0.11313927060E+04  0.00000000000E+00 0. -1.
         -2    1    5    5    0  503 -0.20031847826E+02 -0.54994479568E+01 -0.54454186486E+02  0.58281877810E+02  0.00000000000E+00 0.  1.
         -3    1    6    6    0  502 -0.64165156389E+02 -0.31680235145E+02  0.19385662428E+02  0.74139115864E+02  0.00000000000E+00 0.  1.
<mgrwt>
<rscale>  0 0.21386548E+04</rscale>
<asrwt>0</asrwt>
<pdfrwt beam="1">  1        1 0.94466493E-01 0.21386548E+04</pdfrwt>
<pdfrwt beam="2">  1       -1 0.28649489E+00 0.21386548E+04</pdfrwt>
<totfact> 0.12266508E+00</totfact>
</mgrwt>
</event>
<event>
12    1  0.1980523E-007  0.1709625E+04  0.7818608E-02  0.8755894E-01
          1   -1    0    0  501    0  0.00000000000E+00  0.00000000000E+00  0.15293249578E+04  0.15293249578E+04  0.00000000000E+00 0. -1.
         -1   -1    0    0    0  501 -0.00000000000E+00 -0.00000000000E+00 -0.47779552651E+03  0.47779552651E+03  0.00000000000E+00 0.  1.
         23    2    1    2    0    0 -0.53777472711E+03  0.11293127754E+03  0.64176008194E+02  0.56368620011E+03  0.10802056105E+03 0.  0.
        254    2    1    2    0    0  0.53777472711E+03 -0.11293127754E+03  0.98735342306E+03  0.14434342842E+04  0.89815400690E+03 0.  0.
        -24    2    4    4    0    0 -0.15010643637E+03  0.84147838958E+02 -0.34923736924E+02  0.19305300369E+03  0.80230878046E+02 0.  0.
         24    2    4    4    0    0  0.68788116348E+03 -0.19707911650E+03  0.10222771600E+04  0.12503812805E+04  0.79887930943E+02 0.  0.
         11    1    3    3    0    0 -0.16480193129E+03  0.14215994658E+01 -0.18107038899E+02  0.16579976586E+03  0.00000000000E+00 0.  1.
        -11    1    3    3    0    0 -0.37297279581E+03  0.11150967807E+03  0.82283047093E+02  0.39788643425E+03  0.00000000000E+00 0. -1.
          4    1    6    6  502    0  0.18719881409E+03 -0.78101351238E+02  0.33786528043E+03  0.39407634385E+03  0.00000000000E+00 0. -1.
          3    1    5    5  503    0 -0.12830063831E+03  0.79045340592E+02 -0.57462726400E+02  0.16127983317E+03  0.00000000000E+00 0. -1.
         -4    1    5    5    0  503 -0.21805798056E+02  0.51024983656E+01  0.22538989477E+02  0.31773170522E+02  0.00000000000E+00 0.  1.
         -3    1    6    6    0  502  0.50068234938E+03 -0.11897776526E+03  0.68441187955E+03  0.85630493662E+03  0.00000000000E+00 0.  1.
<mgrwt>
<rscale>  0 0.17096252E+04</rscale>
<asrwt>0</asrwt>
<pdfrwt beam="1">  1        1 0.23528076E+00 0.17096252E+04</pdfrwt>
<pdfrwt beam="2">  1       -1 0.73507005E-01 0.17096252E+04</pdfrwt>
<totfact> 0.11067521E+01</totfact>
</mgrwt>
</event>
<event>
12    1  0.1980523E-007  0.2203119E+04  0.7818608E-02  0.8517131E-01
          1   -1    0    0  501    0  0.00000000000E+00  0.00000000000E+00  0.21903100957E+04  0.21903100957E+04  0.00000000000E+00 0. -1.
         -1   -1    0    0    0  501 -0.00000000000E+00 -0.00000000000E+00 -0.55400094584E+03  0.55400094584E+03  0.00000000000E+00 0.  1.
         23    2    1    2    0    0 -0.73714670163E+03  0.42963913783E+03  0.10946675495E+04  0.13909747133E+04  0.92404332453E+02 0.  0.
        254    2    1    2    0    0  0.73714670163E+03 -0.42963913783E+03  0.54164160032E+03  0.13533363282E+04  0.90009363155E+03 0.  0.
        -24    2    4    4    0    0  0.44264224485E+03 -0.93876241253E+02 -0.18618540491E+03  0.49574876146E+03  0.79730319781E+02 0.  0.
         24    2    4    4    0    0  0.29450445678E+03 -0.33576289658E+03  0.72782700522E+03  0.85758756674E+03  0.79086581073E+02 0.  0.
         11    1    3    3    0    0 -0.18163181422E+03  0.92759266044E+02  0.20328250894E+03  0.28795516285E+03  0.00000000000E+00 0. -1.
        -11    1    3    3    0    0 -0.55551488741E+03  0.33687987179E+03  0.89138504059E+03  0.11030195505E+04  0.00000000000E+00 0.  1.
          4    1    6    6  502    0  0.24724042739E+03 -0.25292889360E+03  0.51958018505E+03  0.62854150448E+03  0.00000000000E+00 0. -1.
          3    1    5    5  503    0  0.28855246265E+03 -0.67955642120E+02 -0.16141443942E+03  0.33754275915E+03  0.00000000000E+00 0. -1.
         -4    1    5    5    0  503  0.15408978220E+03 -0.25920599133E+02 -0.24770965486E+02  0.15820600232E+03  0.00000000000E+00 0.  1.
         -3    1    6    6    0  502  0.47264029387E+02 -0.82834002974E+02  0.20824682018E+03  0.22904606226E+03  0.00000000000E+00 0.  1.
<mgrwt>
<rscale>  0 0.22031195E+04</rscale>
<asrwt>0</asrwt>
<pdfrwt beam="1">  1        1 0.33697078E+00 0.22031195E+04</pdfrwt>
<pdfrwt beam="2">  1       -1 0.85230916E-01 0.22031195E+04</pdfrwt>
<totfact> 0.27436133E+00</totfact>
</mgrwt>
</event>
<event>
12    1  0.1980523E-007  0.1912963E+04  0.7818608E-02  0.8648431E-01
         -2   -1    0    0    0  501 -0.00000000000E+00  0.00000000000E+00  0.14331855303E+04  0.14331855303E+04  0.00000000000E+00 0.  1.
          2   -1    0    0  501    0  0.00000000000E+00 -0.00000000000E+00 -0.63833800038E+03  0.63833800038E+03  0.00000000000E+00 0. -1.
         23    2    1    2    0    0  0.48947096240E+03 -0.47859501360E+03 -0.25440831026E+01  0.69046768024E+03  0.90022969475E+02 0.  0.
        254    2    1    2    0    0 -0.48947096240E+03  0.47859501360E+03  0.79739161298E+03  0.13810558504E+04  0.89601722493E+03 0.  0.
        -24    2    4    4    0    0  0.24634351813E+03  0.21671129604E+03  0.29903382843E+03  0.45113464375E+03  0.80326343689E+02 0.  0.
         24    2    4    4    0    0 -0.73581448053E+03  0.26188371756E+03  0.49835778455E+03  0.92992120663E+03  0.79918319888E+02 0.  0.
         11    1    3    3    0    0  0.34560554370E+03 -0.27967620537E+03 -0.12602009714E+02  0.44477048276E+03  0.00000000000E+00 0. -1.
        -11    1    3    3    0    0  0.14386541869E+03 -0.19891880823E+03  0.10057926612E+02  0.24569719748E+03  0.00000000000E+00 0.  1.
          2    1    6    6  502    0 -0.55892746531E+03  0.16203858717E+03  0.36508041128E+03  0.68697898215E+03  0.00000000000E+00 0. -1.
          1    1    5    5  503    0  0.20965615334E+03  0.21576933017E+03  0.27162344228E+03  0.40532875653E+03  0.00000000000E+00 0. -1.
         -2    1    5    5    0  503  0.36687364790E+02  0.94196586769E+00  0.27410386153E+02  0.45805887220E+02  0.00000000000E+00 0.  1.
         -1    1    6    6    0  502 -0.17688701522E+03  0.99845130381E+02  0.13327737327E+03  0.24294222449E+03  0.00000000000E+00 0.  1.
<mgrwt>
<rscale>  0 0.19129629E+04</rscale>
<asrwt>0</asrwt>
<pdfrwt beam="1">  1        2 0.98205846E-01 0.19129629E+04</pdfrwt>
<pdfrwt beam="2">  1       -2 0.22049008E+00 0.19129629E+04</pdfrwt>
<totfact> 0.42189059E+00</totfact>
</mgrwt>
</event>
<event>
12    1  0.1980523E-007  0.2392673E+04  0.7818608E-02  0.8442252E-01
          1   -1    0    0  501    0  0.00000000000E+00  0.00000000000E+00  0.17496850749E+04  0.17496850749E+04  0.00000000000E+00 0. -1.
         -1   -1    0    0    0  501 -0.00000000000E+00 -0.00000000000E+00 -0.81798799052E+03  0.81798799052E+03  0.00000000000E+00 0.  1.
         23    2    1    2    0    0  0.24802688970E+03 -0.95927406509E+03  0.11822045648E+03  0.10018754185E+04  0.89745239402E+02 0.  0.
        254    2    1    2    0    0 -0.24802688970E+03  0.95927406509E+03  0.81347662785E+03  0.15657976468E+04  0.89902946380E+03 0.  0.
        -24    2    4    4    0    0 -0.45160232253E+03  0.10031876695E+04  0.75141627206E+03  0.13347766319E+04  0.81682832853E+02 0.  0.
         24    2    4    4    0    0  0.20357543283E+03 -0.43913604388E+02  0.62060355789E+02  0.23102101495E+03  0.78408290906E+02 0.  0.
         11    1    3    3    0    0  0.85478010417E+02 -0.47988738000E+03  0.32998781116E+02  0.48855635018E+03  0.00000000000E+00 0.  1.
        -11    1    3    3    0    0  0.16254887928E+03 -0.47938668509E+03  0.85221675367E+02  0.51331906837E+03  0.00000000000E+00 0. -1.
          2    1    6    6  502    0  0.19253587191E+03 -0.61186969948E+02  0.55901157123E+02  0.20961595033E+03  0.00000000000E+00 0. -1.
          3    1    5    5  503    0 -0.32005639483E+03  0.72229696607E+03  0.49455498293E+03  0.93205881478E+03  0.00000000000E+00 0. -1.
         -4    1    5    5    0  503 -0.13154592770E+03  0.28089070341E+03  0.25686128913E+03  0.40271781710E+03  0.00000000000E+00 0.  1.
         -1    1    6    6    0  502  0.11039560923E+02  0.17273365561E+02  0.61591986656E+01  0.21405064620E+02  0.00000000000E+00 0.  1.
<mgrwt>
<rscale>  0 0.23926733E+04</rscale>
<asrwt>0</asrwt>
<pdfrwt beam="1">  1        1 0.26918232E+00 0.23926733E+04</pdfrwt>
<pdfrwt beam="2">  1       -1 0.12584431E+00 0.23926733E+04</pdfrwt>
<totfact> 0.21751142E+00</totfact>
</mgrwt>
</event>
<event>
12    1  0.1980523E-007  0.1830492E+04  0.7818608E-02  0.8690250E-01
         -1   -1    0    0    0  501 -0.00000000000E+00  0.00000000000E+00  0.46772347576E+03  0.46772347576E+03  0.00000000000E+00 0.  1.
          1   -1    0    0  501    0  0.00000000000E+00 -0.00000000000E+00 -0.17909619007E+04  0.17909619007E+04  0.00000000000E+00 0. -1.
         23    2    1    2    0    0  0.16583093638E+03  0.65113825273E+03 -0.68730615475E+03  0.96736568454E+03  0.10920482417E+03 0.  0.
        254    2    1    2    0    0 -0.16583093638E+03 -0.65113825273E+03 -0.63593227022E+03  0.12913196920E+04  0.90089720330E+03 0.  0.
        -24    2    4    4    0    0 -0.82701802405E+02 -0.86895671451E+03 -0.48056184368E+03  0.99955213788E+03  0.78990068500E+02 0.  0.
         24    2    4    4    0    0 -0.83129133970E+02  0.21781846178E+03 -0.15537042654E+03  0.29176755409E+03  0.81443237709E+02 0.  0.
         13    1    3    3    0    0  0.10649089031E+03  0.55480827385E+03 -0.53886242131E+03  0.78072097419E+03  0.00000000000E+00 0.  1.
        -13    1    3    3    0    0  0.59340046066E+02  0.96329978889E+02 -0.14844373344E+03  0.18664471034E+03  0.00000000000E+00 0. -1.
          2    1    6    6  502    0 -0.29597903999E+02  0.29279321120E+02  0.47186041795E-01  0.41633121345E+02  0.00000000000E+00 0. -1.
          3    1    5    5  503    0  0.13104112813E+02 -0.48431437538E+02 -0.22923369625E+02  0.55161606119E+02  0.00000000000E+00 0. -1.
         -4    1    5    5    0  503 -0.95805915219E+02 -0.82052527697E+03 -0.45763847405E+03  0.94439053176E+03  0.00000000000E+00 0.  1.
         -1    1    6    6    0  502 -0.53531229971E+02  0.18853914066E+03 -0.15541761258E+03  0.25013443274E+03  0.00000000000E+00 0.  1.
<mgrwt>
<rscale>  0 0.18304917E+04</rscale>
<asrwt>0</asrwt>
<pdfrwt beam="1">  1        1 0.27553260E+00 0.18304917E+04</pdfrwt>
<pdfrwt beam="2">  1       -1 0.71957458E-01 0.18304917E+04</pdfrwt>
<totfact> 0.75791934E+00</totfact>
</mgrwt>
</event>
<event>
12    1  0.1980523E-007  0.3094106E+04  0.7818608E-02  0.8217357E-01
          1   -1    0    0  501    0  0.00000000000E+00  0.00000000000E+00  0.23748037301E+04  0.23748037301E+04  0.00000000000E+00 0. -1.
         -1   -1    0    0    0  501 -0.00000000000E+00 -0.00000000000E+00 -0.10078190578E+04  0.10078190578E+04  0.00000000000E+00 0.  1.
         23    2    1    2    0    0  0.46951139467E+02 -0.91728766405E+03  0.18029717215E+04  0.20254835897E+04  0.90860748379E+02 0.  0.
        254    2    1    2    0    0 -0.46951139467E+02  0.91728766405E+03 -0.43598704908E+03  0.13571391982E+04  0.89895552069E+03 0.  0.
        -24    2    4    4    0    0  0.16717526264E+03 -0.11917078219E+03 -0.11411783040E+03  0.24805395024E+03  0.79741076295E+02 0.  0.
         24    2    4    4    0    0 -0.21412640211E+03  0.10364584462E+04 -0.32186921868E+03  0.11090852479E+04  0.79837750554E+02 0.  0.
         13    1    3    3    0    0 -0.21114292441E+02 -0.47382856655E+03  0.91976540578E+03  0.10348563792E+04  0.00000000000E+00 0.  1.
        -13    1    3    3    0    0  0.68065431909E+02 -0.44345909750E+03  0.88320631568E+03  0.99062721052E+03  0.00000000000E+00 0. -1.
          2    1    6    6  502    0 -0.19684902833E+03  0.96294111048E+03 -0.31966382032E+03  0.10335328153E+04  0.00000000000E+00 0. -1.
          1    1    5    5  503    0  0.12578020947E+03 -0.10094638407E+03 -0.12189449635E+03  0.20216107883E+03  0.00000000000E+00 0. -1.
         -2    1    5    5    0  503  0.41395053166E+02 -0.18224398118E+02  0.77766659479E+01  0.45892871414E+02  0.00000000000E+00 0.  1.
         -1    1    6    6    0  502 -0.17277373781E+02  0.73517335764E+02 -0.22053983585E+01  0.75552432684E+02  0.00000000000E+00 0.  1.
<mgrwt>
<rscale>  0 0.30941057E+04</rscale>
<asrwt>0</asrwt>
<pdfrwt beam="1">  1        1 0.36535442E+00 0.30941057E+04</pdfrwt>
<pdfrwt beam="2">  1       -1 0.15504909E+00 0.30941057E+04</pdfrwt>
<totfact> 0.44498633E-01</totfact>
</mgrwt>
</event>
<event>
12    1  0.1980523E-007  0.1686197E+04  0.7818608E-02  0.8769276E-01
         -2   -1    0    0    0  501 -0.00000000000E+00  0.00000000000E+00  0.92314474121E+03  0.92314474121E+03  0.00000000000E+00 0.  1.
          2   -1    0    0  501    0  0.00000000000E+00 -0.00000000000E+00 -0.76999350972E+03  0.76999350972E+03  0.00000000000E+00 0. -1.
         23    2    1    2    0    0  0.37495154178E+03 -0.43869263754E+03  0.21163314500E+03  0.62192686522E+03  0.94681300722E+02 0.  0.
        254    2    1    2    0    0 -0.37495154178E+03  0.43869263754E+03 -0.58481913505E+02  0.10712113857E+04  0.90057415560E+03 0.  0.
        -24    2    4    4    0    0 -0.53261224400E+03  0.61428895355E+03 -0.84856915949E+01  0.81698043515E+03  0.79738971325E+02 0.  0.
         24    2    4    4    0    0  0.15766070222E+03 -0.17559631601E+03 -0.49996221910E+02  0.25423095055E+03  0.80266996893E+02 0.  0.
         13    1    3    3    0    0  0.18374414270E+03 -0.28585278561E+03  0.11476350581E+03  0.35867030443E+03  0.00000000000E+00 0. -1.
        -13    1    3    3    0    0  0.19120739908E+03 -0.15283985193E+03  0.96869639190E+02  0.26325656079E+03  0.00000000000E+00 0.  1.
          4    1    6    6  502    0 -0.73132150421E+01 -0.48324257650E+00  0.29305328607E+01  0.78933301266E+01  0.00000000000E+00 0. -1.
          1    1    5    5  503    0 -0.77504655448E+01  0.20583939060E+02 -0.10869827867E+02  0.24534086925E+02  0.00000000000E+00 0. -1.
         -2    1    5    5    0  503 -0.52486177846E+03  0.59370501449E+03  0.23841362716E+01  0.79244634823E+03  0.00000000000E+00 0.  1.
         -3    1    6    6    0  502  0.16497391726E+03 -0.17511307344E+03 -0.52926754771E+02  0.24633762042E+03  0.00000000000E+00 0.  1.
<mgrwt>
<rscale>  0 0.16861974E+04</rscale>
<asrwt>0</asrwt>
<pdfrwt beam="1">  1        2 0.11846054E+00 0.16861974E+04</pdfrwt>
<pdfrwt beam="2">  1       -2 0.14202227E+00 0.16861974E+04</pdfrwt>
<totfact> 0.11937208E+01</totfact>
</mgrwt>
</event>
<event>
12    1  0.1980523E-007  0.2955651E+04  0.7818608E-02  0.8256509E-01
          1   -1    0    0  501    0  0.00000000000E+00  0.00000000000E+00  0.14488653641E+04  0.14488653641E+04  0.00000000000E+00 0. -1.
         -1   -1    0    0    0  501 -0.00000000000E+00 -0.00000000000E+00 -0.15073649333E+04  0.15073649333E+04  0.00000000000E+00 0.  1.
         23    2    1    2    0    0  0.59044720370E+03 -0.30321640468E+03  0.11368443084E+04  0.13197163764E+04  0.93103405247E+02 0.  0.
        254    2    1    2    0    0 -0.59044720370E+03  0.30321640468E+03 -0.11953438776E+04  0.16365139210E+04  0.89931237037E+03 0.  0.
        -24    2    4    4    0    0 -0.10811420517E+03 -0.15597550726E+03 -0.86449492640E+03  0.88866222942E+03  0.79699686284E+02 0.  0.
         24    2    4    4    0    0 -0.48233299853E+03  0.45919191195E+03 -0.33084895118E+03  0.74785169158E+03  0.79490821033E+02 0.  0.
         13    1    3    3    0    0  0.23645481275E+03 -0.71671048628E+02  0.43398104390E+03  0.49938678812E+03  0.00000000000E+00 0. -1.
        -13    1    3    3    0    0  0.35399239095E+03 -0.23154535605E+03  0.70286326454E+03  0.82032958827E+03  0.00000000000E+00 0.  1.
          2    1    6    6  502    0 -0.41986825260E+03  0.42279845201E+03 -0.31437201977E+03  0.67370442138E+03  0.00000000000E+00 0. -1.
          3    1    5    5  503    0 -0.10749101739E+03 -0.13135138049E+03 -0.82372224951E+03  0.84102666326E+03  0.00000000000E+00 0. -1.
         -4    1    5    5    0  503 -0.62318778637E+00 -0.24624126771E+02 -0.40772676887E+02  0.47635566154E+02  0.00000000000E+00 0.  1.
         -1    1    6    6    0  502 -0.62464745923E+02  0.36393459932E+02 -0.16476931417E+02  0.74147270199E+02  0.00000000000E+00 0.  1.
<mgrwt>
<rscale>  0 0.29556514E+04</rscale>
<asrwt>0</asrwt>
<pdfrwt beam="1">  1        1 0.22290236E+00 0.29556514E+04</pdfrwt>
<pdfrwt beam="2">  1       -1 0.23190230E+00 0.29556514E+04</pdfrwt>
<totfact> 0.55618247E-01</totfact>
</mgrwt>
</event>
<event>
12    1  0.1980523E-007  0.1245593E+04  0.7818608E-02  0.9073859E-01
          1   -1    0    0  501    0  0.00000000000E+00  0.00000000000E+00  0.14608417215E+04  0.14608417215E+04  0.00000000000E+00 0. -1.
         -1   -1    0    0    0  501 -0.00000000000E+00 -0.00000000000E+00 -0.26551490227E+03  0.26551490227E+03  0.00000000000E+00 0.  1.
         23    2    1    2    0    0  0.17196338473E+03 -0.77499917295E+02 -0.99389167891E+01  0.21070854142E+03  0.93389852183E+02 0.  0.
        254    2    1    2    0    0 -0.17196338473E+03  0.77499917295E+02  0.12052657360E+04  0.15156480823E+04  0.89941423840E+03 0.  0.
        -24    2    4    4    0    0  0.21880627660E+03  0.32896245822E+03  0.32759715339E+03  0.51931950043E+03  0.79248741396E+02 0.  0.
         24    2    4    4    0    0 -0.39076966134E+03 -0.25146254093E+03  0.87766858262E+03  0.99632858192E+03  0.80213243964E+02 0.  0.
         11    1    3    3    0    0  0.55172925536E+02  0.13505708266E+01  0.31857672656E+02  0.63724305103E+02  0.00000000000E+00 0. -1.
        -11    1    3    3    0    0  0.11679045920E+03 -0.78850488122E+02 -0.41796589445E+02  0.14698423632E+03  0.00000000000E+00 0.  1.
          2    1    6    6  502    0 -0.12294938026E+03 -0.10346635437E+03  0.37299943134E+03  0.40614087749E+03  0.00000000000E+00 0. -1.
          1    1    5    5  503    0  0.15124699296E+03  0.20698983205E+03  0.16384223310E+03  0.30424450825E+03  0.00000000000E+00 0. -1.
         -2    1    5    5    0  503  0.67559283643E+02  0.12197262618E+03  0.16375492029E+03  0.21507499218E+03  0.00000000000E+00 0.  1.
         -1    1    6    6    0  502 -0.26782028108E+03 -0.14799618656E+03  0.50466915129E+03  0.59018770443E+03  0.00000000000E+00 0.  1.
<mgrwt>
<rscale>  0 0.12455926E+04</rscale>
<asrwt>0</asrwt>
<pdfrwt beam="1">  1        1 0.22474488E+00 0.12455926E+04</pdfrwt>
<pdfrwt beam="2">  1       -1 0.40848447E-01 0.12455926E+04</pdfrwt>
<totfact> 0.40257492E+01</totfact>
</mgrwt>
</event>
<event>
12    1  0.1980523E-007  0.1493266E+04  0.7818608E-02  0.8888944E-01
         -1   -1    0    0    0  501 -0.00000000000E+00  0.00000000000E+00  0.11587926282E+04  0.11587926282E+04  0.00000000000E+00 0.  1.
          1   -1    0    0  501    0  0.00000000000E+00 -0.00000000000E+00 -0.48107014124E+03  0.48107014124E+03  0.00000000000E+00 0. -1.
         23    2    1    2    0    0  0.36318752211E+03 -0.28618699804E+03  0.30971003745E+03  0.56365384948E+03  0.89315064068E+02 0.  0.
        254    2    1    2    0    0 -0.36318752211E+03  0.28618699804E+03  0.36801244951E+03  0.10762089200E+04  0.89943554652E+03 0.  0.
        -24    2    4    4    0    0 -0.19107935297E+03 -0.28666727542E+03 -0.30695756599E+02  0.35295584077E+03  0.70328871307E+02 0.  0.
         24    2    4    4    0    0 -0.17210816914E+03  0.57285427346E+03  0.39870820611E+03  0.72325307918E+03  0.79646358523E+02 0.  0.
         11    1    3    3    0    0  0.51788125793E+02 -0.74505378629E+02  0.89519154770E+02  0.12746270234E+03  0.00000000000E+00 0.  1.
        -11    1    3    3    0    0  0.31139939631E+03 -0.21168161941E+03  0.22019088268E+03  0.43619114713E+03  0.00000000000E+00 0. -1.
          2    1    6    6  502    0 -0.15728849607E+03  0.55749132716E+03  0.36948033318E+03  0.68706038124E+03  0.00000000000E+00 0. -1.
          1    1    5    5  503    0 -0.10965297973E+03 -0.19881366074E+03 -0.47600106198E+02  0.23198365842E+03  0.00000000000E+00 0. -1.
         -2    1    5    5    0  503 -0.81426373234E+02 -0.87853614671E+02  0.16904349598E+02  0.12097218236E+03  0.00000000000E+00 0.  1.
         -1    1    6    6    0  502 -0.14819673067E+02  0.15362946293E+02  0.29227872928E+02  0.36192697944E+02  0.00000000000E+00 0.  1.
<mgrwt>
<rscale>  0 0.14932656E+04</rscale>
<asrwt>0</asrwt>
<pdfrwt beam="1">  1        1 0.74010791E-01 0.14932656E+04</pdfrwt>
<pdfrwt beam="2">  1       -1 0.17827579E+00 0.14932656E+04</pdfrwt>
<totfact> 0.96873319E+00</totfact>
</mgrwt>
</event>
<event>
12    1  0.1980523E-007  0.1654355E+04  0.7818608E-02  0.8787834E-01
          2   -1    0    0  501    0  0.00000000000E+00  0.00000000000E+00  0.92084496776E+03  0.92084496776E+03  0.00000000000E+00 0. -1.
         -2   -1    0    0    0  501 -0.00000000000E+00 -0.00000000000E+00 -0.74303814888E+03  0.74303814888E+03  0.00000000000E+00 0.  1.
         23    2    1    2    0    0  0.55567300597E+03  0.14333368081E+03  0.12556456271E+03  0.59423198877E+03  0.89600019218E+02 0.  0.
        254    2    1    2    0    0 -0.55567300597E+03 -0.14333368081E+03  0.52242256182E+02  0.10696511279E+04  0.90116993314E+03 0.  0.
        -24    2    4    4    0    0 -0.28400205049E+03 -0.19211741545E+03 -0.40012018451E+03  0.53309227634E+03  0.80777144295E+02 0.  0.
         24    2    4    4    0    0 -0.27167095549E+03  0.48783734633E+02  0.45236244070E+03  0.53655885153E+03  0.84134788192E+02 0.  0.
         11    1    3    3    0    0  0.46502335829E+03  0.14018628180E+03  0.13196322144E+03  0.50330230396E+03  0.00000000000E+00 0. -1.
        -11    1    3    3    0    0  0.90649647682E+02  0.31473990178E+01 -0.63986587310E+01  0.90929684807E+02  0.00000000000E+00 0.  1.
          4    1    6    6  502    0 -0.15785810100E+02 -0.93494740927E+01  0.69923202806E+01  0.19634077753E+02  0.00000000000E+00 0. -1.
          3    1    5    5  503    0 -0.73504441662E+02 -0.52374898271E+02 -0.16440900868E+03  0.18755360580E+03  0.00000000000E+00 0. -1.
         -4    1    5    5    0  503 -0.21049760882E+03 -0.13974251718E+03 -0.23571117584E+03  0.34553867055E+03  0.00000000000E+00 0.  1.
         -3    1    6    6    0  502 -0.25588514539E+03  0.58133208726E+02  0.44537012041E+03  0.51692477378E+03  0.00000000000E+00 0.  1.
<mgrwt>
<rscale>  0 0.16543554E+04</rscale>
<asrwt>0</asrwt>
<pdfrwt beam="1">  1        2 0.14166846E+00 0.16543554E+04</pdfrwt>
<pdfrwt beam="2">  1       -2 0.11431356E+00 0.16543554E+04</pdfrwt>
<totfact> 0.16221546E+01</totfact>
</mgrwt>
</event>
<event>
12    1  0.1980523E-007  0.2762172E+04  0.7818608E-02  0.8315110E-01
          1   -1    0    0  501    0  0.00000000000E+00  0.00000000000E+00  0.11828899843E+04  0.11828899843E+04  0.00000000000E+00 0. -1.
         -1   -1    0    0    0  501 -0.00000000000E+00 -0.00000000000E+00 -0.16124904694E+04  0.16124904694E+04  0.00000000000E+00 0.  1.
         23    2    1    2    0    0 -0.89507357305E+03 -0.84315231806E+03 -0.26947312005E+03  0.12622177126E+04  0.92278160131E+02 0.  0.
        254    2    1    2    0    0  0.89507357305E+03  0.84315231806E+03 -0.16012736507E+03  0.15331627411E+04  0.90160117842E+03 0.  0.
        -24    2    4    4    0    0 -0.65608092756E+02  0.27711242081E+03  0.20219772116E+03  0.35794081770E+03  0.78370880638E+02 0.  0.
         24    2    4    4    0    0  0.96068166581E+03  0.56603989724E+03 -0.36232508623E+03  0.11752219234E+04  0.80973284202E+02 0.  0.
         11    1    3    3    0    0 -0.32175248760E+03 -0.25595101528E+03 -0.62648353899E+02  0.41588508238E+03  0.00000000000E+00 0. -1.
        -11    1    3    3    0    0 -0.57332108546E+03 -0.58720130278E+03 -0.20682476615E+03  0.84633263018E+03  0.00000000000E+00 0.  1.
          2    1    6    6  502    0  0.25079062145E+03  0.10749926878E+03 -0.90478650749E+02  0.28746898065E+03  0.00000000000E+00 0. -1.
          1    1    5    5  503    0  0.12327503152E+02  0.86253513363E+01  0.51314549120E+01  0.15896409945E+02  0.00000000000E+00 0. -1.
         -2    1    5    5    0  503 -0.77935595908E+02  0.26848706947E+03  0.19706626625E+03  0.34204440776E+03  0.00000000000E+00 0.  1.
         -1    1    6    6    0  502  0.70989104436E+03  0.45854062847E+03 -0.27184643548E+03  0.88775294271E+03  0.00000000000E+00 0.  1.
<mgrwt>
<rscale>  0 0.27621722E+04</rscale>
<asrwt>0</asrwt>
<pdfrwt beam="1">  1        1 0.18198308E+00 0.27621722E+04</pdfrwt>
<pdfrwt beam="2">  1       -1 0.24807546E+00 0.27621722E+04</pdfrwt>
<totfact> 0.68559611E-01</totfact>
</mgrwt>
</event>
<event>
12    1  0.1980523E-007  0.5340105E+04  0.7818608E-02  0.7778082E-01
          2   -1    0    0  501    0  0.00000000000E+00  0.00000000000E+00  0.22715770579E+04  0.22715770579E+04  0.00000000000E+00 0. -1.
         -2   -1    0    0    0  501 -0.00000000000E+00 -0.00000000000E+00 -0.31384277557E+04  0.31384277557E+04  0.00000000000E+00 0.  1.
         23    2    1    2    0    0  0.86954150354E+03  0.24400071343E+04 -0.56218742354E+03  0.26520504508E+04  0.87061199681E+02 0.  0.
        254    2    1    2    0    0 -0.86954150354E+03 -0.24400071343E+04 -0.30466327421E+03  0.27579543628E+04  0.89652401803E+03 0.  0.
        -24    2    4    4    0    0 -0.81613103443E+03 -0.24230132884E+04 -0.13260618159E+03  0.25614690692E+04  0.80474420442E+02 0.  0.
         24    2    4    4    0    0 -0.53410469113E+02 -0.16993845922E+02 -0.17205709262E+03  0.19648529356E+03  0.76559509240E+02 0.  0.
         11    1    3    3    0    0  0.28817872153E+03  0.88891505804E+03 -0.23552435198E+03  0.96368494661E+03  0.00000000000E+00 0. -1.
        -11    1    3    3    0    0  0.58136278202E+03  0.15510920762E+04 -0.32666307155E+03  0.16883655041E+04  0.00000000000E+00 0.  1.
          4    1    6    6  502    0 -0.41703141298E+02 -0.38456410178E+02 -0.15889863224E+03  0.16872113918E+03  0.00000000000E+00 0. -1.
          3    1    5    5  503    0 -0.46114054549E+03 -0.13259274235E+04 -0.35149220828E+02  0.14042683515E+04  0.00000000000E+00 0. -1.
         -2    1    5    5    0  503 -0.35499048894E+03 -0.10970858648E+04 -0.97456960765E+02  0.11572007178E+04  0.00000000000E+00 0.  1.
         -3    1    6    6    0  502 -0.11707327814E+02  0.21462564255E+02 -0.13158460378E+02  0.27764154381E+02  0.00000000000E+00 0.  1.
<mgrwt>
<rscale>  0 0.53401051E+04</rscale>
<asrwt>0</asrwt>
<pdfrwt beam="1">  1        2 0.34947340E+00 0.53401051E+04</pdfrwt>
<pdfrwt beam="2">  1       -2 0.48283503E+00 0.53401051E+04</pdfrwt>
<totfact> 0.71077102E-03</totfact>
</mgrwt>
</event>
<event>
12    1  0.1980523E-007  0.1280929E+04  0.7818608E-02  0.9044827E-01
         -2   -1    0    0    0  501 -0.00000000000E+00  0.00000000000E+00  0.23471241767E+03  0.23471241767E+03  0.00000000000E+00 0.  1.
          2   -1    0    0  501    0  0.00000000000E+00 -0.00000000000E+00 -0.17476484425E+04  0.17476484425E+04  0.00000000000E+00 0. -1.
         23    2    1    2    0    0 -0.16720100379E+03  0.28888507858E+03 -0.36471334754E+03  0.50271828975E+03  0.91099334110E+02 0.  0.
        254    2    1    2    0    0  0.16720100379E+03 -0.28888507858E+03 -0.11482226773E+04  0.14796425704E+04  0.87150218318E+03 0.  0.
        -24    2    4    4    0    0  0.16315491130E+02 -0.58140637701E+03 -0.81602222646E+03  0.10052919526E+04  0.80125310934E+02 0.  0.
         24    2    4    4    0    0  0.15088551266E+03  0.29252129843E+03 -0.33220045081E+03  0.47435061780E+03  0.79474657077E+02 0.  0.
         13    1    3    3    0    0 -0.40718915482E+02  0.40679728841E+02 -0.11502583976E+03  0.12862275937E+03  0.00000000000E+00 0. -1.
        -13    1    3    3    0    0 -0.12648208831E+03  0.24820534974E+03 -0.24968750778E+03  0.37409553037E+03  0.00000000000E+00 0.  1.
          4    1    6    6  502    0  0.96776228185E+02  0.15361614967E+03 -0.23258593064E+03  0.29505893464E+03  0.00000000000E+00 0. -1.
          3    1    5    5  503    0  0.15248895971E+02 -0.27416292402E+03 -0.31826255952E+03  0.42034378136E+03  0.00000000000E+00 0. -1.
         -4    1    5    5    0  503  0.10665951584E+01 -0.30724345298E+03 -0.49775966694E+03  0.58494817126E+03  0.00000000000E+00 0.  1.
         -3    1    6    6    0  502  0.54109284477E+02  0.13890514876E+03 -0.99614520173E+02  0.17929168315E+03  0.00000000000E+00 0.  1.
<mgrwt>
<rscale>  0 0.12809290E+04</rscale>
<asrwt>0</asrwt>
<pdfrwt beam="1">  1        2 0.26886899E+00 0.12809290E+04</pdfrwt>
<pdfrwt beam="2">  1       -2 0.36109602E-01 0.12809290E+04</pdfrwt>
<totfact> 0.65330470E+01</totfact>
</mgrwt>
</event>
<event>
12    1  0.1980523E-007  0.2421269E+04  0.7818608E-02  0.8431583E-01
          2   -1    0    0  501    0  0.00000000000E+00  0.00000000000E+00  0.23014215428E+04  0.23014215428E+04  0.00000000000E+00 0.  1.
         -2   -1    0    0    0  501 -0.00000000000E+00 -0.00000000000E+00 -0.63683961676E+03  0.63683961676E+03  0.00000000000E+00 0. -1.
         23    2    1    2    0    0  0.88458671077E+03 -0.49333431830E+03  0.10088033882E+04  0.14324295053E+04  0.91091234951E+02 0.  0.
        254    2    1    2    0    0 -0.88458671077E+03  0.49333431830E+03  0.65577853786E+03  0.15058316543E+04  0.90089460086E+03 0.  0.
        -24    2    4    4    0    0 -0.47323308978E+03  0.23433054938E+02  0.72788034620E+03  0.87211876884E+03  0.79263379000E+02 0.  0.
         24    2    4    4    0    0 -0.41135362099E+03  0.46990126336E+03 -0.72101808331E+02  0.63371288546E+03  0.79839536690E+02 0.  0.
         11    1    3    3    0    0  0.74300532914E+03 -0.41503266822E+03  0.79774329033E+03  0.11664919169E+04  0.00000000000E+00 0. -1.
        -11    1    3    3    0    0  0.14158138164E+03 -0.78301650082E+02  0.21106009784E+03  0.26593758841E+03  0.00000000000E+00 0.  1.
          2    1    6    6  502    0 -0.96882490246E+02  0.69088270002E+02  0.12871261586E+01  0.11900026328E+03  0.00000000000E+00 0. -1.
          1    1    5    5  503    0 -0.20203917328E+03  0.53992688514E+01  0.38255943586E+03  0.43266696386E+03  0.00000000000E+00 0. -1.
         -2    1    5    5    0  503 -0.27119391650E+03  0.18033786086E+02  0.34532091033E+03  0.43945180498E+03  0.00000000000E+00 0.  1.
         -1    1    6    6    0  502 -0.31447113074E+03  0.40081299336E+03 -0.73388934490E+02  0.51471262217E+03  0.00000000000E+00 0.  1.
<mgrwt>
<rscale>  0 0.24212694E+04</rscale>
<asrwt>0</asrwt>
<pdfrwt beam="1">  1        2 0.35406485E+00 0.24212694E+04</pdfrwt>
<pdfrwt beam="2">  1       -2 0.97975327E-01 0.24212694E+04</pdfrwt>
<totfact> 0.35209653E+00</totfact>
</mgrwt>
</event>
<event>
12    1  0.1980523E-007  0.2524782E+04  0.7818608E-02  0.8394210E-01
         -2   -1    0    0    0  501 -0.00000000000E+00  0.00000000000E+00  0.54909305127E+03  0.54909305127E+03  0.00000000000E+00 0.  1.
          2   -1    0    0  501    0  0.00000000000E+00 -0.00000000000E+00 -0.29022962316E+04  0.29022962316E+04  0.00000000000E+00 0. -1.
         23    2    1    2    0    0  0.72984467603E+03  0.81710932259E+03 -0.11578477064E+04  0.15966643990E+04  0.91569622059E+02 0.  0.
        254    2    1    2    0    0 -0.72984467603E+03 -0.81710932259E+03 -0.11953554740E+04  0.18547248839E+04  0.90043810978E+03 0.  0.
        -24    2    4    4    0    0 -0.89726360115E+03 -0.63085002383E+03 -0.72843426300E+03  0.13191909585E+04  0.81207062699E+02 0.  0.
         24    2    4    4    0    0  0.16741892512E+03 -0.18625929876E+03 -0.46692121096E+03  0.53553392535E+03  0.77843079910E+02 0.  0.
         11    1    3    3    0    0  0.13910226820E+03  0.18957968177E+03 -0.29334292439E+03  0.37595208212E+03  0.00000000000E+00 0. -1.
        -11    1    3    3    0    0  0.59074240783E+03  0.62752964082E+03 -0.86450478197E+03  0.12207123169E+04  0.00000000000E+00 0.  1.
          4    1    6    6  502    0  0.14125793245E+03 -0.16368613847E+03 -0.33152099100E+03  0.39579429365E+03  0.00000000000E+00 0. -1.
          1    1    5    5  503    0 -0.74458541913E+03 -0.48665769095E+03 -0.57673005571E+03  0.10601229701E+04  0.00000000000E+00 0. -1.
         -2    1    5    5    0  503 -0.15267818202E+03 -0.14419233288E+03 -0.15170420729E+03  0.25906798844E+03  0.00000000000E+00 0.  1.
         -3    1    6    6    0  502  0.26160992669E+02 -0.22573160289E+02 -0.13540021996E+03  0.13973963170E+03  0.00000000000E+00 0.  1.
<mgrwt>
<rscale>  0 0.25247817E+04</rscale>
<asrwt>0</asrwt>
<pdfrwt beam="1">  1        2 0.44650710E+00 0.25247817E+04</pdfrwt>
<pdfrwt beam="2">  1       -2 0.84475856E-01 0.25247817E+04</pdfrwt>
<totfact> 0.21780644E+00</totfact>
</mgrwt>
</event>
<event>
12    1  0.1980523E-007  0.2034517E+04  0.7818608E-02  0.8590651E-01
         -1   -1    0    0    0  501 -0.00000000000E+00  0.00000000000E+00  0.10290311668E+04  0.10290311668E+04  0.00000000000E+00 0.  1.
          1   -1    0    0  501    0  0.00000000000E+00 -0.00000000000E+00 -0.10056201436E+04  0.10056201436E+04  0.00000000000E+00 0. -1.
         23    2    1    2    0    0 -0.58438304587E+03 -0.38234279534E+03  0.43054292357E+03  0.82545585289E+03  0.91217315179E+02 0.  0.
        254    2    1    2    0    0  0.58438304587E+03  0.38234279534E+03 -0.40713190036E+03  0.12091954576E+04  0.89928177612E+03 0.  0.
        -24    2    4    4    0    0 -0.78121619137E+01 -0.18810736554E+03  0.11148562338E+03  0.23305710968E+03  0.80256845856E+02 0.  0.
         24    2    4    4    0    0  0.59219520779E+03  0.57045016088E+03 -0.51861752374E+03  0.97613834789E+03  0.88166819741E+02 0.  0.
         11    1    3    3    0    0 -0.17849511680E+03 -0.80905557841E+02  0.15359218746E+03  0.24899151805E+03  0.00000000000E+00 0. -1.
        -11    1    3    3    0    0 -0.40588792907E+03 -0.30143723750E+03  0.27695073611E+03  0.57646433485E+03  0.00000000000E+00 0.  1.
          4    1    6    6  502    0  0.58935419148E+03  0.56601517819E+03 -0.52222180890E+03  0.96975623878E+03  0.00000000000E+00 0. -1.
          3    1    5    5  503    0  0.28570656965E+02 -0.14383132506E+03  0.71241539655E+02  0.16303094639E+03  0.00000000000E+00 0. -1.
         -4    1    5    5    0  503 -0.36382818879E+02 -0.44276040483E+02  0.40244083729E+02  0.70026163293E+02  0.00000000000E+00 0.  1.
         -3    1    6    6    0  502  0.28410163082E+01  0.44349826900E+01  0.36042851605E+01  0.63821091061E+01  0.00000000000E+00 0.  1.
<mgrwt>
<rscale>  0 0.20345166E+04</rscale>
<asrwt>0</asrwt>
<pdfrwt beam="1">  1        1 0.15471079E+00 0.20345166E+04</pdfrwt>
<pdfrwt beam="2">  1       -1 0.15831249E+00 0.20345166E+04</pdfrwt>
<totfact> 0.41702806E+00</totfact>
</mgrwt>
</event>
<event>
12    1  0.1980523E-007  0.1654008E+04  0.7818608E-02  0.8788039E-01
         -2   -1    0    0    0  501 -0.00000000000E+00  0.00000000000E+00  0.89815866162E+03  0.89815866162E+03  0.00000000000E+00 0. -1.
          2   -1    0    0  501    0  0.00000000000E+00 -0.00000000000E+00 -0.76148663677E+03  0.76148663677E+03  0.00000000000E+00 0.  1.
         23    2    1    2    0    0 -0.54696233558E+03 -0.52853548673E+02 -0.13237072893E+03  0.57094618802E+03  0.80599290255E+02 0.  0.
        254    2    1    2    0    0  0.54696233558E+03  0.52853548673E+02  0.26904275378E+03  0.10886991104E+04  0.90051121892E+03 0.  0.
        -24    2    4    4    0    0  0.64878441557E+03 -0.18299069670E+03 -0.39068758543E+02  0.67997381351E+03  0.80194801567E+02 0.  0.
         24    2    4    4    0    0 -0.10182207999E+03  0.23584424537E+03  0.30811151232E+03  0.40872529685E+03  0.78316155486E+02 0.  0.
         13    1    3    3    0    0 -0.24697002689E+03 -0.21806608467E+02 -0.18677050926E+02  0.24863337384E+03  0.00000000000E+00 0. -1.
        -13    1    3    3    0    0 -0.29999230869E+03 -0.31046940205E+02 -0.11369367801E+03  0.32231281419E+03  0.00000000000E+00 0.  1.
          4    1    6    6  502    0 -0.56819717559E+01  0.76039444867E+02  0.13074225927E+03  0.15135329642E+03  0.00000000000E+00 0. -1.
          1    1    5    5  503    0  0.38317605735E+03 -0.12919766298E+03 -0.57056927118E+02  0.40837656639E+03  0.00000000000E+00 0. -1.
         -2    1    5    5    0  503  0.26560835822E+03 -0.53793033725E+02  0.17988168575E+02  0.27159724712E+03  0.00000000000E+00 0.  1.
         -3    1    6    6    0  502 -0.96140108236E+02  0.15980480051E+03  0.17736925306E+03  0.25737200043E+03  0.00000000000E+00 0.  1.
<mgrwt>
<rscale>  0 0.16540082E+04</rscale>
<asrwt>0</asrwt>
<pdfrwt beam="1">  1        2 0.11715179E+00 0.16540082E+04</pdfrwt>
<pdfrwt beam="2">  1       -2 0.13817826E+00 0.16540082E+04</pdfrwt>
<totfact> 0.13041352E+01</totfact>
</mgrwt>
</event>
<event>
12    1  0.1980523E-007  0.1482230E+04  0.7818608E-02  0.8896357E-01
         -2   -1    0    0    0  501 -0.00000000000E+00  0.00000000000E+00  0.41014333021E+03  0.41014333021E+03  0.00000000000E+00 0.  1.
          2   -1    0    0  501    0  0.00000000000E+00 -0.00000000000E+00 -0.13391694555E+04  0.13391694555E+04  0.00000000000E+00 0. -1.
         23    2    1    2    0    0 -0.45221617850E+03 -0.69171873682E+02 -0.23279840770E+03  0.52163939194E+03  0.92888838918E+02 0.  0.
        254    2    1    2    0    0  0.45221617850E+03  0.69171873682E+02 -0.69622771755E+03  0.12276733937E+04  0.90175645649E+03 0.  0.
        -24    2    4    4    0    0  0.15268087191E+03  0.42381147616E+03 -0.10234712822E+03  0.46949107910E+03  0.83781398449E+02 0.  0.
         24    2    4    4    0    0  0.29953530658E+03 -0.35463960248E+03 -0.59388058933E+03  0.75818231464E+03  0.81581985293E+02 0.  0.
         13    1    3    3    0    0 -0.36152542895E+03 -0.78373654418E+02 -0.15237313495E+03  0.40007578999E+03  0.00000000000E+00 0.  1.
        -13    1    3    3    0    0 -0.90690749549E+02  0.92017807361E+01 -0.80425272750E+02  0.12156360195E+03  0.00000000000E+00 0. -1.
          2    1    6    6  502    0 -0.49265594339E+01 -0.10540676381E+02 -0.11241080846E+02  0.16178341850E+02  0.00000000000E+00 0. -1.
          3    1    5    5  503    0  0.84305243247E+00  0.10471182748E+03 -0.19251918197E+02  0.10647024893E+03  0.00000000000E+00 0. -1.
         -4    1    5    5    0  503  0.15183781948E+03  0.31909964867E+03 -0.83095210027E+02  0.36302083017E+03  0.00000000000E+00 0.  1.
         -1    1    6    6    0  502  0.30446186602E+03 -0.34409892610E+03 -0.58263950848E+03  0.74200397279E+03  0.00000000000E+00 0.  1.
<mgrwt>
<rscale>  0 0.14822300E+04</rscale>
<asrwt>0</asrwt>
<pdfrwt beam="1">  1        2 0.20602607E+00 0.14822300E+04</pdfrwt>
<pdfrwt beam="2">  1       -2 0.63098975E-01 0.14822300E+04</pdfrwt>
<totfact> 0.35309587E+01</totfact>
</mgrwt>
</event>
<event>
12    1  0.1980523E-007  0.1552979E+04  0.7818608E-02  0.8849967E-01
          2   -1    0    0  501    0  0.00000000000E+00  0.00000000000E+00  0.10470172631E+04  0.10470172631E+04  0.00000000000E+00 0.  1.
         -2   -1    0    0    0  501 -0.00000000000E+00 -0.00000000000E+00 -0.57586043238E+03  0.57586043238E+03  0.00000000000E+00 0. -1.
         23    2    1    2    0    0  0.10351273505E+03  0.15351468523E+02 -0.36535271057E+03  0.39083936524E+03  0.91226379941E+02 0.  0.
        254    2    1    2    0    0 -0.10351273505E+03 -0.15351468523E+02  0.83650954133E+03  0.12320383303E+04  0.89845405038E+03 0.  0.
        -24    2    4    4    0    0 -0.35898119331E+03 -0.29462361565E+03  0.26202230305E+03  0.53916021155E+03  0.79796455882E+02 0.  0.
         24    2    4    4    0    0  0.25546845826E+03  0.27927214713E+03  0.57448723828E+03  0.69287811873E+03  0.82385891660E+02 0.  0.
         13    1    3    3    0    0  0.96502782598E+02 -0.18086922724E+02 -0.31533578423E+03  0.33026743805E+03  0.00000000000E+00 0. -1.
        -13    1    3    3    0    0  0.70099524556E+01  0.33438391247E+02 -0.50016926339E+02  0.60571927186E+02  0.00000000000E+00 0.  1.
          4    1    6    6  502    0  0.16232612940E+03  0.12607411770E+03  0.34602232833E+03  0.40246230525E+03  0.00000000000E+00 0. -1.
          3    1    5    5  503    0  0.40565346147E+01 -0.76345989375E+00  0.27168714731E+01  0.49416327961E+01  0.00000000000E+00 0. -1.
         -4    1    5    5    0  503 -0.36303772792E+03 -0.29386015576E+03  0.25930543158E+03  0.53421857875E+03  0.00000000000E+00 0.  1.
         -3    1    6    6    0  502  0.93142328861E+02  0.15319802942E+03  0.22846490995E+03  0.29041581349E+03  0.00000000000E+00 0.  1.
<mgrwt>
<rscale>  0 0.15529788E+04</rscale>
<asrwt>0</asrwt>
<pdfrwt beam="1">  1        2 0.16107958E+00 0.15529788E+04</pdfrwt>
<pdfrwt beam="2">  1       -2 0.88593913E-01 0.15529788E+04</pdfrwt>
<totfact> 0.24799674E+01</totfact>
</mgrwt>
</event>
<event>
12    1  0.1980523E-007  0.1578345E+04  0.7818608E-02  0.8833963E-01
          1   -1    0    0  501    0  0.00000000000E+00  0.00000000000E+00  0.13639075428E+04  0.13639075428E+04  0.00000000000E+00 0. -1.
         -1   -1    0    0    0  501 -0.00000000000E+00 -0.00000000000E+00 -0.45662449736E+03  0.45662449736E+03  0.00000000000E+00 0.  1.
         23    2    1    2    0    0 -0.41019692901E+03 -0.32755698649E+03  0.25117647932E+03  0.58935844673E+03  0.93266580277E+02 0.  0.
        254    2    1    2    0    0  0.41019692901E+03  0.32755698649E+03  0.65610656610E+03  0.12311735934E+04  0.89986526273E+03 0.  0.
        -24    2    4    4    0    0  0.38626138957E+03  0.50145518696E+03  0.77569419616E+03  0.10042869531E+04  0.78966022250E+02 0.  0.
         24    2    4    4    0    0  0.23935539443E+02 -0.17389820048E+03 -0.11958763005E+03  0.22688664028E+03  0.79767487734E+02 0.  0.
         11    1    3    3    0    0 -0.10895833596E+03 -0.41707516431E+02  0.71845922809E+02  0.13701559227E+03  0.00000000000E+00 0. -1.
        -11    1    3    3    0    0 -0.30123859305E+03 -0.28584947006E+03  0.17933055651E+03  0.45234285445E+03  0.00000000000E+00 0.  1.
          2    1    6    6  502    0  0.49027053285E+01 -0.10405648205E+02 -0.44516382749E+02  0.45978498966E+02  0.00000000000E+00 0. -1.
          3    1    5    5  503    0  0.23823516391E+03  0.25263105389E+03  0.39339092083E+03  0.52472360277E+03  0.00000000000E+00 0. -1.
         -4    1    5    5    0  503  0.14802622566E+03  0.24882413308E+03  0.38230327532E+03  0.47956335036E+03  0.00000000000E+00 0.  1.
         -1    1    6    6    0  502  0.19032834115E+02 -0.16349255227E+03 -0.75071247304E+02  0.18090814132E+03  0.00000000000E+00 0.  1.
<mgrwt>
<rscale>  0 0.15783455E+04</rscale>
<asrwt>0</asrwt>
<pdfrwt beam="1">  1        1 0.20983193E+00 0.15783455E+04</pdfrwt>
<pdfrwt beam="2">  1       -1 0.70249923E-01 0.15783455E+04</pdfrwt>
<totfact> 0.16038337E+01</totfact>
</mgrwt>
</event>
<event>
12    1  0.1980523E-007  0.2371158E+04  0.7818608E-02  0.8450381E-01
         -2   -1    0    0    0  501 -0.00000000000E+00  0.00000000000E+00  0.49081933649E+03  0.49081933649E+03  0.00000000000E+00 0.  1.
          2   -1    0    0  501    0  0.00000000000E+00 -0.00000000000E+00 -0.28637790420E+04  0.28637790420E+04  0.00000000000E+00 0. -1.
         23    2    1    2    0    0  0.51704598745E+03 -0.83179340092E+03 -0.67042437234E+03  0.11903501204E+04  0.90817152521E+02 0.  0.
        254    2    1    2    0    0 -0.51704598745E+03  0.83179340092E+03 -0.17025353332E+04  0.21642482581E+04  0.90891536840E+03 0.  0.
        -24    2    4    4    0    0 -0.70593475788E+03  0.30966914800E+03 -0.95184736151E+03  0.12273764370E+04  0.78744236582E+02 0.  0.
         24    2    4    4    0    0  0.18888877043E+03  0.52212425292E+03 -0.75068797164E+03  0.93687182109E+03  0.76835377932E+02 0.  0.
         13    1    3    3    0    0  0.33322998694E+03 -0.56477131144E+03 -0.39941500162E+03  0.76781586460E+03  0.00000000000E+00 0. -1.
        -13    1    3    3    0    0  0.18381600051E+03 -0.26702208948E+03 -0.27100937072E+03  0.42253425582E+03  0.00000000000E+00 0.  1.
          4    1    6    6  502    0 -0.36339824674E+01  0.55961813704E+02 -0.69936344914E+02  0.89643866279E+02  0.00000000000E+00 0. -1.
          3    1    5    5  503    0 -0.12038419096E+03  0.85498710380E+02 -0.16986607542E+03  0.22507080328E+03  0.00000000000E+00 0. -1.
         -4    1    5    5    0  503 -0.58555056692E+03  0.22417043762E+03 -0.78198128610E+03  0.10023056337E+04  0.00000000000E+00 0.  1.
         -3    1    6    6    0  502  0.19252275290E+03  0.46616243922E+03 -0.68075162673E+03  0.84722795481E+03  0.00000000000E+00 0.  1.
<mgrwt>
<rscale>  0 0.23711585E+04</rscale>
<asrwt>0</asrwt>
<pdfrwt beam="1">  1        2 0.44058139E+00 0.23711585E+04</pdfrwt>
<pdfrwt beam="2">  1       -2 0.75510667E-01 0.23711585E+04</pdfrwt>
<totfact> 0.29989447E+00</totfact>
</mgrwt>
</event>
<event>
12    1  0.1980523E-007  0.2404158E+04  0.7818608E-02  0.8437948E-01
          2   -1    0    0  501    0  0.00000000000E+00  0.00000000000E+00  0.12885774956E+04  0.12885774956E+04  0.00000000000E+00 0. -1.
         -2   -1    0    0    0  501 -0.00000000000E+00 -0.00000000000E+00 -0.11213873041E+04  0.11213873041E+04  0.00000000000E+00 0.  1.
         23    2    1    2    0    0 -0.24630911485E+03 -0.91846381927E+03  0.47138061112E+03  0.10654615894E+04  0.93620246145E+02 0.  0.
        254    2    1    2    0    0  0.24630911485E+03  0.91846381927E+03 -0.30419041966E+03  0.13445032104E+04  0.90050713705E+03 0.  0.
        -24    2    4    4    0    0 -0.15583137551E+03  0.82181113869E+03 -0.36928921577E+03  0.91825955171E+03  0.84670621501E+02 0.  0.
         24    2    4    4    0    0  0.40214049035E+03  0.96652680581E+02  0.65098796113E+02  0.42624365865E+03  0.79919263249E+02 0.  0.
         13    1    3    3    0    0 -0.43082095909E+02 -0.28902311899E+03  0.17546359360E+03  0.34084879783E+03  0.00000000000E+00 0. -1.
        -13    1    3    3    0    0 -0.20322701894E+03 -0.62944070028E+03  0.29591701752E+03  0.72461279153E+03  0.00000000000E+00 0.  1.
          2    1    6    6  502    0  0.18754129071E+03  0.15368802466E+02  0.17315743858E+01  0.18817793218E+03  0.00000000000E+00 0. -1.
          3    1    5    5  503    0 -0.15361022514E+02  0.41518708649E+02 -0.40337327009E+02  0.59890434385E+02  0.00000000000E+00 0. -1.
         -4    1    5    5    0  503 -0.14047035299E+03  0.78029243004E+03 -0.32895188876E+03  0.85836911732E+03  0.00000000000E+00 0.  1.
         -1    1    6    6    0  502  0.21459919964E+03  0.81283878116E+02  0.63367221727E+02  0.23806572647E+03  0.00000000000E+00 0.  1.
<mgrwt>
<rscale>  0 0.24041584E+04</rscale>
<asrwt>0</asrwt>
<pdfrwt beam="1">  1        2 0.19824269E+00 0.24041584E+04</pdfrwt>
<pdfrwt beam="2">  1       -2 0.17252112E+00 0.24041584E+04</pdfrwt>
<totfact> 0.30869017E+00</totfact>
</mgrwt>
</event>
<event>
12    1  0.1980523E-007  0.2115468E+04  0.7818608E-02  0.8554460E-01
          2   -1    0    0  501    0  0.00000000000E+00  0.00000000000E+00  0.14955266156E+04  0.14955266156E+04  0.00000000000E+00 0. -1.
         -2   -1    0    0    0  501 -0.00000000000E+00 -0.00000000000E+00 -0.74809864768E+03  0.74809864768E+03  0.00000000000E+00 0.  1.
         23    2    1    2    0    0  0.51095851218E+03  0.48155235466E+03  0.83980902692E+03  0.10983837391E+04  0.90533779306E+02 0.  0.
        254    2    1    2    0    0 -0.51095851218E+03 -0.48155235466E+03 -0.92381058975E+02  0.11452415242E+04  0.90004034200E+03 0.  0.
        -24    2    4    4    0    0 -0.36702361624E+03 -0.34357364819E+03 -0.48191190176E+03  0.70086571680E+03  0.78895407475E+02 0.  0.
         24    2    4    4    0    0 -0.14393489594E+03 -0.13797870647E+03  0.38953084279E+03  0.44437580738E+03  0.77331772244E+02 0.  0.
         11    1    3    3    0    0  0.16715984623E+03  0.15091624084E+03  0.20655974348E+03  0.30558968171E+03  0.00000000000E+00 0.  1.
        -11    1    3    3    0    0  0.34379866595E+03  0.33063611382E+03  0.63324928344E+03  0.79279405740E+03  0.00000000000E+00 0. -1.
          2    1    6    6  502    0 -0.11226248630E+03 -0.59503164428E+02  0.20203007804E+03  0.23866219818E+03  0.00000000000E+00 0. -1.
          3    1    5    5  503    0 -0.31052014892E+03 -0.26973578481E+03 -0.35363437104E+03  0.54243656299E+03  0.00000000000E+00 0. -1.
         -4    1    5    5    0  503 -0.56503467314E+02 -0.73837863385E+02 -0.12827753073E+03  0.15842915381E+03  0.00000000000E+00 0.  1.
         -1    1    6    6    0  502 -0.31672409636E+02 -0.78475542038E+02  0.18750076475E+03  0.20571360921E+03  0.00000000000E+00 0.  1.
<mgrwt>
<rscale>  0 0.21154682E+04</rscale>
<asrwt>0</asrwt>
<pdfrwt beam="1">  1        2 0.23008102E+00 0.21154682E+04</pdfrwt>
<pdfrwt beam="2">  1       -2 0.11509210E+00 0.21154682E+04</pdfrwt>
<totfact> 0.69167835E+00</totfact>
</mgrwt>
</event>
<event>
12    1  0.1980523E-007  0.2815522E+04  0.7818608E-02  0.8298466E-01
         -2   -1    0    0    0  501 -0.00000000000E+00  0.00000000000E+00  0.13362441981E+04  0.13362441981E+04  0.00000000000E+00 0.  1.
          2   -1    0    0  501    0  0.00000000000E+00 -0.00000000000E+00 -0.14831053494E+04  0.14831053494E+04  0.00000000000E+00 0. -1.
         23    2    1    2    0    0  0.73217121225E+03 -0.76712170359E+03 -0.75287174387E+03  0.13038296889E+04  0.92766388139E+02 0.  0.
        254    2    1    2    0    0 -0.73217121225E+03  0.76712170359E+03  0.60601059255E+03  0.15155198586E+04  0.89721859737E+03 0.  0.
        -24    2    4    4    0    0 -0.18757720806E+03  0.25732893895E+02  0.55329661005E+03  0.59022408632E+03  0.79874542642E+02 0.  0.
         24    2    4    4    0    0 -0.54459400419E+03  0.74138880969E+03  0.52713982505E+02  0.92529577232E+03  0.84578400241E+02 0.  0.
         11    1    3    3    0    0  0.55392061487E+03 -0.61587736580E+03 -0.62248566938E+03  0.10361570276E+04  0.00000000000E+00 0. -1.
        -11    1    3    3    0    0  0.17825059738E+03 -0.15124433778E+03 -0.13038607449E+03  0.26767266128E+03  0.00000000000E+00 0.  1.
          2    1    6    6  502    0 -0.43684048217E+03  0.53499796871E+03  0.49256961300E+02  0.69244399168E+03  0.00000000000E+00 0. -1.
          1    1    5    5  503    0 -0.11724477133E+03  0.34659801325E+02  0.43915880945E+03  0.45585973517E+03  0.00000000000E+00 0. -1.
         -2    1    5    5    0  503 -0.70332436732E+02 -0.89269074300E+01  0.11413780060E+03  0.13436435114E+03  0.00000000000E+00 0.  1.
         -1    1    6    6    0  502 -0.10775352202E+03  0.20639084098E+03  0.34570212044E+01  0.23285178063E+03  0.00000000000E+00 0.  1.
<mgrwt>
<rscale>  0 0.28155219E+04</rscale>
<asrwt>0</asrwt>
<pdfrwt beam="1">  1        2 0.22817006E+00 0.28155219E+04</pdfrwt>
<pdfrwt beam="2">  1       -2 0.20557603E+00 0.28155219E+04</pdfrwt>
<totfact> 0.13793364E+00</totfact>
</mgrwt>
</event>
<event>
12    1  0.1980523E-007  0.1792357E+04  0.7818608E-02  0.8710375E-01
         -2   -1    0    0    0  501 -0.00000000000E+00  0.00000000000E+00  0.12543073218E+04  0.12543073218E+04  0.00000000000E+00 0.  1.
          2   -1    0    0  501    0  0.00000000000E+00 -0.00000000000E+00 -0.64030231424E+03  0.64030231424E+03  0.00000000000E+00 0. -1.
         23    2    1    2    0    0 -0.18503118102E+03  0.63485272565E+03  0.14772505530E+03  0.68357427007E+03  0.90424385650E+02 0.  0.
        254    2    1    2    0    0  0.18503118102E+03 -0.63485272565E+03  0.46627995225E+03  0.12110353660E+04  0.90106333991E+03 0.  0.
        -24    2    4    4    0    0  0.27888517216E+03 -0.44919909660E+03  0.70451254351E+03  0.88465483984E+03  0.81972520129E+02 0.  0.
         24    2    4    4    0    0 -0.93853991138E+02 -0.18565362905E+03 -0.23823259126E+03  0.32638052612E+03  0.80583116469E+02 0.  0.
         13    1    3    3    0    0 -0.91623830748E+02  0.39399748330E+03  0.50939877406E+02  0.40770554855E+03  0.00000000000E+00 0. -1.
        -13    1    3    3    0    0 -0.93407350271E+02  0.24085524235E+03  0.96785177892E+02  0.27586872152E+03  0.00000000000E+00 0.  1.
          4    1    6    6  502    0  0.12566886493E+02 -0.32329433336E+02 -0.53633918650E+02  0.63872655540E+02  0.00000000000E+00 0. -1.
          1    1    5    5  503    0  0.81347535851E+02 -0.20479407304E+03  0.30806744269E+03  0.37876586856E+03  0.00000000000E+00 0. -1.
         -2    1    5    5    0  503  0.19753763631E+03 -0.24440502356E+03  0.39644510082E+03  0.50588897128E+03  0.00000000000E+00 0.  1.
         -3    1    6    6    0  502 -0.10642087763E+03 -0.15332419571E+03 -0.18459867261E+03  0.26250787058E+03  0.00000000000E+00 0.  1.
<mgrwt>
<rscale>  0 0.17923570E+04</rscale>
<asrwt>0</asrwt>
<pdfrwt beam="1">  1        2 0.98508049E-01 0.17923570E+04</pdfrwt>
<pdfrwt beam="2">  1       -2 0.19297036E+00 0.17923570E+04</pdfrwt>
<totfact> 0.64013967E+00</totfact>
</mgrwt>
</event>
<event>
12    1  0.1980523E-007  0.4677093E+04  0.7818608E-02  0.7880346E-01
         -1   -1    0    0    0  501 -0.00000000000E+00  0.00000000000E+00  0.16337880221E+04  0.16337880221E+04  0.00000000000E+00 0.  1.
          1   -1    0    0  501    0  0.00000000000E+00 -0.00000000000E+00 -0.33473122215E+04  0.33473122215E+04  0.00000000000E+00 0. -1.
         23    2    1    2    0    0 -0.21513056881E+04  0.38607694625E+03 -0.25185484795E+03  0.22019875493E+04  0.90259241165E+02 0.  0.
        254    2    1    2    0    0  0.21513056881E+04 -0.38607694625E+03 -0.14616693515E+04  0.27791126943E+04  0.89989916230E+03 0.  0.
        -24    2    4    4    0    0  0.10910579798E+04  0.24599489485E+03 -0.79041987694E+03  0.13718362943E+04  0.79058415648E+02 0.  0.
         24    2    4    4    0    0  0.10602477083E+04 -0.63207184110E+03 -0.67124947457E+03  0.14072763999E+04  0.78809856034E+02 0.  0.
         11    1    3    3    0    0 -0.52828524396E+03  0.11543223611E+03 -0.95834994006E+02  0.54917597015E+03  0.00000000000E+00 0. -1.
        -11    1    3    3    0    0 -0.16230204442E+04  0.27064471013E+03 -0.15601985394E+03  0.16528115791E+04  0.00000000000E+00 0.  1.
          2    1    6    6  502    0  0.69247786952E+03 -0.40090536895E+03 -0.39347577318E+03  0.89166916438E+03  0.00000000000E+00 0. -1.
          1    1    5    5  503    0  0.94393604987E+03  0.23829460918E+03 -0.69814241807E+03  0.11979993418E+04  0.00000000000E+00 0. -1.
         -2    1    5    5    0  503  0.14712192991E+03  0.77002856733E+01 -0.92277458867E+02  0.17383695256E+03  0.00000000000E+00 0.  1.
         -1    1    6    6    0  502  0.36776983881E+03 -0.23116647215E+03 -0.27777370139E+03  0.51560723557E+03  0.00000000000E+00 0.  1.
<mgrwt>
<rscale>  0 0.46770925E+04</rscale>
<asrwt>0</asrwt>
<pdfrwt beam="1">  1        1 0.51497111E+00 0.46770925E+04</pdfrwt>
<pdfrwt beam="2">  1       -1 0.25135200E+00 0.46770925E+04</pdfrwt>
<totfact> 0.16611709E-02</totfact>
</mgrwt>
</event>
<event>
12    1  0.1980523E-007  0.1605689E+04  0.7818608E-02  0.8817061E-01
          1   -1    0    0  501    0  0.00000000000E+00  0.00000000000E+00  0.67422273812E+03  0.67422273812E+03  0.00000000000E+00 0. -1.
         -1   -1    0    0    0  501 -0.00000000000E+00 -0.00000000000E+00 -0.95600355167E+03  0.95600355167E+03  0.00000000000E+00 0.  1.
         23    2    1    2    0    0  0.19189298799E+02  0.42432698245E+03  0.25464783662E+03  0.50387350522E+03  0.92851339960E+02 0.  0.
        254    2    1    2    0    0 -0.19189298799E+02 -0.42432698245E+03 -0.53642865018E+03  0.11263527846E+04  0.89470290117E+03 0.  0.
        -24    2    4    4    0    0 -0.48652450427E+02  0.25701848479E+03 -0.35969022892E+02  0.27665838833E+03  0.82586504781E+02 0.  0.
         24    2    4    4    0    0  0.29463151628E+02 -0.68134546724E+03 -0.50045962729E+03  0.84969439624E+03  0.80131176328E+02 0.  0.
         13    1    3    3    0    0  0.28151211841E+02  0.19282927870E+03  0.68093191341E+02  0.20642747918E+03  0.00000000000E+00 0.  1.
        -13    1    3    3    0    0 -0.89619130412E+01  0.23149770375E+03  0.18655464528E+03  0.29744602604E+03  0.00000000000E+00 0. -1.
          4    1    6    6  502    0  0.30707799758E+02 -0.44731726503E+03 -0.28289786299E+03  0.53015743458E+03  0.00000000000E+00 0. -1.
          1    1    5    5  503    0 -0.22912390033E+02  0.20521499619E+03 -0.58440958915E+02  0.21460083401E+03  0.00000000000E+00 0. -1.
         -2    1    5    5    0  503 -0.25740060394E+02  0.51803488594E+02  0.22471936023E+02  0.62057554321E+02  0.00000000000E+00 0.  1.
         -3    1    6    6    0  502 -0.12446481298E+01 -0.23402820222E+03 -0.21756176430E+03  0.31953696166E+03  0.00000000000E+00 0.  1.
<mgrwt>
<rscale>  0 0.16056891E+04</rscale>
<asrwt>0</asrwt>
<pdfrwt beam="1">  1        1 0.10372658E+00 0.16056891E+04</pdfrwt>
<pdfrwt beam="2">  1       -1 0.14707747E+00 0.16056891E+04</pdfrwt>
<totfact> 0.10174305E+01</totfact>
</mgrwt>
</event>
<event>
12    1  0.3802866E-007  0.3316439E+04  0.7818608E-02  0.8158725E-01
         -2   -1    0    0    0  501 -0.00000000000E+00  0.00000000000E+00  0.14197013286E+04  0.14197013286E+04  0.00000000000E+00 0.  1.
          2   -1    0    0  501    0  0.00000000000E+00 -0.00000000000E+00 -0.19368096743E+04  0.19368096743E+04  0.00000000000E+00 0. -1.
         23    2    1    2    0    0  0.13618478663E+04 -0.32908416234E+03  0.39172536520E+03  0.14576729255E+04  0.91845517846E+02 0.  0.
        254    2    1    2    0    0 -0.13618478663E+04  0.32908416234E+03 -0.90883371090E+03  0.18988380774E+04  0.90370422889E+03 0.  0.
        -24    2    4    4    0    0 -0.11971027807E+04 -0.10889618348E+02 -0.40799714483E+03  0.12675337947E+04  0.83705430415E+02 0.  0.
         24    2    4    4    0    0 -0.16474508564E+03  0.33997378069E+03 -0.50083656607E+03  0.63130428277E+03  0.70602526395E+02 0.  0.
         11    1    3    3    0    0  0.51663272127E+03 -0.16231170118E+03  0.12433444663E+03  0.55561993453E+03  0.00000000000E+00 0. -1.
        -11    1    3    3    0    0  0.84521514508E+03 -0.16677246117E+03  0.26739091857E+03  0.90205299102E+03  0.00000000000E+00 0.  1.
          4    1    6    6  502    0 -0.12839046712E+02  0.18999567973E+01 -0.24858493446E+02  0.28042746882E+02  0.00000000000E+00 0. -1.
          3    1    5    5  503    0 -0.23817717476E+02 -0.43288318207E+01  0.28565677794E+01  0.24375857527E+02  0.00000000000E+00 0. -1.
         -4    1    5    5    0  503 -0.11732850632E+04 -0.65607865269E+01 -0.41085371260E+03  0.12431579371E+04  0.00000000000E+00 0.  1.
         -3    1    6    6    0  502 -0.15190603893E+03  0.33807382389E+03 -0.47597807263E+03  0.60326153589E+03  0.00000000000E+00 0.  1.
<mgrwt>
<rscale>  0 0.33164386E+04</rscale>
<asrwt>0</asrwt>
<pdfrwt beam="1">  1        2 0.29797072E+00 0.33164386E+04</pdfrwt>
<pdfrwt beam="2">  1       -2 0.21841559E+00 0.33164386E+04</pdfrwt>
<totfact> 0.61123897E-01</totfact>
</mgrwt>
</event>
<event>
12    1  0.1980523E-007  0.2652438E+04  0.7818608E-02  0.8350604E-01
          1   -1    0    0  501    0  0.00000000000E+00  0.00000000000E+00  0.36305950656E+04  0.36305950656E+04  0.00000000000E+00 0. -1.
         -1   -1    0    0    0  501 -0.00000000000E+00 -0.00000000000E+00 -0.48445406205E+03  0.48445406205E+03  0.00000000000E+00 0.  1.
         23    2    1    2    0    0 -0.73180187535E+03 -0.89243246068E+03  0.10847743463E+04  0.15864489725E+04  0.90084838550E+02 0.  0.
        254    2    1    2    0    0  0.73180187535E+03  0.89243246068E+03  0.20613666572E+04  0.25286001552E+04  0.90145247664E+03 0.  0.
        -24    2    4    4    0    0  0.73365463756E+03  0.99253999900E+03  0.20571099128E+04  0.24003573529E+04  0.81421443187E+02 0.  0.
         24    2    4    4    0    0 -0.18527622087E+01 -0.10010753832E+03  0.42567443942E+01  0.12824280227E+03  0.80019650739E+02 0.  0.
         13    1    3    3    0    0 -0.32116400362E+03 -0.45321553598E+03  0.49023216252E+03  0.74086315366E+03  0.00000000000E+00 0.  1.
        -13    1    3    3    0    0 -0.41063787172E+03 -0.43921692470E+03  0.59454218382E+03  0.84558581882E+03  0.00000000000E+00 0. -1.
          2    1    6    6  502    0 -0.28129817404E+02 -0.96940667381E+02 -0.23373176357E+01  0.10096654235E+03  0.00000000000E+00 0. -1.
          1    1    5    5  503    0  0.67087861117E+03  0.89775187743E+03  0.18198095872E+04  0.21372279892E+04  0.00000000000E+00 0. -1.
         -2    1    5    5    0  503  0.62776026384E+02  0.94788121570E+02  0.23730032567E+03  0.26312936370E+03  0.00000000000E+00 0.  1.
         -1    1    6    6    0  502  0.26277055195E+02 -0.31668709382E+01  0.65940620299E+01  0.27276259922E+02  0.00000000000E+00 0.  1.
<mgrwt>
<rscale>  0 0.26524378E+04</rscale>
<asrwt>0</asrwt>
<pdfrwt beam="1">  1        1 0.55855307E+00 0.26524378E+04</pdfrwt>
<pdfrwt beam="2">  1       -1 0.74531397E-01 0.26524378E+04</pdfrwt>
<totfact> 0.31226851E-01</totfact>
</mgrwt>
</event>
<event>
12    1  0.1980523E-007  0.1990631E+04  0.7818608E-02  0.8611013E-01
          2   -1    0    0  501    0  0.00000000000E+00  0.00000000000E+00  0.19212160330E+04  0.19212160330E+04  0.00000000000E+00 0. -1.
         -2   -1    0    0    0  501 -0.00000000000E+00 -0.00000000000E+00 -0.51563860980E+03  0.51563860980E+03  0.00000000000E+00 0.  1.
         23    2    1    2    0    0  0.62790185956E+03 -0.41738591347E+03  0.27619327292E+03  0.80815730323E+03  0.91453577033E+02 0.  0.
        254    2    1    2    0    0 -0.62790185956E+03  0.41738591347E+03  0.11293841503E+04  0.16286973396E+04  0.89926343138E+03 0.  0.
        -24    2    4    4    0    0  0.13514136400E+02 -0.48073352939E+01  0.77506214781E+03  0.77934843404E+03  0.80354877387E+02 0.  0.
         24    2    4    4    0    0 -0.64141599596E+03  0.42219324877E+03  0.35432200246E+03  0.84934890553E+03  0.78662969133E+02 0.  0.
         13    1    3    3    0    0  0.16662290512E+03 -0.69617424600E+02  0.85596876690E+02  0.19984144620E+03  0.00000000000E+00 0. -1.
        -13    1    3    3    0    0  0.46127895444E+03 -0.34776848887E+03  0.19059639623E+03  0.60831585703E+03  0.00000000000E+00 0.  1.
          2    1    6    6  502    0 -0.56722727999E+03  0.38737011747E+03  0.29190369492E+03  0.74633113440E+03  0.00000000000E+00 0. -1.
          3    1    5    5  503    0  0.28589166453E+02 -0.44321365160E+01  0.74640866798E+03  0.74696913183E+03  0.00000000000E+00 0. -1.
         -4    1    5    5    0  503 -0.15075030054E+02 -0.37519877794E+00  0.28653479825E+02  0.32379302205E+02  0.00000000000E+00 0.  1.
         -1    1    6    6    0  502 -0.74188715975E+02  0.34823131301E+02  0.62418307545E+02  0.10301777113E+03  0.00000000000E+00 0.  1.
<mgrwt>
<rscale>  0 0.19906312E+04</rscale>
<asrwt>0</asrwt>
<pdfrwt beam="1">  1        2 0.29557169E+00 0.19906312E+04</pdfrwt>
<pdfrwt beam="2">  1       -2 0.79329018E-01 0.19906312E+04</pdfrwt>
<totfact> 0.96787817E+00</totfact>
</mgrwt>
</event>
<event>
12    1  0.1980523E-007  0.3819633E+04  0.7818608E-02  0.8041955E-01
          2   -1    0    0  501    0  0.00000000000E+00  0.00000000000E+00  0.31789892440E+04  0.31789892440E+04  0.00000000000E+00 0. -1.
         -2   -1    0    0    0  501 -0.00000000000E+00 -0.00000000000E+00 -0.11473454161E+04  0.11473454161E+04  0.00000000000E+00 0.  1.
         23    2    1    2    0    0  0.53852752287E+03 -0.12047229225E+04 -0.42991619789E+03  0.13908602730E+04  0.91077709117E+02 0.  0.
        254    2    1    2    0    0 -0.53852752287E+03  0.12047229225E+04  0.24615600258E+04  0.29354743871E+04  0.90352803147E+03 0.  0.
        -24    2    4    4    0    0 -0.56283692886E+03  0.10320753012E+04  0.24776213024E+04  0.27435099490E+04  0.79212919234E+02 0.  0.
         24    2    4    4    0    0  0.24309405994E+02  0.17264762123E+03 -0.16061276580E+02  0.19196443802E+03  0.78703446685E+02 0.  0.
         13    1    3    3    0    0  0.44405769864E+03 -0.10331800087E+04 -0.33612778151E+03  0.11737248637E+04  0.00000000000E+00 0. -1.
        -13    1    3    3    0    0  0.94469824235E+02 -0.17154291379E+03 -0.93788416379E+02  0.21713540938E+03  0.00000000000E+00 0.  1.
          2    1    6    6  502    0  0.47555481238E+02  0.15465884915E+03 -0.11429235616E+02  0.16220823297E+03  0.00000000000E+00 0. -1.
          1    1    5    5  503    0 -0.55960423028E+03  0.10216897007E+04  0.24318060693E+04  0.26964212389E+04  0.00000000000E+00 0. -1.
         -2    1    5    5    0  503 -0.32326985888E+01  0.10385600582E+02  0.45815233093E+02  0.47088710143E+02  0.00000000000E+00 0.  1.
         -1    1    6    6    0  502 -0.23246075244E+02  0.17988772084E+02 -0.46320409642E+01  0.29756205048E+02  0.00000000000E+00 0.  1.
<mgrwt>
<rscale>  0 0.38196328E+04</rscale>
<asrwt>0</asrwt>
<pdfrwt beam="1">  1        2 0.48907526E+00 0.38196328E+04</pdfrwt>
<pdfrwt beam="2">  1       -2 0.17651468E+00 0.38196328E+04</pdfrwt>
<totfact> 0.20520932E-01</totfact>
</mgrwt>
</event>
<event>
12    1  0.1980523E-007  0.1561353E+04  0.7818608E-02  0.8844649E-01
          1   -1    0    0  501    0  0.00000000000E+00  0.00000000000E+00  0.57311055602E+03  0.57311055602E+03  0.00000000000E+00 0. -1.
         -1   -1    0    0    0  501 -0.00000000000E+00 -0.00000000000E+00 -0.10634173565E+04  0.10634173565E+04  0.00000000000E+00 0.  1.
         23    2    1    2    0    0 -0.39675017299E+03 -0.13494490249E+02  0.18683795203E+03  0.44809256584E+03  0.91025964442E+02 0.  0.
        254    2    1    2    0    0  0.39675017299E+03  0.13494490249E+02 -0.67714475251E+03  0.11884353467E+04  0.89233444200E+03 0.  0.
        -24    2    4    4    0    0 -0.18794266104E+03 -0.24569527704E+03 -0.14894945870E+03  0.35495789484E+03  0.90114110262E+02 0.  0.
         24    2    4    4    0    0  0.58469283403E+03  0.25918976729E+03 -0.52819529382E+03  0.83347745185E+03  0.81543538624E+02 0.  0.
         11    1    3    3    0    0 -0.10391664223E+03 -0.21698231046E+01  0.68152529209E+01  0.10416249006E+03  0.00000000000E+00 0.  1.
        -11    1    3    3    0    0 -0.29283353077E+03 -0.11324667144E+02  0.18002269911E+03  0.34393007577E+03  0.00000000000E+00 0. -1.
          2    1    6    6  502    0  0.39876585975E+03  0.21048806431E+03 -0.34263786923E+03  0.56632159198E+03  0.00000000000E+00 0. -1.
          3    1    5    5  503    0 -0.10244844487E+03 -0.13351552127E+03 -0.12998177839E+03  0.21264369492E+03  0.00000000000E+00 0. -1.
         -4    1    5    5    0  503 -0.85494216175E+02 -0.11217975577E+03 -0.18967680301E+02  0.14231419992E+03  0.00000000000E+00 0.  1.
         -3    1    6    6    0  502  0.18592697429E+03  0.48701702980E+02 -0.18555742459E+03  0.26715585987E+03  0.00000000000E+00 0.  1.
<mgrwt>
<rscale>  0 0.15613529E+04</rscale>
<asrwt>0</asrwt>
<pdfrwt beam="1">  1        1 0.88170856E-01 0.15613529E+04</pdfrwt>
<pdfrwt beam="2">  1       -1 0.16360267E+00 0.15613529E+04</pdfrwt>
<totfact> 0.96667427E+00</totfact>
</mgrwt>
</event>
<event>
12    1  0.1980523E-007  0.4434680E+04  0.7818608E-02  0.7922173E-01
         -1   -1    0    0    0  501 -0.00000000000E+00  0.00000000000E+00  0.18002920626E+04  0.18002920626E+04  0.00000000000E+00 0.  1.
          1   -1    0    0  501    0  0.00000000000E+00 -0.00000000000E+00 -0.27309989634E+04  0.27309989634E+04  0.00000000000E+00 0. -1.
         23    2    1    2    0    0 -0.12052832620E+04  0.28028373585E+02  0.13417810013E+04  0.18061228285E+04  0.90609517894E+02 0.  0.
        254    2    1    2    0    0  0.12052832620E+04 -0.28028373585E+02 -0.22724879021E+04  0.27251681975E+04  0.89935927642E+03 0.  0.
        -24    2    4    4    0    0  0.70153223751E+03 -0.22446455330E+03 -0.56294531676E+03  0.93036540016E+03  0.78361547959E+02 0.  0.
         24    2    4    4    0    0  0.50375102454E+03  0.19643617971E+03 -0.17095425853E+04  0.17948027973E+04  0.80180813904E+02 0.  0.
         13    1    3    3    0    0 -0.98396004054E+03  0.24609609176E+02  0.11454930495E+04  0.15102772331E+04  0.00000000000E+00 0.  1.
        -13    1    3    3    0    0 -0.22132322151E+03  0.34187644089E+01  0.19628795181E+03  0.29584559546E+03  0.00000000000E+00 0. -1.
          4    1    6    6  502    0  0.35118748347E+03  0.17506915135E+03 -0.12463843030E+04  0.13066964785E+04  0.00000000000E+00 0. -1.
          3    1    5    5  503    0  0.45854960608E+03 -0.15000467938E+03 -0.41440244953E+03  0.63600199312E+03  0.00000000000E+00 0. -1.
         -4    1    5    5    0  503  0.24298263143E+03 -0.74459873914E+02 -0.14854286723E+03  0.29436340704E+03  0.00000000000E+00 0.  1.
         -3    1    6    6    0  502  0.15256354107E+03  0.21367028367E+02 -0.46315828232E+03  0.48810631880E+03  0.00000000000E+00 0.  1.
<mgrwt>
<rscale>  0 0.44346796E+04</rscale>
<asrwt>0</asrwt>
<pdfrwt beam="1">  1        1 0.42015368E+00 0.44346796E+04</pdfrwt>
<pdfrwt beam="2">  1       -1 0.27696801E+00 0.44346796E+04</pdfrwt>
<totfact> 0.32821477E-02</totfact>
</mgrwt>
</event>
<event>
12    1  0.1980523E-007  0.2965903E+04  0.7818608E-02  0.8253535E-01
          2   -1    0    0  501    0  0.00000000000E+00  0.00000000000E+00  0.22384120899E+04  0.22384120899E+04  0.00000000000E+00 0. -1.
         -2   -1    0    0    0  501 -0.00000000000E+00 -0.00000000000E+00 -0.98245780425E+03  0.98245780425E+03  0.00000000000E+00 0.  1.
         23    2    1    2    0    0  0.15520125177E+03 -0.10675290375E+04 -0.30038832109E+03  0.11234995091E+04  0.91171974759E+02 0.  0.
        254    2    1    2    0    0 -0.15520125177E+03  0.10675290375E+04  0.15563426067E+04  0.20973703850E+04  0.90169537439E+03 0.  0.
        -24    2    4    4    0    0 -0.32163787382E+03  0.61432758885E+02  0.17869838276E+03  0.38150626346E+03  0.79931291228E+02 0.  0.
         24    2    4    4    0    0  0.16643662205E+03  0.10060962786E+04  0.13776442239E+04  0.17158641216E+04  0.79719539723E+02 0.  0.
         11    1    3    3    0    0  0.52545073201E+02 -0.18805807578E+03 -0.29013961960E+02  0.19740474810E+03  0.00000000000E+00 0.  1.
        -11    1    3    3    0    0  0.10265617857E+03 -0.87947096171E+03 -0.27137435913E+03  0.92609476097E+03  0.00000000000E+00 0. -1.
          2    1    6    6  502    0  0.80322518319E+02  0.30873033541E+03  0.46944972255E+03  0.56758186102E+03  0.00000000000E+00 0. -1.
          1    1    5    5  503    0 -0.24512031657E+03  0.70463285999E+02  0.10812000493E+03  0.27701801338E+03  0.00000000000E+00 0. -1.
         -2    1    5    5    0  503 -0.76517557245E+02 -0.90305271140E+01  0.70578377838E+02  0.10448825008E+03  0.00000000000E+00 0.  1.
         -3    1    6    6    0  502  0.86114103728E+02  0.69736594319E+03  0.90819450138E+03  0.11482822606E+04  0.00000000000E+00 0.  1.
<mgrwt>
<rscale>  0 0.29659032E+04</rscale>
<asrwt>0</asrwt>
<pdfrwt beam="1">  1        2 0.34437109E+00 0.29659032E+04</pdfrwt>
<pdfrwt beam="2">  1       -2 0.15114735E+00 0.29659032E+04</pdfrwt>
<totfact> 0.12381305E+00</totfact>
</mgrwt>
</event>
<event>
12    1  0.1980523E-007  0.2582167E+04  0.7818608E-02  0.8374284E-01
         -2   -1    0    0    0  501 -0.00000000000E+00  0.00000000000E+00  0.79304760984E+03  0.79304760984E+03  0.00000000000E+00 0.  1.
          2   -1    0    0  501    0  0.00000000000E+00 -0.00000000000E+00 -0.21018866410E+04  0.21018866410E+04  0.00000000000E+00 0. -1.
         23    2    1    2    0    0  0.77406564691E+03  0.56405996906E+03  0.10242922636E+03  0.96648366196E+03  0.79105296892E+02 0.  0.
        254    2    1    2    0    0 -0.77406564691E+03 -0.56405996906E+03 -0.14112682575E+04  0.19284505888E+04  0.89994572316E+03 0.  0.
        -24    2    4    4    0    0 -0.40799756252E+02 -0.27470667245E+03 -0.98962288154E+03  0.10311000037E+04  0.81764259044E+02 0.  0.
         24    2    4    4    0    0 -0.73326589066E+03 -0.28935329661E+03 -0.42164537594E+03  0.89735058510E+03  0.77775657254E+02 0.  0.
         11    1    3    3    0    0  0.48224543012E+03  0.39804187208E+03  0.65559163096E+02  0.62872568793E+03  0.00000000000E+00 0.  1.
        -11    1    3    3    0    0  0.29182021679E+03  0.16601809698E+03  0.36870063263E+02  0.33775797403E+03  0.00000000000E+00 0. -1.
          2    1    6    6  502    0 -0.50027138131E+03 -0.15794782494E+03 -0.28147075951E+03  0.59535263401E+03  0.00000000000E+00 0. -1.
          1    1    5    5  503    0  0.71649965399E+01 -0.18248996569E+03 -0.55752031490E+03  0.58667096935E+03  0.00000000000E+00 0. -1.
         -2    1    5    5    0  503 -0.47964752792E+02 -0.92216706765E+02 -0.43210256665E+03  0.44442903440E+03  0.00000000000E+00 0.  1.
         -1    1    6    6    0  502 -0.23299450935E+03 -0.13140547167E+03 -0.14017461642E+03  0.30199795108E+03  0.00000000000E+00 0.  1.
<mgrwt>
<rscale>  0 0.25821667E+04</rscale>
<asrwt>0</asrwt>
<pdfrwt beam="1">  1        2 0.32336718E+00 0.25821667E+04</pdfrwt>
<pdfrwt beam="2">  1       -2 0.12200732E+00 0.25821667E+04</pdfrwt>
<totfact> 0.26454636E+00</totfact>
</mgrwt>
</event>
<event>
12    1  0.1980523E-007  0.1992757E+04  0.7818608E-02  0.8610015E-01
         -1   -1    0    0    0  501 -0.00000000000E+00  0.00000000000E+00  0.50995404773E+03  0.50995404773E+03  0.00000000000E+00 0.  1.
          1   -1    0    0  501    0  0.00000000000E+00 -0.00000000000E+00 -0.19467828373E+04  0.19467828373E+04  0.00000000000E+00 0. -1.
         23    2    1    2    0    0  0.29461105583E+03 -0.66062469862E+03 -0.95880795312E+03  0.12045433331E+04  0.91603949711E+02 0.  0.
        254    2    1    2    0    0 -0.29461105583E+03  0.66062469862E+03 -0.47802083641E+03  0.12521935519E+04  0.90347335589E+03 0.  0.
        -24    2    4    4    0    0 -0.25880187572E+03  0.68860965927E+03 -0.69519367097E+03  0.10152700729E+04  0.79482118098E+02 0.  0.
         24    2    4    4    0    0 -0.35809180118E+02 -0.27984960651E+02  0.21717283455E+03  0.23692347901E+03  0.83085735446E+02 0.  0.
         13    1    3    3    0    0  0.96046851426E+02 -0.28198777149E+03 -0.33513894745E+03  0.44839738518E+03  0.00000000000E+00 0.  1.
        -13    1    3    3    0    0  0.19856420441E+03 -0.37863692713E+03 -0.62366900568E+03  0.75614594788E+03  0.00000000000E+00 0. -1.
          2    1    6    6  502    0 -0.31476901610E+02 -0.15833849353E+02  0.22461931527E+02  0.41785697173E+02  0.00000000000E+00 0. -1.
          1    1    5    5  503    0 -0.19191002414E+03  0.53817342842E+03 -0.49410007360E+03  0.75537737532E+03  0.00000000000E+00 0. -1.
         -2    1    5    5    0  503 -0.66891851578E+02  0.15043623085E+03 -0.20109359737E+03  0.25989269760E+03  0.00000000000E+00 0.  1.
         -1    1    6    6    0  502 -0.43322785086E+01 -0.12151111297E+02  0.19471090303E+03  0.19513778184E+03  0.00000000000E+00 0.  1.
<mgrwt>
<rscale>  0 0.19927567E+04</rscale>
<asrwt>0</asrwt>
<pdfrwt beam="1">  1        1 0.29950505E+00 0.19927567E+04</pdfrwt>
<pdfrwt beam="2">  1       -1 0.78454469E-01 0.19927567E+04</pdfrwt>
<totfact> 0.48873389E+00</totfact>
</mgrwt>
</event>
<event>
12    1  0.1980523E-007  0.2500261E+04  0.7818608E-02  0.8402893E-01
         -2   -1    0    0    0  501 -0.00000000000E+00  0.00000000000E+00  0.48511932580E+03  0.48511932580E+03  0.00000000000E+00 0.  1.
          2   -1    0    0  501    0  0.00000000000E+00 -0.00000000000E+00 -0.32215295469E+04  0.32215295469E+04  0.00000000000E+00 0. -1.
         23    2    1    2    0    0 -0.25091622336E+03  0.68186580455E+03 -0.23920167536E+04  0.25016566274E+04  0.92961310209E+02 0.  0.
        254    2    1    2    0    0  0.25091622336E+03 -0.68186580455E+03 -0.34439346749E+03  0.12049922453E+04  0.89749625306E+03 0.  0.
        -24    2    4    4    0    0  0.37978489766E+03 -0.63458228161E+03 -0.56461988541E+03  0.93363586037E+03  0.77130176505E+02 0.  0.
         24    2    4    4    0    0 -0.12886867430E+03 -0.47283522940E+02  0.22022641792E+03  0.27135638495E+03  0.79320525381E+02 0.  0.
         11    1    3    3    0    0 -0.19672150893E+03  0.40497758615E+03 -0.14923565778E+04  0.15587925945E+04  0.00000000000E+00 0. -1.
        -11    1    3    3    0    0 -0.54194714434E+02  0.27688821841E+03 -0.89966017582E+03  0.94286403289E+03  0.00000000000E+00 0.  1.
          4    1    6    6  502    0 -0.40076490921E+02 -0.36070271103E+01  0.13464407357E+03  0.14052815489E+03  0.00000000000E+00 0. -1.
          3    1    5    5  503    0  0.98031671650E+02 -0.20389565619E+03 -0.20955902333E+03  0.30838066009E+03  0.00000000000E+00 0. -1.
         -4    1    5    5    0  503  0.28175322601E+03 -0.43068662543E+03 -0.35506086208E+03  0.62525520028E+03  0.00000000000E+00 0.  1.
         -1    1    6    6    0  502 -0.88792183377E+02 -0.43676495830E+02  0.85582344353E+02  0.13082823006E+03  0.00000000000E+00 0.  1.
<mgrwt>
<rscale>  0 0.25002610E+04</rscale>
<asrwt>0</asrwt>
<pdfrwt beam="1">  1        2 0.49561990E+00 0.25002610E+04</pdfrwt>
<pdfrwt beam="2">  1       -2 0.74633747E-01 0.25002610E+04</pdfrwt>
<totfact> 0.18083180E+00</totfact>
</mgrwt>
</event>
<event>
12    1  0.1980523E-007  0.1977731E+04  0.7818608E-02  0.8617104E-01
         -2   -1    0    0    0  501 -0.00000000000E+00  0.00000000000E+00  0.44457746817E+03  0.44457746817E+03  0.00000000000E+00 0.  1.
          2   -1    0    0  501    0  0.00000000000E+00 -0.00000000000E+00 -0.21995150778E+04  0.21995150778E+04  0.00000000000E+00 0. -1.
         23    2    1    2    0    0 -0.26556374351E+03  0.41791992512E+03  0.11021343453E+03  0.51546620298E+03  0.91527261433E+02 0.  0.
        254    2    1    2    0    0  0.26556374351E+03 -0.41791992512E+03 -0.18651510442E+04  0.21286263430E+04  0.89837660526E+03 0.  0.
        -24    2    4    4    0    0  0.54825515877E+03 -0.36094000331E+03 -0.89161356197E+03  0.11100780732E+04  0.80232036700E+02 0.  0.
         24    2    4    4    0    0 -0.28269141526E+03 -0.56979921807E+02 -0.97353748219E+03  0.10185482697E+04  0.80648625626E+02 0.  0.
         13    1    3    3    0    0 -0.30499170814E+02  0.10502979709E+03  0.18280442869E+01  0.10938372568E+03  0.00000000000E+00 0. -1.
        -13    1    3    3    0    0 -0.23506457269E+03  0.31289012803E+03  0.10838539024E+03  0.40608247730E+03  0.00000000000E+00 0.  1.
          4    1    6    6  502    0 -0.20542987597E+03 -0.48649077550E+02 -0.57558099171E+03  0.61307556199E+03  0.00000000000E+00 0. -1.
          3    1    5    5  503    0  0.52376414383E+03 -0.32431090783E+03 -0.84736596308E+03  0.10476332940E+04  0.00000000000E+00 0. -1.
         -4    1    5    5    0  503  0.24491014939E+02 -0.36629095484E+02 -0.44247598888E+02  0.62444779254E+02  0.00000000000E+00 0.  1.
         -3    1    6    6    0  502 -0.77261539290E+02 -0.83308442572E+01 -0.39795649048E+03  0.40547270775E+03  0.00000000000E+00 0.  1.
<mgrwt>
<rscale>  0 0.19777309E+04</rscale>
<asrwt>0</asrwt>
<pdfrwt beam="1">  1        2 0.33838694E+00 0.19777309E+04</pdfrwt>
<pdfrwt beam="2">  1       -2 0.68396534E-01 0.19777309E+04</pdfrwt>
<totfact> 0.94037705E+00</totfact>
</mgrwt>
</event>
<event>
12    1  0.1980523E-007  0.1522105E+04  0.7818608E-02  0.8869885E-01
          2   -1    0    0  501    0  0.00000000000E+00  0.00000000000E+00  0.20838546644E+04  0.20838546644E+04  0.00000000000E+00 0.  1.
         -2   -1    0    0    0  501 -0.00000000000E+00 -0.00000000000E+00 -0.27794680895E+03  0.27794680895E+03  0.00000000000E+00 0. -1.
         23    2    1    2    0    0  0.60645922421E+02 -0.47496001668E+01  0.13486639990E+04  0.13530081719E+04  0.89643985810E+02 0.  0.
        254    2    1    2    0    0 -0.60645922421E+02  0.47496001668E+01  0.45724385643E+03  0.10087933015E+04  0.89715745236E+03 0.  0.
        -24    2    4    4    0    0 -0.79478335994E+02  0.14333925854E+03  0.69668139453E+03  0.72019339491E+03  0.80315699946E+02 0.  0.
         24    2    4    4    0    0  0.18832413573E+02 -0.13858965837E+03 -0.23943753810E+03  0.28859990660E+03  0.79986362766E+02 0.  0.
         13    1    3    3    0    0  0.73498514314E+02 -0.17191348343E+02  0.69272448503E+03  0.69682478875E+03  0.00000000000E+00 0. -1.
        -13    1    3    3    0    0 -0.12852591894E+02  0.12441748176E+02  0.65593951401E+03  0.65618338310E+03  0.00000000000E+00 0.  1.
          2    1    6    6  502    0 -0.42838499129E+01 -0.10791484733E+02  0.43323174178E+01  0.12392598074E+02  0.00000000000E+00 0. -1.
          3    1    5    5  503    0 -0.73243111182E+02  0.59467380199E+02  0.29193035998E+03  0.30679676941E+03  0.00000000000E+00 0. -1.
         -4    1    5    5    0  503 -0.62352248119E+01  0.83871878339E+02  0.40475103455E+03  0.41339662550E+03  0.00000000000E+00 0.  1.
         -1    1    6    6    0  502  0.23116263486E+02 -0.12779817364E+03 -0.24376985552E+03  0.27620730852E+03  0.00000000000E+00 0.  1.
<mgrwt>
<rscale>  0 0.15221048E+04</rscale>
<asrwt>0</asrwt>
<pdfrwt beam="1">  1        2 0.32059301E+00 0.15221048E+04</pdfrwt>
<pdfrwt beam="2">  1       -2 0.42761049E-01 0.15221048E+04</pdfrwt>
<totfact> 0.30020302E+01</totfact>
</mgrwt>
</event>
<event>
12    1  0.1980523E-007  0.1790365E+04  0.7818608E-02  0.8711440E-01
          1   -1    0    0  501    0  0.00000000000E+00  0.00000000000E+00  0.73205273690E+03  0.73205273690E+03  0.00000000000E+00 0. -1.
         -1   -1    0    0    0  501 -0.00000000000E+00 -0.00000000000E+00 -0.10946642404E+04  0.10946642404E+04  0.00000000000E+00 0.  1.
         23    2    1    2    0    0 -0.65452347817E+03  0.11450903967E+03 -0.14798650852E+03  0.68687156184E+03  0.91538145706E+02 0.  0.
        254    2    1    2    0    0  0.65452347817E+03 -0.11450903967E+03 -0.21462499499E+03  0.11398454155E+04  0.90092751042E+03 0.  0.
        -24    2    4    4    0    0  0.80693263972E+03 -0.19819757402E+02 -0.36818168976E+03  0.89042834938E+03  0.75972237529E+02 0.  0.
         24    2    4    4    0    0 -0.15240916155E+03 -0.94689282266E+02  0.15355669477E+03  0.24941706608E+03  0.80215968760E+02 0.  0.
         13    1    3    3    0    0 -0.37680464810E+03  0.11168167205E+03 -0.86625610604E+02  0.40244072248E+03  0.00000000000E+00 0. -1.
        -13    1    3    3    0    0 -0.27771883007E+03  0.28273676173E+01 -0.61360897912E+02  0.28443083936E+03  0.00000000000E+00 0.  1.
          2    1    6    6  502    0 -0.15347649840E+03 -0.90063754139E+02  0.11794180006E+03  0.21348719767E+03  0.00000000000E+00 0. -1.
          3    1    5    5  503    0  0.70822534612E+03  0.56900841231E+01 -0.31083275053E+03  0.77345492225E+03  0.00000000000E+00 0. -1.
         -4    1    5    5    0  503  0.98707293594E+02 -0.25509841525E+02 -0.57348939232E+02  0.11697342713E+03  0.00000000000E+00 0.  1.
         -1    1    6    6    0  502  0.10673368488E+01 -0.46255281268E+01  0.35614894713E+02  0.35929868408E+02  0.00000000000E+00 0.  1.
<mgrwt>
<rscale>  0 0.17903653E+04</rscale>
<asrwt>0</asrwt>
<pdfrwt beam="1">  1        1 0.11262350E+00 0.17903653E+04</pdfrwt>
<pdfrwt beam="2">  1       -1 0.16840988E+00 0.17903653E+04</pdfrwt>
<totfact> 0.60717719E+00</totfact>
</mgrwt>
</event>
<event>
12    1  0.1980523E-007  0.3184221E+04  0.7818608E-02  0.8192997E-01
         -1   -1    0    0    0  501 -0.00000000000E+00  0.00000000000E+00  0.83932208885E+03  0.83932208885E+03  0.00000000000E+00 0.  1.
          1   -1    0    0  501    0  0.00000000000E+00 -0.00000000000E+00 -0.30200749786E+04  0.30200749786E+04  0.00000000000E+00 0. -1.
         23    2    1    2    0    0  0.12360257015E+04 -0.33479730237E+03 -0.14523528141E+03  0.12920782015E+04  0.92325637268E+02 0.  0.
        254    2    1    2    0    0 -0.12360257015E+04  0.33479730237E+03 -0.20355176083E+04  0.25673188659E+04  0.89885786256E+03 0.  0.
        -24    2    4    4    0    0 -0.12069300779E+04 -0.98035831586E+01 -0.15769293366E+04  0.19874807773E+04  0.81224283728E+02 0.  0.
         24    2    4    4    0    0 -0.29095623636E+02  0.34460088553E+03 -0.45858827175E+03  0.57983808867E+03  0.79452378642E+02 0.  0.
         11    1    3    3    0    0  0.55402011721E+03 -0.17750529980E+03 -0.10375540672E+03  0.59094128824E+03  0.00000000000E+00 0. -1.
        -11    1    3    3    0    0  0.68200558432E+03 -0.15729200257E+03 -0.41479874690E+02  0.70113691325E+03  0.00000000000E+00 0.  1.
          4    1    6    6  502    0 -0.16020027562E+02  0.21548381856E+03 -0.22078277459E+03  0.30892547790E+03  0.00000000000E+00 0. -1.
          1    1    5    5  503    0 -0.74007482886E+03  0.11885197136E+01 -0.10299888899E+04  0.12683017300E+04  0.00000000000E+00 0. -1.
         -2    1    5    5    0  503 -0.46685524903E+03 -0.10992102872E+02 -0.54694044669E+03  0.71917904732E+03  0.00000000000E+00 0.  1.
         -3    1    6    6    0  502 -0.13075596073E+02  0.12911706697E+03 -0.23780549716E+03  0.27091261077E+03  0.00000000000E+00 0.  1.
<mgrwt>
<rscale>  0 0.31842209E+04</rscale>
<asrwt>0</asrwt>
<pdfrwt beam="1">  1        1 0.46462692E+00 0.31842209E+04</pdfrwt>
<pdfrwt beam="2">  1       -1 0.12912648E+00 0.31842209E+04</pdfrwt>
<totfact> 0.24952953E-01</totfact>
</mgrwt>
</event>
<event>
12    1  0.1980523E-007  0.1497657E+04  0.7818608E-02  0.8886013E-01
          1   -1    0    0  501    0  0.00000000000E+00  0.00000000000E+00  0.14503898619E+04  0.14503898619E+04  0.00000000000E+00 0. -1.
         -1   -1    0    0    0  501 -0.00000000000E+00 -0.00000000000E+00 -0.38661600559E+03  0.38661600559E+03  0.00000000000E+00 0.  1.
         23    2    1    2    0    0 -0.34755676212E+03 -0.27081928268E+03  0.55304688082E+03  0.71272906357E+03  0.89348077266E+02 0.  0.
        254    2    1    2    0    0  0.34755676212E+03  0.27081928268E+03  0.51072697552E+03  0.11242768039E+04  0.89945400194E+03 0.  0.
        -24    2    4    4    0    0  0.42518580893E+03  0.31908485270E+02  0.68214080004E+03  0.80832432359E+03  0.79189756122E+02 0.  0.
         24    2    4    4    0    0 -0.77629046811E+02  0.23891079741E+03 -0.17141382452E+03  0.31595248036E+03  0.85665819212E+02 0.  0.
         11    1    3    3    0    0 -0.73817340543E+02 -0.18727636373E+02  0.11530483247E+03  0.13818440042E+03  0.00000000000E+00 0.  1.
        -11    1    3    3    0    0 -0.27373942158E+03 -0.25209164630E+03  0.43774204835E+03  0.57454466315E+03  0.00000000000E+00 0. -1.
          4    1    6    6  502    0  0.12795922676E+02  0.18084976634E+02 -0.34033641553E+02  0.40608998687E+02  0.00000000000E+00 0. -1.
          3    1    5    5  503    0  0.22259791569E+03  0.11931727443E+02  0.42922590159E+03  0.48366007979E+03  0.00000000000E+00 0. -1.
         -4    1    5    5    0  503  0.20258789324E+03  0.19976757828E+02  0.25291489846E+03  0.32466424380E+03  0.00000000000E+00 0.  1.
         -3    1    6    6    0  502 -0.90424969487E+02  0.22082582077E+03 -0.13738018297E+03  0.27534348167E+03  0.00000000000E+00 0.  1.
<mgrwt>
<rscale>  0 0.14976567E+04</rscale>
<asrwt>0</asrwt>
<pdfrwt beam="1">  1        1 0.22313690E+00 0.14976567E+04</pdfrwt>
<pdfrwt beam="2">  1       -1 0.59479386E-01 0.14976567E+04</pdfrwt>
<totfact> 0.19636641E+01</totfact>
</mgrwt>
</event>
<event>
12    1  0.1980523E-007  0.2099228E+04  0.7818608E-02  0.8561584E-01
          2   -1    0    0  501    0  0.00000000000E+00  0.00000000000E+00  0.15391148076E+04  0.15391148076E+04  0.00000000000E+00 0. -1.
         -2   -1    0    0    0  501 -0.00000000000E+00 -0.00000000000E+00 -0.71579416515E+03  0.71579416515E+03  0.00000000000E+00 0.  1.
         23    2    1    2    0    0  0.43653081227E+03  0.36818760324E+03 -0.34489514285E+03  0.67381877614E+03  0.94645772674E+02 0.  0.
        254    2    1    2    0    0 -0.43653081227E+03 -0.36818760324E+03  0.11682157853E+04  0.15810901966E+04  0.89944250933E+03 0.  0.
        -24    2    4    4    0    0 -0.32912434254E+03  0.25349092734E+03  0.38390039177E+03  0.57131517672E+03  0.80256072975E+02 0.  0.
         24    2    4    4    0    0 -0.10740646973E+03 -0.62167853058E+03  0.78431539355E+03  0.10097750199E+04  0.80464956216E+02 0.  0.
         13    1    3    3    0    0  0.21691078130E+03  0.23152737777E+03 -0.15613138034E+03  0.35359895592E+03  0.00000000000E+00 0. -1.
        -13    1    3    3    0    0  0.21962003097E+03  0.13666022547E+03 -0.18876376251E+03  0.32021982023E+03  0.00000000000E+00 0.  1.
          4    1    6    6  502    0 -0.12726473784E+02 -0.65083980640E+02  0.47754861583E+02  0.81721566772E+02  0.00000000000E+00 0. -1.
          1    1    5    5  503    0 -0.64931870351E+02  0.94599684967E+02  0.10901097324E+03  0.15826762294E+03  0.00000000000E+00 0. -1.
         -2    1    5    5    0  503 -0.26419247219E+03  0.15889124237E+03  0.27488941853E+03  0.41304755378E+03  0.00000000000E+00 0.  1.
         -3    1    6    6    0  502 -0.94679995949E+02 -0.55659454994E+03  0.73656053196E+03  0.92805345314E+03  0.00000000000E+00 0.  1.
<mgrwt>
<rscale>  0 0.20992279E+04</rscale>
<asrwt>0</asrwt>
<pdfrwt beam="1">  1        2 0.23678689E+00 0.20992279E+04</pdfrwt>
<pdfrwt beam="2">  1       -2 0.11012218E+00 0.20992279E+04</pdfrwt>
<totfact> 0.72868822E+00</totfact>
</mgrwt>
</event>
<event>
12    1  0.1980523E-007  0.1397553E+04  0.7818608E-02  0.8955592E-01
         -2   -1    0    0    0  501 -0.00000000000E+00  0.00000000000E+00  0.50967199700E+03  0.50967199700E+03  0.00000000000E+00 0.  1.
          2   -1    0    0  501    0  0.00000000000E+00 -0.00000000000E+00 -0.95804448273E+03  0.95804448273E+03  0.00000000000E+00 0. -1.
         23    2    1    2    0    0 -0.37650507695E+03  0.14394179099E+03 -0.14575784614E+03  0.43779826626E+03  0.89144041088E+02 0.  0.
        254    2    1    2    0    0  0.37650507695E+03 -0.14394179099E+03 -0.30261463959E+03  0.10299182135E+04  0.89815399247E+03 0.  0.
        -24    2    4    4    0    0  0.31272277320E+03  0.33202659698E+03 -0.12233805832E+02  0.46300920938E+03  0.78680798035E+02 0.  0.
         24    2    4    4    0    0  0.63782303748E+02 -0.47596838797E+03 -0.29038083375E+03  0.56690900410E+03  0.80316260463E+02 0.  0.
         13    1    3    3    0    0 -0.34346575374E+03  0.10839993543E+03 -0.14760084162E+03  0.38923678968E+03  0.00000000000E+00 0. -1.
        -13    1    3    3    0    0 -0.33039323209E+02  0.35541855558E+02  0.18429954795E+01  0.48561476573E+02  0.00000000000E+00 0.  1.
          4    1    6    6  502    0 -0.15034859730E+02 -0.16398026555E+03 -0.87040127317E+02  0.18625669990E+03  0.00000000000E+00 0. -1.
          1    1    5    5  503    0  0.97101491332E+02  0.63287961818E+02 -0.23559525396E+02  0.11827559751E+03  0.00000000000E+00 0. -1.
         -2    1    5    5    0  503  0.21562128187E+03  0.26873863517E+03  0.11325719564E+02  0.34473361187E+03  0.00000000000E+00 0.  1.
         -3    1    6    6    0  502  0.78817163478E+02 -0.31198812243E+03 -0.20334070644E+03  0.38065230420E+03  0.00000000000E+00 0.  1.
<mgrwt>
<rscale>  0 0.13975528E+04</rscale>
<asrwt>0</asrwt>
<pdfrwt beam="1">  1        2 0.14739146E+00 0.13975528E+04</pdfrwt>
<pdfrwt beam="2">  1       -2 0.78411076E-01 0.13975528E+04</pdfrwt>
<totfact> 0.37765757E+01</totfact>
</mgrwt>
</event>
<event>
12    1  0.1980523E-007  0.2170692E+04  0.7818608E-02  0.8530727E-01
          2   -1    0    0  501    0  0.00000000000E+00  0.00000000000E+00  0.42615916466E+04  0.42615916466E+04  0.00000000000E+00 0. -1.
         -2   -1    0    0    0  501 -0.00000000000E+00 -0.00000000000E+00 -0.27641678310E+03  0.27641678310E+03  0.00000000000E+00 0.  1.
         23    2    1    2    0    0 -0.38546091175E+03 -0.11732463827E+03 -0.19902334954E+02  0.41317667550E+03  0.89295447847E+02 0.  0.
        254    2    1    2    0    0  0.38546091175E+03  0.11732463827E+03  0.40050771985E+04  0.41248317542E+04  0.90069331612E+03 0.  0.
        -24    2    4    4    0    0 -0.10050461038E+03  0.49500198754E+02  0.67509544339E+02  0.15602652620E+03  0.85060519135E+02 0.  0.
         24    2    4    4    0    0  0.48596552214E+03  0.67824439520E+02  0.39375676541E+04  0.39688052280E+04  0.78824259324E+02 0.  0.
         11    1    3    3    0    0 -0.20860983003E+03 -0.10652945864E+03 -0.27428723823E+02  0.23583664184E+03  0.00000000000E+00 0.  1.
        -11    1    3    3    0    0 -0.17685108172E+03 -0.10795179632E+02  0.75263888690E+01  0.17734003366E+03  0.00000000000E+00 0. -1.
          2    1    6    6  502    0  0.10386632277E+03  0.43935005199E+02  0.77929497703E+03  0.78741295323E+03  0.00000000000E+00 0. -1.
          3    1    5    5  503    0  0.78914230922E+01 -0.13241291748E+02  0.78624821246E+01  0.17303901027E+02  0.00000000000E+00 0. -1.
         -4    1    5    5    0  503 -0.10839603347E+03  0.62741490502E+02  0.59647062215E+02  0.13872262517E+03  0.00000000000E+00 0.  1.
         -1    1    6    6    0  502  0.38209919936E+03  0.23889434321E+02  0.31582726771E+04  0.31813922748E+04  0.00000000000E+00 0.  1.
<mgrwt>
<rscale>  0 0.21706916E+04</rscale>
<asrwt>0</asrwt>
<pdfrwt beam="1">  1        2 0.65562944E+00 0.21706916E+04</pdfrwt>
<pdfrwt beam="2">  1       -2 0.42525662E-01 0.21706916E+04</pdfrwt>
<totfact> 0.99588327E-01</totfact>
</mgrwt>
</event>
<event>
12    1  0.1980523E-007  0.3745302E+04  0.7818608E-02  0.8057996E-01
         -1   -1    0    0    0  501 -0.00000000000E+00  0.00000000000E+00  0.12926380065E+04  0.12926380065E+04  0.00000000000E+00 0.  1.
          1   -1    0    0  501    0  0.00000000000E+00 -0.00000000000E+00 -0.27129189306E+04  0.27129189306E+04  0.00000000000E+00 0. -1.
         23    2    1    2    0    0  0.34667449450E+03  0.12411486738E+04  0.61777076894E+03  0.14318839020E+04  0.89540774582E+02 0.  0.
        254    2    1    2    0    0 -0.34667449450E+03 -0.12411486738E+04 -0.20380516930E+04  0.25736730351E+04  0.89972493155E+03 0.  0.
        -24    2    4    4    0    0  0.10049809548E+02 -0.25340627622E+03  0.15383590748E+02  0.26588791577E+03  0.78383604075E+02 0.  0.
         24    2    4    4    0    0 -0.35672430405E+03 -0.98774239757E+03 -0.20534352838E+04  0.23077851193E+04  0.79927587247E+02 0.  0.
         13    1    3    3    0    0  0.31611529566E+03  0.11229517945E+04  0.58713261436E+03  0.13060146706E+04  0.00000000000E+00 0.  1.
        -13    1    3    3    0    0  0.30559198838E+02  0.11819687926E+03  0.30638154581E+02  0.12586923141E+03  0.00000000000E+00 0. -1.
          4    1    6    6  502    0 -0.22956753301E+03 -0.53925076052E+03 -0.10943144227E+04  0.12413769333E+04  0.00000000000E+00 0. -1.
          3    1    5    5  503    0  0.27832321660E+02 -0.19536428905E+03 -0.15186034033E+02  0.19792033548E+03  0.00000000000E+00 0. -1.
         -4    1    5    5    0  503 -0.17782512112E+02 -0.58041987169E+02  0.30569624781E+02  0.67967580292E+02  0.00000000000E+00 0.  1.
         -3    1    6    6    0  502 -0.12715677103E+03 -0.44849163705E+03 -0.95912086110E+03  0.10664081860E+04  0.00000000000E+00 0.  1.
<mgrwt>
<rscale>  0 0.37453022E+04</rscale>
<asrwt>0</asrwt>
<pdfrwt beam="1">  1        1 0.41737214E+00 0.37453022E+04</pdfrwt>
<pdfrwt beam="2">  1       -1 0.19886738E+00 0.37453022E+04</pdfrwt>
<totfact> 0.11767506E-01</totfact>
</mgrwt>
</event>
<event>
12    1  0.1980523E-007  0.1692551E+04  0.7818608E-02  0.8765624E-01
         -3   -1    0    0    0  501 -0.00000000000E+00  0.00000000000E+00  0.17049840605E+04  0.17049840605E+04  0.00000000000E+00 0.  1.
          3   -1    0    0  501    0  0.00000000000E+00 -0.00000000000E+00 -0.42005224542E+03  0.42005224542E+03  0.00000000000E+00 0. -1.
         23    2    1    2    0    0 -0.24952196602E+03  0.43528410753E+03  0.44079554619E+02  0.51200625865E+03  0.92053983994E+02 0.  0.
        254    2    1    2    0    0  0.24952196602E+03 -0.43528410753E+03  0.12408522605E+04  0.16130300473E+04  0.90023226745E+03 0.  0.
        -24    2    4    4    0    0  0.51163472640E+03 -0.83893558581E+02  0.39608357456E+03  0.65740873389E+03  0.80596668140E+02 0.  0.
         24    2    4    4    0    0 -0.26211276039E+03 -0.35139054895E+03  0.84476868592E+03  0.95562131342E+03  0.86020607368E+02 0.  0.
         11    1    3    3    0    0 -0.20757169458E+03  0.30716463469E+03  0.18298432454E+01  0.37072829609E+03  0.00000000000E+00 0.  1.
        -11    1    3    3    0    0 -0.41950271435E+02  0.12811947283E+03  0.42249711374E+02  0.14127796256E+03  0.00000000000E+00 0. -1.
          4    1    6    6  502    0 -0.10263990499E+02 -0.60335967138E+02  0.99052758238E+02  0.11643550724E+03  0.00000000000E+00 0. -1.
          1    1    5    5  503    0  0.75903087832E+01  0.92639610871E+01  0.68918178211E+01  0.13817775339E+02  0.00000000000E+00 0. -1.
         -2    1    5    5    0  503  0.50404441762E+03 -0.93157519668E+02  0.38919175674E+03  0.64359095855E+03  0.00000000000E+00 0.  1.
         -3    1    6    6    0  502 -0.25184876989E+03 -0.29105458181E+03  0.74571592768E+03  0.83918580618E+03  0.00000000000E+00 0.  1.
<mgrwt>
<rscale>  0 0.16925512E+04</rscale>
<asrwt>0</asrwt>
<pdfrwt beam="1">  1        3 0.64623423E-01 0.16925512E+04</pdfrwt>
<pdfrwt beam="2">  1       -3 0.26230524E+00 0.16925512E+04</pdfrwt>
<totfact> 0.35934398E-01</totfact>
</mgrwt>
</event>
<event>
12    1  0.1980523E-007  0.2444652E+04  0.7818608E-02  0.8422973E-01
          1   -1    0    0  501    0  0.00000000000E+00  0.00000000000E+00  0.10824403214E+04  0.10824403214E+04  0.00000000000E+00 0. -1.
         -1   -1    0    0    0  501 -0.00000000000E+00 -0.00000000000E+00 -0.13802898987E+04  0.13802898987E+04  0.00000000000E+00 0.  1.
         23    2    1    2    0    0 -0.41318156949E+03 -0.38986310101E+03 -0.10250103803E+04  0.11754199589E+04  0.90849068230E+02 0.  0.
        254    2    1    2    0    0  0.41318156949E+03  0.38986310101E+03  0.72716080293E+03  0.12873102612E+04  0.89760382592E+03 0.  0.
        -24    2    4    4    0    0 -0.10899403731E+02  0.13238331461E+03  0.76775586777E+03  0.78326536804E+03  0.80071376205E+02 0.  0.
         24    2    4    4    0    0  0.42408097322E+03  0.25747978641E+03 -0.40595064842E+02  0.50404489313E+03  0.79200901177E+02 0.  0.
         13    1    3    3    0    0 -0.60987686695E+02 -0.98157440155E+02 -0.16597827811E+03  0.20224532081E+03  0.00000000000E+00 0. -1.
        -13    1    3    3    0    0 -0.35219388279E+03 -0.29170566086E+03 -0.85903210221E+03  0.97317463812E+03  0.00000000000E+00 0.  1.
          4    1    6    6  502    0  0.25072734608E+03  0.19636137894E+03 -0.20276034443E+02  0.31911300629E+03  0.00000000000E+00 0. -1.
          1    1    5    5  503    0 -0.32492697423E+02  0.64064034193E+02  0.53299676414E+03  0.53781551340E+03  0.00000000000E+00 0. -1.
         -2    1    5    5    0  503  0.21593293692E+02  0.68319280415E+02  0.23475910363E+03  0.24544985465E+03  0.00000000000E+00 0.  1.
         -3    1    6    6    0  502  0.17335362714E+03  0.61118407464E+02 -0.20319030399E+02  0.18493188684E+03  0.00000000000E+00 0.  1.
<mgrwt>
<rscale>  0 0.24446525E+04</rscale>
<asrwt>0</asrwt>
<pdfrwt beam="1">  1        1 0.16652928E+00 0.24446525E+04</pdfrwt>
<pdfrwt beam="2">  1       -1 0.21235229E+00 0.24446525E+04</pdfrwt>
<totfact> 0.14460398E+00</totfact>
</mgrwt>
</event>
<event>
12    1  0.1980523E-007  0.1278216E+04  0.7818608E-02  0.9047021E-01
          1   -1    0    0  501    0  0.00000000000E+00  0.00000000000E+00  0.11500077076E+04  0.11500077076E+04  0.00000000000E+00 0. -1.
         -1   -1    0    0    0  501 -0.00000000000E+00 -0.00000000000E+00 -0.35517927279E+03  0.35517927279E+03  0.00000000000E+00 0.  1.
         23    2    1    2    0    0 -0.96658013212E+02 -0.14809635772E+03  0.50655497528E+03  0.54480035422E+03  0.94520792900E+02 0.  0.
        254    2    1    2    0    0  0.96658013212E+02  0.14809635772E+03  0.28827345955E+03  0.96038662619E+03  0.89886905697E+03 0.  0.
        -24    2    4    4    0    0 -0.38802012843E+03  0.71795571872E+02  0.21976782834E+03  0.45865739941E+03  0.79715039055E+02 0.  0.
         24    2    4    4    0    0  0.48467814164E+03  0.76300785853E+02  0.68505631217E+02  0.50172922678E+03  0.79400784534E+02 0.  0.
         11    1    3    3    0    0 -0.33490012646E+02 -0.63023979267E+02  0.89375609553E+02  0.11437483330E+03  0.00000000000E+00 0.  1.
        -11    1    3    3    0    0 -0.63168000566E+02 -0.85072378458E+02  0.41717936573E+03  0.43042552092E+03  0.00000000000E+00 0. -1.
          4    1    6    6  502    0  0.30174099978E+03  0.70762618552E+02  0.73948704418E+02  0.31862735290E+03  0.00000000000E+00 0. -1.
          1    1    5    5  503    0 -0.48352157822E+02 -0.12274163153E+02  0.10633171231E+02  0.51006377812E+02  0.00000000000E+00 0. -1.
         -2    1    5    5    0  503 -0.33966797061E+03  0.84069735025E+02  0.20913465711E+03  0.40765102160E+03  0.00000000000E+00 0.  1.
         -3    1    6    6    0  502  0.18293714187E+03  0.55381673006E+01 -0.54430732012E+01  0.18310187388E+03  0.00000000000E+00 0.  1.
<mgrwt>
<rscale>  0 0.12782158E+04</rscale>
<asrwt>0</asrwt>
<pdfrwt beam="1">  1        1 0.17692426E+00 0.12782158E+04</pdfrwt>
<pdfrwt beam="2">  1       -1 0.54642965E-01 0.12782158E+04</pdfrwt>
<totfact> 0.38727924E+01</totfact>
</mgrwt>
</event>
<event>
12    1  0.1980523E-007  0.1451620E+04  0.7818608E-02  0.8917278E-01
         -2   -1    0    0    0  501 -0.00000000000E+00  0.00000000000E+00  0.31178347168E+03  0.31178347168E+03  0.00000000000E+00 0.  1.
          2   -1    0    0  501    0  0.00000000000E+00 -0.00000000000E+00 -0.16896353445E+04  0.16896353445E+04  0.00000000000E+00 0. -1.
         23    2    1    2    0    0 -0.35596363437E+03 -0.21633554142E+03 -0.22431298032E+03  0.48078963412E+03  0.85622331511E+02 0.  0.
        254    2    1    2    0    0  0.35596363437E+03  0.21633554142E+03 -0.11535388925E+04  0.15206291821E+04  0.89897161099E+03 0.  0.
        -24    2    4    4    0    0 -0.31988477522E+02 -0.29497069210E+03 -0.19392671820E+03  0.36352304930E+03  0.80687442986E+02 0.  0.
         24    2    4    4    0    0  0.38795211190E+03  0.51130623352E+03 -0.95961217433E+03  0.11571061328E+04  0.78090792311E+02 0.  0.
         11    1    3    3    0    0 -0.40854589896E+02 -0.62305966881E+02 -0.40515585335E+02  0.84809455131E+02  0.00000000000E+00 0. -1.
        -11    1    3    3    0    0 -0.31510904448E+03 -0.15402957454E+03 -0.18379739499E+03  0.39598017898E+03  0.00000000000E+00 0.  1.
          4    1    6    6  502    0  0.15973989204E+03  0.27401387907E+03 -0.45801391731E+03  0.55711505767E+03  0.00000000000E+00 0. -1.
          3    1    5    5  503    0  0.20686515494E+02 -0.17353629481E+03 -0.10180296931E+03  0.20225385559E+03  0.00000000000E+00 0. -1.
         -4    1    5    5    0  503 -0.52674993016E+02 -0.12143439729E+03 -0.92123748883E+02  0.16126919372E+03  0.00000000000E+00 0.  1.
         -3    1    6    6    0  502  0.22821221985E+03  0.23729235444E+03 -0.50159825702E+03  0.59999107511E+03  0.00000000000E+00 0.  1.
<mgrwt>
<rscale>  0 0.14516203E+04</rscale>
<asrwt>0</asrwt>
<pdfrwt beam="1">  1        2 0.25994390E+00 0.14516203E+04</pdfrwt>
<pdfrwt beam="2">  1       -2 0.47966688E-01 0.14516203E+04</pdfrwt>
<totfact> 0.39677125E+01</totfact>
</mgrwt>
</event>
<event>
12    1  0.1980523E-007  0.2782008E+04  0.7818608E-02  0.8308876E-01
          2   -1    0    0  501    0  0.00000000000E+00  0.00000000000E+00  0.16433101839E+04  0.16433101839E+04  0.00000000000E+00 0. -1.
         -2   -1    0    0    0  501 -0.00000000000E+00 -0.00000000000E+00 -0.11774358799E+04  0.11774358799E+04  0.00000000000E+00 0.  1.
         23    2    1    2    0    0 -0.88467677472E+03 -0.83897077726E+03 -0.39125208741E+02  0.12232636176E+04  0.91203811897E+02 0.  0.
        254    2    1    2    0    0  0.88467677472E+03  0.83897077726E+03  0.50499951270E+03  0.15974824462E+04  0.90022258212E+03 0.  0.
        -24    2    4    4    0    0  0.31988570798E+02  0.37363095160E+03 -0.16177941553E+03  0.41654211109E+03  0.81923100347E+02 0.  0.
         24    2    4    4    0    0  0.85268820392E+03  0.46533982566E+03  0.66677892823E+03  0.11809403351E+04  0.80047545672E+02 0.  0.
         13    1    3    3    0    0 -0.65859665089E+03 -0.63664638838E+03  0.91586738200E+01  0.91605242956E+03  0.00000000000E+00 0.  1.
        -13    1    3    3    0    0 -0.22608012382E+03 -0.20232438888E+03 -0.48283882561E+02  0.30721118801E+03  0.00000000000E+00 0. -1.
          4    1    6    6  502    0  0.60241042283E+03  0.29224644665E+03  0.48084429960E+03  0.82432854104E+03  0.00000000000E+00 0. -1.
          3    1    5    5  503    0  0.33665865811E+02  0.37214196638E+03 -0.14690944559E+03  0.40150394627E+03  0.00000000000E+00 0. -1.
         -4    1    5    5    0  503 -0.16772950127E+01  0.14889852172E+01 -0.14869969931E+02  0.15038164824E+02  0.00000000000E+00 0.  1.
         -3    1    6    6    0  502  0.25027778109E+03  0.17309337901E+03  0.18593462862E+03  0.35661179409E+03  0.00000000000E+00 0.  1.
<mgrwt>
<rscale>  0 0.27820082E+04</rscale>
<asrwt>0</asrwt>
<pdfrwt beam="1">  1        2 0.25281695E+00 0.27820082E+04</pdfrwt>
<pdfrwt beam="2">  1       -2 0.18114398E+00 0.27820082E+04</pdfrwt>
<totfact> 0.16368269E+00</totfact>
</mgrwt>
</event>
<event>
12    1  0.1980523E-007  0.2372668E+04  0.7818608E-02  0.8449808E-01
          1   -1    0    0  501    0  0.00000000000E+00  0.00000000000E+00  0.12903331531E+04  0.12903331531E+04  0.00000000000E+00 0. -1.
         -1   -1    0    0    0  501 -0.00000000000E+00 -0.00000000000E+00 -0.10907171764E+04  0.10907171764E+04  0.00000000000E+00 0.  1.
         23    2    1    2    0    0 -0.83482851641E+02 -0.46516741268E+03 -0.81456581744E+03  0.94576122490E+03  0.87159137472E+02 0.  0.
        254    2    1    2    0    0  0.83482851641E+02  0.46516741268E+03  0.10141817942E+04  0.14352891046E+04  0.89896606938E+03 0.  0.
        -24    2    4    4    0    0  0.23279360313E+03  0.53706407195E+03  0.10872072151E+04  0.12373092225E+04  0.79271082552E+02 0.  0.
         24    2    4    4    0    0 -0.14931075148E+03 -0.71896659268E+02 -0.73025420873E+02  0.19797988216E+03  0.80003071960E+02 0.  0.
         11    1    3    3    0    0 -0.30730355888E+02 -0.11560952498E+03 -0.28447950272E+03  0.30860736301E+03  0.00000000000E+00 0.  1.
        -11    1    3    3    0    0 -0.52752495753E+02 -0.34955788770E+03 -0.53008631472E+03  0.63715386188E+03  0.00000000000E+00 0. -1.
          4    1    6    6  502    0 -0.10507279079E+03 -0.86766058455E+02 -0.44818680154E+02  0.14344808941E+03  0.00000000000E+00 0. -1.
          3    1    5    5  503    0  0.81376118952E+02  0.22655497491E+03  0.37291965217E+03  0.44386743107E+03  0.00000000000E+00 0. -1.
         -4    1    5    5    0  503  0.15141748417E+03  0.31050909703E+03  0.71428756289E+03  0.79344179141E+03  0.00000000000E+00 0.  1.
         -3    1    6    6    0  502 -0.44237960695E+02  0.14869399186E+02 -0.28206740719E+02  0.54531792751E+02  0.00000000000E+00 0.  1.
<mgrwt>
<rscale>  0 0.23726681E+04</rscale>
<asrwt>0</asrwt>
<pdfrwt beam="1">  1        1 0.19851279E+00 0.23726681E+04</pdfrwt>
<pdfrwt beam="2">  1       -1 0.16780264E+00 0.23726681E+04</pdfrwt>
<totfact> 0.21088935E+00</totfact>
</mgrwt>
</event>
<event>
12    1  0.1980523E-007  0.1956189E+04  0.7818608E-02  0.8627382E-01
          1   -1    0    0  501    0  0.00000000000E+00  0.00000000000E+00  0.95385258112E+03  0.95385258112E+03  0.00000000000E+00 0. -1.
         -1   -1    0    0    0  501 -0.00000000000E+00 -0.00000000000E+00 -0.10029526865E+04  0.10029526865E+04  0.00000000000E+00 0.  1.
         23    2    1    2    0    0 -0.12964707567E+03  0.18454601451E+03  0.71762953163E+03  0.75790375799E+03  0.92522246046E+02 0.  0.
        254    2    1    2    0    0  0.12964707567E+03 -0.18454601451E+03 -0.76672963701E+03  0.11989015096E+04  0.89365815490E+03 0.  0.
        -24    2    4    4    0    0  0.17593022878E+03  0.20388466731E+03  0.54002024511E+02  0.28611472302E+03  0.80156179509E+02 0.  0.
         24    2    4    4    0    0 -0.46283153107E+02 -0.38843068182E+03 -0.82073166153E+03  0.91278678661E+03  0.80986003405E+02 0.  0.
         11    1    3    3    0    0 -0.32268083329E+02  0.53772926409E+02  0.35234661329E+03  0.35788390954E+03  0.00000000000E+00 0. -1.
        -11    1    3    3    0    0 -0.97378992339E+02  0.13077308810E+03  0.36528291835E+03  0.40001984845E+03  0.00000000000E+00 0.  1.
          2    1    6    6  502    0 -0.27066816746E+02 -0.15125645504E+03 -0.41355838918E+03  0.44118212682E+03  0.00000000000E+00 0. -1.
          1    1    5    5  503    0  0.21837888018E+02  0.24782855533E+02  0.36460123226E+02  0.49197803478E+02  0.00000000000E+00 0. -1.
         -2    1    5    5    0  503  0.15409234076E+03  0.17910181178E+03  0.17541901285E+02  0.23691691954E+03  0.00000000000E+00 0.  1.
         -1    1    6    6    0  502 -0.19216336360E+02 -0.23717422678E+03 -0.40717327234E+03  0.47160465980E+03  0.00000000000E+00 0.  1.
<mgrwt>
<rscale>  0 0.19561892E+04</rscale>
<asrwt>0</asrwt>
<pdfrwt beam="1">  1        1 0.14674655E+00 0.19561892E+04</pdfrwt>
<pdfrwt beam="2">  1       -1 0.15430041E+00 0.19561892E+04</pdfrwt>
<totfact> 0.49516707E+00</totfact>
</mgrwt>
</event>
<event>
12    1  0.1980523E-007  0.3062429E+04  0.7818608E-02  0.8226125E-01
          1   -1    0    0  501    0  0.00000000000E+00  0.00000000000E+00  0.17785679061E+04  0.17785679061E+04  0.00000000000E+00 0. -1.
         -1   -1    0    0    0  501 -0.00000000000E+00 -0.00000000000E+00 -0.13182619887E+04  0.13182619887E+04  0.00000000000E+00 0.  1.
         23    2    1    2    0    0  0.22445731951E+03 -0.74227312919E+03 -0.96883146588E+03  0.12442225880E+04  0.90027510132E+02 0.  0.
        254    2    1    2    0    0 -0.22445731951E+03  0.74227312919E+03  0.14291373833E+04  0.18526073069E+04  0.88790184513E+03 0.  0.
        -24    2    4    4    0    0 -0.35440128949E+03 -0.50364085896E+02  0.52705563640E+03  0.64207523241E+03  0.79599906183E+02 0.  0.
         24    2    4    4    0    0  0.12994396998E+03  0.79263721508E+03  0.90208174689E+03  0.12105320745E+04  0.80481272291E+02 0.  0.
         11    1    3    3    0    0  0.18264587147E+03 -0.53183898194E+03 -0.75406012666E+03  0.94064812321E+03  0.00000000000E+00 0. -1.
        -11    1    3    3    0    0  0.41811448043E+02 -0.21043414725E+03 -0.21477133922E+03  0.30357446478E+03  0.00000000000E+00 0.  1.
          2    1    6    6  502    0  0.10043717232E+03  0.70389989144E+03  0.76308667650E+03  0.10430071709E+04  0.00000000000E+00 0. -1.
          1    1    5    5  503    0 -0.26458673067E+03 -0.63881571555E+02  0.43203512576E+03  0.51062838065E+03  0.00000000000E+00 0. -1.
         -2    1    5    5    0  503 -0.89814558822E+02  0.13517485659E+02  0.95020510645E+02  0.13144685176E+03  0.00000000000E+00 0.  1.
         -1    1    6    6    0  502  0.29506797665E+02  0.88737323637E+02  0.13899507039E+03  0.16752490354E+03  0.00000000000E+00 0.  1.
<mgrwt>
<rscale>  0 0.30624294E+04</rscale>
<asrwt>0</asrwt>
<pdfrwt beam="1">  1        1 0.27362583E+00 0.30624294E+04</pdfrwt>
<pdfrwt beam="2">  1       -1 0.20280954E+00 0.30624294E+04</pdfrwt>
<totfact> 0.51341930E-01</totfact>
</mgrwt>
</event>
<event>
12    1  0.2318972E-007  0.2841316E+04  0.7818608E-02  0.8290555E-01
          2   -1    0    0  501    0  0.00000000000E+00  0.00000000000E+00  0.24694996031E+04  0.24694996031E+04  0.00000000000E+00 0. -1.
         -2   -1    0    0    0  501 -0.00000000000E+00 -0.00000000000E+00 -0.81727839847E+03  0.81727839847E+03  0.00000000000E+00 0.  1.
         23    2    1    2    0    0  0.34450122603E+03 -0.10934439766E+04  0.94476765776E+02  0.11547063523E+04  0.10059858900E+03 0.  0.
        254    2    1    2    0    0 -0.34450122603E+03  0.10934439766E+04  0.15577444388E+04  0.21320716493E+04  0.89714043285E+03 0.  0.
        -24    2    4    4    0    0 -0.15433826149E+03  0.11845371807E+04  0.11197760549E+04  0.16391962203E+04  0.78212555865E+02 0.  0.
         24    2    4    4    0    0 -0.19016296454E+03 -0.91093204111E+02  0.43796838389E+03  0.49287542902E+03  0.81547276597E+02 0.  0.
         13    1    3    3    0    0  0.29035163742E+03 -0.77855441695E+03  0.81679053448E+02  0.83493863324E+03  0.00000000000E+00 0. -1.
        -13    1    3    3    0    0  0.54149588613E+02 -0.31488955962E+03  0.12797712328E+02  0.31976771905E+03  0.00000000000E+00 0.  1.
          4    1    6    6  502    0 -0.12998078798E+02  0.14781236813E+02  0.37600242544E+02  0.42440702792E+02  0.00000000000E+00 0. -1.
          3    1    5    5  503    0  0.51061131832E+00  0.17980181423E+02  0.31797556409E+02  0.36532618870E+02  0.00000000000E+00 0. -1.
         -4    1    5    5    0  503 -0.15484887281E+03  0.11665569993E+04  0.10879784985E+04  0.16026636014E+04  0.00000000000E+00 0.  1.
         -3    1    6    6    0  502 -0.17716488574E+03 -0.10587444092E+03  0.40036814135E+03  0.45043472622E+03  0.00000000000E+00 0.  1.
<mgrwt>
<rscale>  0 0.28413157E+04</rscale>
<asrwt>0</asrwt>
<pdfrwt beam="1">  1        2 0.37992301E+00 0.28413157E+04</pdfrwt>
<pdfrwt beam="2">  1       -2 0.12573514E+00 0.28413157E+04</pdfrwt>
<totfact> 0.14852122E+00</totfact>
</mgrwt>
</event>
<event>
12    1  0.1980523E-007  0.3064075E+04  0.7818608E-02  0.8225667E-01
         -2   -1    0    0    0  501 -0.00000000000E+00  0.00000000000E+00  0.90039352032E+03  0.90039352032E+03  0.00000000000E+00 0.  1.
          2   -1    0    0  501    0  0.00000000000E+00 -0.00000000000E+00 -0.26067923253E+04  0.26067923253E+04  0.00000000000E+00 0. -1.
         23    2    1    2    0    0 -0.34338102219E+03 -0.33822178540E+03  0.72187750024E+03  0.87291602835E+03  0.92578424433E+02 0.  0.
        254    2    1    2    0    0  0.34338102219E+03  0.33822178540E+03 -0.24282763052E+04  0.26342698172E+04  0.90030392268E+03 0.  0.
        -24    2    4    4    0    0  0.10412717215E+02  0.53167282183E+03 -0.19063709739E+04  0.19807864360E+04  0.80499693899E+02 0.  0.
         24    2    4    4    0    0  0.33296830498E+03 -0.19345103643E+03 -0.52190533127E+03  0.65348338124E+03  0.79775680085E+02 0.  0.
         13    1    3    3    0    0 -0.12013334782E+03 -0.61015374578E+02  0.18952572468E+03  0.23254009871E+03  0.00000000000E+00 0. -1.
        -13    1    3    3    0    0 -0.22324767437E+03 -0.27720641082E+03  0.53235177556E+03  0.64037592963E+03  0.00000000000E+00 0.  1.
          4    1    6    6  502    0  0.18109159463E+03 -0.74708847146E+02 -0.31271359506E+03  0.36900592139E+03  0.00000000000E+00 0. -1.
          1    1    5    5  503    0 -0.12266790650E+02  0.33718843880E+02 -0.19605946821E+03  0.19931570349E+03  0.00000000000E+00 0. -1.
         -2    1    5    5    0  503  0.22679507865E+02  0.49795397795E+03 -0.17103115057E+04  0.17814707325E+04  0.00000000000E+00 0.  1.
         -3    1    6    6    0  502  0.15187671035E+03 -0.11874218929E+03 -0.20919173621E+03  0.28447745985E+03  0.00000000000E+00 0.  1.
<mgrwt>
<rscale>  0 0.30640750E+04</rscale>
<asrwt>0</asrwt>
<pdfrwt beam="1">  1        2 0.40104498E+00 0.30640750E+04</pdfrwt>
<pdfrwt beam="2">  1       -2 0.13852208E+00 0.30640750E+04</pdfrwt>
<totfact> 0.94770210E-01</totfact>
</mgrwt>
</event>
<event>
12    1  0.1980523E-007  0.2085640E+04  0.7818608E-02  0.8567596E-01
          1   -1    0    0  501    0  0.00000000000E+00  0.00000000000E+00  0.14932786543E+04  0.14932786543E+04  0.00000000000E+00 0. -1.
         -1   -1    0    0    0  501 -0.00000000000E+00 -0.00000000000E+00 -0.72824555246E+03  0.72824555246E+03  0.00000000000E+00 0.  1.
         23    2    1    2    0    0  0.65071771392E+03 -0.47420162883E+03  0.37457158369E+02  0.81201538072E+03  0.98311809129E+02 0.  0.
        254    2    1    2    0    0 -0.65071771392E+03  0.47420162883E+03  0.72757594351E+03  0.14095088261E+04  0.89947076062E+03 0.  0.
        -24    2    4    4    0    0 -0.53823569245E+03  0.15481956674E+03 -0.39462367263E+02  0.56719212558E+03  0.80516271724E+02 0.  0.
         24    2    4    4    0    0 -0.11248202147E+03  0.31938206209E+03  0.76703831077E+03  0.84231670050E+03  0.80576342679E+02 0.  0.
         13    1    3    3    0    0  0.53610814245E+03 -0.34330779410E+03  0.41820522171E+02  0.63798208279E+03  0.00000000000E+00 0. -1.
        -13    1    3    3    0    0  0.11460957148E+03 -0.13089383473E+03 -0.43633638020E+01  0.17403329793E+03  0.00000000000E+00 0.  1.
          2    1    6    6  502    0 -0.20744562929E+02  0.14843258543E+03  0.27091401214E+03  0.30960777006E+03  0.00000000000E+00 0. -1.
          3    1    5    5  503    0 -0.65695910711E+02 -0.63377665113E+01 -0.12690320777E+02  0.67209852031E+02  0.00000000000E+00 0. -1.
         -4    1    5    5    0  503 -0.47253978174E+03  0.16115733325E+03 -0.26772046486E+02  0.49998227355E+03  0.00000000000E+00 0.  1.
         -1    1    6    6    0  502 -0.91737458538E+02  0.17094947667E+03  0.49612429864E+03  0.53270893044E+03  0.00000000000E+00 0.  1.
<mgrwt>
<rscale>  0 0.20856400E+04</rscale>
<asrwt>0</asrwt>
<pdfrwt beam="1">  1        1 0.22973518E+00 0.20856400E+04</pdfrwt>
<pdfrwt beam="2">  1       -1 0.11203778E+00 0.20856400E+04</pdfrwt>
<totfact> 0.44485246E+00</totfact>
</mgrwt>
</event>
<event>
12    1  0.1980523E-007  0.1364538E+04  0.7818608E-02  0.8979896E-01
         -2   -1    0    0    0  501 -0.00000000000E+00  0.00000000000E+00  0.24204867465E+03  0.24204867465E+03  0.00000000000E+00 0.  1.
          2   -1    0    0  501    0  0.00000000000E+00 -0.00000000000E+00 -0.19231292118E+04  0.19231292118E+04  0.00000000000E+00 0. -1.
         23    2    1    2    0    0  0.37338099444E+03  0.32977315310E+02 -0.61588861462E+03  0.72665377634E+03  0.90587276803E+02 0.  0.
        254    2    1    2    0    0 -0.37338099444E+03 -0.32977315310E+02 -0.10651919225E+04  0.14385241101E+04  0.89118848354E+03 0.  0.
        -24    2    4    4    0    0 -0.33049148020E+03 -0.10147513859E+03  0.12677588265E+02  0.35487067299E+03  0.79061059120E+02 0.  0.
         24    2    4    4    0    0 -0.42889514238E+02  0.68497823283E+02 -0.10778695108E+04  0.10836534371E+04  0.77269834039E+02 0.  0.
         13    1    3    3    0    0  0.55780789927E+02  0.19365219308E+02 -0.16273922365E+03  0.17312008306E+03  0.00000000000E+00 0. -1.
        -13    1    3    3    0    0  0.31760020451E+03  0.13612096002E+02 -0.45314939098E+03  0.55353369329E+03  0.00000000000E+00 0.  1.
          2    1    6    6  502    0 -0.22176702041E+02  0.72170068688E+02 -0.52682719931E+03  0.53220975457E+03  0.00000000000E+00 0. -1.
          1    1    5    5  503    0 -0.19041808825E+03 -0.92474464871E+02  0.28599257741E+02  0.21360826887E+03  0.00000000000E+00 0. -1.
         -2    1    5    5    0  503 -0.14007339196E+03 -0.90006737216E+01 -0.15921669476E+02  0.14126240413E+03  0.00000000000E+00 0.  1.
         -1    1    6    6    0  502 -0.20712812197E+02 -0.36722454049E+01 -0.55104231146E+03  0.55144368252E+03  0.00000000000E+00 0.  1.
<mgrwt>
<rscale>  0 0.13645378E+04</rscale>
<asrwt>0</asrwt>
<pdfrwt beam="1">  1        2 0.29586602E+00 0.13645378E+04</pdfrwt>
<pdfrwt beam="2">  1       -2 0.37238259E-01 0.13645378E+04</pdfrwt>
<totfact> 0.48927357E+01</totfact>
</mgrwt>
</event>
<event>
12    1  0.1980523E-007  0.3206958E+04  0.7818608E-02  0.8186982E-01
          2   -1    0    0  501    0  0.00000000000E+00  0.00000000000E+00  0.12195718242E+04  0.12195718242E+04  0.00000000000E+00 0. -1.
         -2   -1    0    0    0  501 -0.00000000000E+00 -0.00000000000E+00 -0.21082354492E+04  0.21082354492E+04  0.00000000000E+00 0.  1.
         23    2    1    2    0    0  0.10291489636E+04 -0.10553141363E+04 -0.48215403960E+03  0.15536364186E+04  0.92076531364E+02 0.  0.
        254    2    1    2    0    0 -0.10291489636E+04  0.10553141363E+04 -0.40650958533E+03  0.17741708549E+04  0.89977589639E+03 0.  0.
        -24    2    4    4    0    0 -0.81460394312E+02  0.78501373481E+02  0.23088025666E+03  0.26923254779E+03  0.79888737612E+02 0.  0.
         24    2    4    4    0    0 -0.94768856933E+03  0.97681276277E+03 -0.63738984199E+03  0.15049383071E+04  0.79351745040E+02 0.  0.
         13    1    3    3    0    0  0.77107612208E+03 -0.80251750189E+03 -0.40431204221E+03  0.11840865485E+04  0.00000000000E+00 0.  1.
        -13    1    3    3    0    0  0.25807284156E+03 -0.25279663436E+03 -0.77841997396E+02  0.36954987005E+03  0.00000000000E+00 0. -1.
          4    1    6    6  502    0 -0.59399985656E+03  0.60318412778E+03 -0.35429332449E+03  0.91770947548E+03  0.00000000000E+00 0. -1.
          3    1    5    5  503    0  0.24746249460E+01  0.21133840975E+02  0.10641983921E+03  0.10852624189E+03  0.00000000000E+00 0. -1.
         -4    1    5    5    0  503 -0.83935019258E+02  0.57367532506E+02  0.12446041745E+03  0.16070630590E+03  0.00000000000E+00 0.  1.
         -3    1    6    6    0  502 -0.35368871277E+03  0.37362863499E+03 -0.28309651750E+03  0.58722883159E+03  0.00000000000E+00 0.  1.
<mgrwt>
<rscale>  0 0.32069578E+04</rscale>
<asrwt>0</asrwt>
<pdfrwt beam="1">  1        2 0.18762644E+00 0.32069578E+04</pdfrwt>
<pdfrwt beam="2">  1       -2 0.32434391E+00 0.32069578E+04</pdfrwt>
<totfact> 0.34915967E-01</totfact>
</mgrwt>
</event>
<event>
12    1  0.1980523E-007  0.1262602E+04  0.7818608E-02  0.9059759E-01
         -1   -1    0    0    0  501 -0.00000000000E+00  0.00000000000E+00  0.65070142864E+03  0.65070142864E+03  0.00000000000E+00 0.  1.
          1   -1    0    0  501    0  0.00000000000E+00 -0.00000000000E+00 -0.61247892264E+03  0.61247892264E+03  0.00000000000E+00 0. -1.
         23    2    1    2    0    0  0.23004695577E+03 -0.18852891303E+03 -0.26406373884E+02  0.31150665541E+03  0.88737516707E+02 0.  0.
        254    2    1    2    0    0 -0.23004695577E+03  0.18852891303E+03  0.64628879881E+02  0.95167369587E+03  0.90168796065E+03 0.  0.
        -24    2    4    4    0    0 -0.41013097026E+03 -0.23442073841E+03 -0.83476371827E+01  0.47929619634E+03  0.80589486982E+02 0.  0.
         24    2    4    4    0    0  0.18008401449E+03  0.42294965144E+03  0.72976517064E+02  0.47237749953E+03  0.80611848332E+02 0.  0.
         11    1    3    3    0    0  0.56141646370E+02 -0.95478906500E+02 -0.28079329946E+02  0.11426528263E+03  0.00000000000E+00 0. -1.
        -11    1    3    3    0    0  0.17390530940E+03 -0.93050006532E+02  0.16729560618E+01  0.19724137278E+03  0.00000000000E+00 0.  1.
          2    1    6    6  502    0  0.15975133047E+03  0.40527070059E+03  0.83319859719E+02  0.44351665963E+03  0.00000000000E+00 0. -1.
          1    1    5    5  503    0 -0.19435931626E+03 -0.10085913070E+03 -0.43075023874E+02  0.22316712514E+03  0.00000000000E+00 0. -1.
         -2    1    5    5    0  503 -0.21577165401E+03 -0.13356160771E+03  0.34727386691E+02  0.25612907120E+03  0.00000000000E+00 0.  1.
         -1    1    6    6    0  502  0.20332684019E+02  0.17678950849E+02 -0.10343342655E+02  0.28860839902E+02  0.00000000000E+00 0.  1.
<mgrwt>
<rscale>  0 0.12626019E+04</rscale>
<asrwt>0</asrwt>
<pdfrwt beam="1">  1        1 0.94227526E-01 0.12626019E+04</pdfrwt>
<pdfrwt beam="2">  1       -1 0.10010791E+00 0.12626019E+04</pdfrwt>
<totfact> 0.31153316E+01</totfact>
</mgrwt>
</event>
<event>
12    1  0.1980523E-007  0.1458584E+04  0.7818608E-02  0.8912471E-01
          1   -1    0    0  501    0  0.00000000000E+00  0.00000000000E+00  0.11251646868E+04  0.11251646868E+04  0.00000000000E+00 0. -1.
         -1   -1    0    0    0  501 -0.00000000000E+00 -0.00000000000E+00 -0.47270124928E+03  0.47270124928E+03  0.00000000000E+00 0.  1.
         23    2    1    2    0    0  0.23705992920E+03 -0.36926403387E+03  0.28535171411E+03  0.53175321558E+03  0.93715232436E+02 0.  0.
        254    2    1    2    0    0 -0.23705992920E+03  0.36926403387E+03  0.36711172340E+03  0.10661127205E+04  0.89959545275E+03 0.  0.
        -24    2    4    4    0    0 -0.41389132206E+03  0.19218499893E+03 -0.14896953356E+03  0.48696052342E+03  0.81838433187E+02 0.  0.
         24    2    4    4    0    0  0.17683139286E+03  0.17707903493E+03  0.51608125696E+03  0.57915219708E+03  0.80318599862E+02 0.  0.
         11    1    3    3    0    0  0.74120184774E+02 -0.15584218812E+03  0.16035958772E+03  0.23557543752E+03  0.00000000000E+00 0. -1.
        -11    1    3    3    0    0  0.16293974443E+03 -0.21342184574E+03  0.12499212639E+03  0.29617777805E+03  0.00000000000E+00 0.  1.
          2    1    6    6  502    0  0.57660108944E+02  0.14534456263E+02  0.14805717299E+03  0.15955207631E+03  0.00000000000E+00 0. -1.
          1    1    5    5  503    0 -0.70957309836E+02  0.69678883735E+02 -0.30840672746E+02  0.10412124544E+03  0.00000000000E+00 0. -1.
         -2    1    5    5    0  503 -0.34293401222E+03  0.12250611520E+03 -0.11812886082E+03  0.38283927797E+03  0.00000000000E+00 0.  1.
         -1    1    6    6    0  502  0.11917128391E+03  0.16254457867E+03  0.36802408397E+03  0.41960012077E+03  0.00000000000E+00 0.  1.
<mgrwt>
<rscale>  0 0.14585839E+04</rscale>
<asrwt>0</asrwt>
<pdfrwt beam="1">  1        1 0.17310226E+00 0.14585839E+04</pdfrwt>
<pdfrwt beam="2">  1       -1 0.72723270E-01 0.14585839E+04</pdfrwt>
<totfact> 0.22466056E+01</totfact>
</mgrwt>
</event>
<event>
12    1  0.1980523E-007  0.1517331E+04  0.7818608E-02  0.8873009E-01
          2   -1    0    0  501    0  0.00000000000E+00  0.00000000000E+00  0.15404665475E+04  0.15404665475E+04  0.00000000000E+00 0. -1.
         -2   -1    0    0    0  501 -0.00000000000E+00 -0.00000000000E+00 -0.37363580215E+03  0.37363580215E+03  0.00000000000E+00 0.  1.
         23    2    1    2    0    0 -0.40995789310E+03  0.17489539275E+03  0.13516587073E+03  0.47435156980E+03  0.89920668614E+02 0.  0.
        254    2    1    2    0    0  0.40995789310E+03 -0.17489539275E+03  0.10316648746E+04  0.14397507798E+04  0.89994223262E+03 0.  0.
        -24    2    4    4    0    0  0.51942616496E+02  0.27656008194E+03  0.72584890220E+03  0.78263349619E+03  0.80467671793E+02 0.  0.
         24    2    4    4    0    0  0.35801527660E+03 -0.45145547468E+03  0.30581597240E+03  0.65711728365E+03  0.79326739461E+02 0.  0.
         11    1    3    3    0    0 -0.15309583200E+03  0.74354079616E+02  0.96966468981E+02  0.19588098182E+03  0.00000000000E+00 0. -1.
        -11    1    3    3    0    0 -0.25686206109E+03  0.10054131313E+03  0.38199401751E+02  0.27847058798E+03  0.00000000000E+00 0.  1.
          2    1    6    6  502    0  0.71750869161E+02 -0.10553214038E+03  0.10494713225E+03  0.16522445475E+03  0.00000000000E+00 0. -1.
          1    1    5    5  503    0  0.72031493812E+01  0.54391368239E+02  0.71335288566E+02  0.89994609254E+02  0.00000000000E+00 0. -1.
         -2    1    5    5    0  503  0.44739467114E+02  0.22216871370E+03  0.65451361364E+03  0.69263888694E+03  0.00000000000E+00 0.  1.
         -1    1    6    6    0  502  0.28626440744E+03 -0.34592333430E+03  0.20086884015E+03  0.49189282890E+03  0.00000000000E+00 0.  1.
<mgrwt>
<rscale>  0 0.15173311E+04</rscale>
<asrwt>0</asrwt>
<pdfrwt beam="1">  1        2 0.23699485E+00 0.15173311E+04</pdfrwt>
<pdfrwt beam="2">  1       -2 0.57482432E-01 0.15173311E+04</pdfrwt>
<totfact> 0.32940832E+01</totfact>
</mgrwt>
</event>
<event>
12    1  0.1980523E-007  0.1824578E+04  0.7818608E-02  0.8693337E-01
          2   -1    0    0  501    0  0.00000000000E+00  0.00000000000E+00  0.10151342487E+04  0.10151342487E+04  0.00000000000E+00 0. -1.
         -2   -1    0    0    0  501 -0.00000000000E+00 -0.00000000000E+00 -0.81986365111E+03  0.81986365111E+03  0.00000000000E+00 0.  1.
         23    2    1    2    0    0  0.37769916124E+02  0.30524798736E+03 -0.54227290698E+03  0.63018419465E+03  0.92028871556E+02 0.  0.
        254    2    1    2    0    0 -0.37769916124E+02 -0.30524798736E+03  0.73754350454E+03  0.12048137051E+04  0.90166664718E+03 0.  0.
        -24    2    4    4    0    0  0.18518373638E+03 -0.17927410044E+03  0.86664169215E+03  0.90721320278E+03  0.74402643919E+02 0.  0.
         24    2    4    4    0    0 -0.22295365250E+03 -0.12597388692E+03 -0.12909818761E+03  0.29760050235E+03  0.79510789256E+02 0.  0.
         11    1    3    3    0    0  0.59344524895E+02  0.11449997702E+03 -0.22637002391E+03  0.26052908686E+03  0.00000000000E+00 0.  1.
        -11    1    3    3    0    0 -0.21574608771E+02  0.19074801033E+03 -0.31590288307E+03  0.36965510780E+03  0.00000000000E+00 0. -1.
          4    1    6    6  502    0 -0.18144783705E+02 -0.38416990031E+02 -0.37829286452E+02  0.56887197261E+02  0.00000000000E+00 0. -1.
          1    1    5    5  503    0  0.10910028300E+03 -0.10736662006E+03  0.63207852692E+03  0.65034892715E+03  0.00000000000E+00 0. -1.
         -2    1    5    5    0  503  0.76083453375E+02 -0.71907480379E+02  0.23456316522E+03  0.25686427562E+03  0.00000000000E+00 0.  1.
         -3    1    6    6    0  502 -0.20480886880E+03 -0.87556896888E+02 -0.91268901159E+02  0.24071330509E+03  0.00000000000E+00 0.  1.
<mgrwt>
<rscale>  0 0.18245785E+04</rscale>
<asrwt>0</asrwt>
<pdfrwt beam="1">  1        2 0.15617450E+00 0.18245785E+04</pdfrwt>
<pdfrwt beam="2">  1       -2 0.12613287E+00 0.18245785E+04</pdfrwt>
<totfact> 0.10878835E+01</totfact>
</mgrwt>
</event>
<event>
12    1  0.1980523E-007  0.1203064E+04  0.7818608E-02  0.9110178E-01
         -2   -1    0    0    0  501 -0.00000000000E+00  0.00000000000E+00  0.20745050344E+03  0.20745050344E+03  0.00000000000E+00 0. -1.
          2   -1    0    0  501    0  0.00000000000E+00 -0.00000000000E+00 -0.17442281033E+04  0.17442281033E+04  0.00000000000E+00 0.  1.
         23    2    1    2    0    0 -0.71320390272E+01 -0.24795094923E+03 -0.27544908642E+03  0.38193967451E+03  0.92060722074E+02 0.  0.
        254    2    1    2    0    0  0.71320390272E+01  0.24795094923E+03 -0.12613285135E+04  0.15697389323E+04  0.90088853770E+03 0.  0.
        -24    2    4    4    0    0  0.16602834820E+03  0.32738717122E+03 -0.95081144125E+02  0.38724341063E+03  0.78544654967E+02 0.  0.
         24    2    4    4    0    0 -0.15889630917E+03 -0.79436221991E+02 -0.11662473694E+04  0.11824955216E+04  0.81268577710E+02 0.  0.
         11    1    3    3    0    0 -0.77150184747E+01 -0.22047253219E+03 -0.18661584457E+03  0.28895178215E+03  0.00000000000E+00 0. -1.
        -11    1    3    3    0    0  0.58297944747E+00 -0.27478417038E+02 -0.88833241854E+02  0.92987892363E+02  0.00000000000E+00 0.  1.
          2    1    6    6  502    0 -0.13752018192E+03 -0.44208970561E+02 -0.10321780354E+04  0.10422368878E+04  0.00000000000E+00 0. -1.
          3    1    5    5  503    0  0.12098873347E+03  0.25836514654E+03 -0.39920350817E+02  0.28807022926E+03  0.00000000000E+00 0. -1.
         -4    1    5    5    0  503  0.45039614728E+02  0.69022024678E+02 -0.55160793308E+02  0.99173181374E+02  0.00000000000E+00 0.  1.
         -1    1    6    6    0  502 -0.21376127252E+02 -0.35227251430E+02 -0.13406933394E+03  0.14025863382E+03  0.00000000000E+00 0.  1.
<mgrwt>
<rscale>  0 0.12030644E+04</rscale>
<asrwt>0</asrwt>
<pdfrwt beam="1">  1        2 0.26834279E+00 0.12030644E+04</pdfrwt>
<pdfrwt beam="2">  1       -2 0.31915461E-01 0.12030644E+04</pdfrwt>
<totfact> 0.83463270E+01</totfact>
</mgrwt>
</event>
<event>
12    1  0.1980523E-007  0.1502079E+04  0.7818608E-02  0.8883072E-01
          1   -1    0    0  501    0  0.00000000000E+00  0.00000000000E+00  0.46620120284E+03  0.46620120284E+03  0.00000000000E+00 0. -1.
         -1   -1    0    0    0  501 -0.00000000000E+00 -0.00000000000E+00 -0.12099071659E+04  0.12099071659E+04  0.00000000000E+00 0.  1.
         23    2    1    2    0    0  0.15149810575E+03 -0.41729182775E+03 -0.42590036531E+03  0.62238835677E+03  0.94297401442E+02 0.  0.
        254    2    1    2    0    0 -0.15149810575E+03  0.41729182775E+03 -0.31780559777E+03  0.10537200120E+04  0.90124431766E+03 0.  0.
        -24    2    4    4    0    0  0.80197980399E+02  0.11870067645E+03 -0.56930640676E+03  0.59263826175E+03  0.81171163970E+02 0.  0.
         24    2    4    4    0    0 -0.23169608615E+03  0.29859115130E+03  0.25150080899E+03  0.46108175023E+03  0.80647203930E+02 0.  0.
         13    1    3    3    0    0  0.12369016849E+03 -0.24029193008E+03 -0.21284484287E+03  0.34400929723E+03  0.00000000000E+00 0. -1.
        -13    1    3    3    0    0  0.27807937258E+02 -0.17699989767E+03 -0.21305552243E+03  0.27837905954E+03  0.00000000000E+00 0.  1.
          2    1    6    6  502    0 -0.17562445300E+02  0.26740459930E+02  0.53631841857E+02  0.62448908262E+02  0.00000000000E+00 0. -1.
          1    1    5    5  503    0  0.11766592554E+02 -0.12028203559E+02 -0.48716860707E+02  0.51540885696E+02  0.00000000000E+00 0. -1.
         -2    1    5    5    0  503  0.68431387845E+02  0.13072888001E+03 -0.52058954605E+03  0.54109737605E+03  0.00000000000E+00 0.  1.
         -1    1    6    6    0  502 -0.21413364085E+03  0.27185069137E+03  0.19786896714E+03  0.39863284197E+03  0.00000000000E+00 0.  1.
<mgrwt>
<rscale>  0 0.15020788E+04</rscale>
<asrwt>0</asrwt>
<pdfrwt beam="1">  1        1 0.71723262E-01 0.15020788E+04</pdfrwt>
<pdfrwt beam="2">  1       -1 0.18613956E+00 0.15020788E+04</pdfrwt>
<totfact> 0.88778425E+00</totfact>
</mgrwt>
</event>
<event>
12    1  0.1980523E-007  0.1359336E+04  0.7818608E-02  0.8983791E-01
          1   -1    0    0  501    0  0.00000000000E+00  0.00000000000E+00  0.81650521277E+03  0.81650521277E+03  0.00000000000E+00 0. -1.
         -1   -1    0    0    0  501 -0.00000000000E+00 -0.00000000000E+00 -0.56576291209E+03  0.56576291209E+03  0.00000000000E+00 0.  1.
         23    2    1    2    0    0 -0.73896017587E+02  0.98717816131E+01  0.44521095103E+03  0.46070596582E+03  0.92082151059E+02 0.  0.
        254    2    1    2    0    0  0.73896017587E+02 -0.98717816131E+01 -0.19446865035E+03  0.92156215904E+03  0.89771971323E+03 0.  0.
        -24    2    4    4    0    0 -0.22400621516E+03 -0.15159693592E+03  0.24023987629E+03  0.37020356231E+03  0.78581575263E+02 0.  0.
         24    2    4    4    0    0  0.29790223275E+03  0.14172515431E+03 -0.43470852664E+03  0.55135859673E+03  0.78695866579E+02 0.  0.
         13    1    3    3    0    0 -0.62448304109E+02  0.31561853794E+02  0.16238525087E+03  0.17681886495E+03  0.00000000000E+00 0.  1.
        -13    1    3    3    0    0 -0.11447713478E+02 -0.21690072180E+02  0.28282570015E+03  0.28388710087E+03  0.00000000000E+00 0. -1.
          2    1    6    6  502    0  0.17921925159E+03  0.12589871470E+03 -0.26812889654E+03  0.34621255272E+03  0.00000000000E+00 0. -1.
          3    1    5    5  503    0 -0.17903911309E+03 -0.15456415111E+03  0.20485202709E+03  0.31290483190E+03  0.00000000000E+00 0. -1.
         -4    1    5    5    0  503 -0.44967102077E+02  0.29672151876E+01  0.35387849202E+02  0.57298730407E+02  0.00000000000E+00 0.  1.
         -1    1    6    6    0  502  0.11868298116E+03  0.15826439603E+02 -0.16657963010E+03  0.20514604401E+03  0.00000000000E+00 0.  1.
<mgrwt>
<rscale>  0 0.13593357E+04</rscale>
<asrwt>0</asrwt>
<pdfrwt beam="1">  1        1 0.12561619E+00 0.13593357E+04</pdfrwt>
<pdfrwt beam="2">  1       -1 0.87040448E-01 0.13593357E+04</pdfrwt>
<totfact> 0.27214163E+01</totfact>
</mgrwt>
</event>
<event>
12    1  0.1992338E-007  0.2805603E+04  0.7818608E-02  0.8301531E-01
         -3   -1    0    0    0  501 -0.00000000000E+00  0.00000000000E+00  0.86887047525E+03  0.86887047525E+03  0.00000000000E+00 0.  1.
          3   -1    0    0  501    0  0.00000000000E+00 -0.00000000000E+00 -0.22648387201E+04  0.22648387201E+04  0.00000000000E+00 0. -1.
         23    2    1    2    0    0 -0.25951262374E+03  0.12281895238E+04 -0.68274409612E+03  0.14319178112E+04  0.91939158104E+02 0.  0.
        254    2    1    2    0    0  0.25951262374E+03 -0.12281895238E+04 -0.71322414869E+03  0.17017913841E+04  0.90089340132E+03 0.  0.
        -24    2    4    4    0    0  0.47866988400E+03 -0.27550563335E+03 -0.19215976636E+03  0.59094909486E+03  0.85248138139E+02 0.  0.
         24    2    4    4    0    0 -0.21915726026E+03 -0.95268389048E+03 -0.52106438233E+03  0.11108422893E+04  0.82619617631E+02 0.  0.
         11    1    3    3    0    0 -0.13711169875E+03  0.68473564970E+03 -0.43086348520E+03  0.82055217432E+03  0.00000000000E+00 0. -1.
        -11    1    3    3    0    0 -0.12240092499E+03  0.54345387413E+03 -0.25188061092E+03  0.61136563684E+03  0.00000000000E+00 0.  1.
          2    1    6    6  502    0 -0.21768712331E+03 -0.82136952898E+03 -0.45048281166E+03  0.96175378886E+03  0.00000000000E+00 0. -1.
          1    1    5    5  503    0  0.24928652051E+03 -0.18942094743E+03 -0.92668360150E+02  0.32651414916E+03  0.00000000000E+00 0. -1.
         -2    1    5    5    0  503  0.22938336349E+03 -0.86084685921E+02 -0.99491406211E+02  0.26443494570E+03  0.00000000000E+00 0.  1.
         -1    1    6    6    0  502 -0.14701369542E+01 -0.13131436151E+03 -0.70581570667E+02  0.14908850042E+03  0.00000000000E+00 0.  1.
<mgrwt>
<rscale>  0 0.28056026E+04</rscale>
<asrwt>0</asrwt>
<pdfrwt beam="1">  1        3 0.34843672E+00 0.28056026E+04</pdfrwt>
<pdfrwt beam="2">  1       -3 0.13367238E+00 0.28056026E+04</pdfrwt>
<totfact> 0.20583431E-02</totfact>
</mgrwt>
</event>
<event>
12    1  0.1980523E-007  0.1717142E+04  0.7818608E-02  0.8751647E-01
          1   -1    0    0  501    0  0.00000000000E+00  0.00000000000E+00  0.11855166761E+04  0.11855166761E+04  0.00000000000E+00 0. -1.
         -1   -1    0    0    0  501 -0.00000000000E+00 -0.00000000000E+00 -0.62179176829E+03  0.62179176829E+03  0.00000000000E+00 0.  1.
         23    2    1    2    0    0  0.61333079568E+03 -0.13779808907E+02  0.12726705164E+03  0.63307745201E+03  0.90695147337E+02 0.  0.
        254    2    1    2    0    0 -0.61333079568E+03  0.13779808907E+02  0.43645785613E+03  0.11742309923E+04  0.90108735156E+03 0.  0.
        -24    2    4    4    0    0 -0.42422896559E+03  0.43746789557E+03  0.19264892358E+03  0.64399264787E+03  0.79148896719E+02 0.  0.
         24    2    4    4    0    0 -0.18910183009E+03 -0.42368808666E+03  0.24380893255E+03  0.53023834448E+03  0.80242192433E+02 0.  0.
         11    1    3    3    0    0  0.31688633069E+03 -0.16126764445E+02  0.11109411769E+03  0.33618287002E+03  0.00000000000E+00 0. -1.
        -11    1    3    3    0    0  0.29644446499E+03  0.23469555381E+01  0.16172933950E+02  0.29689458199E+03  0.00000000000E+00 0.  1.
          4    1    6    6  502    0 -0.19513069403E+02 -0.76347677811E+02  0.12509912505E+02  0.79788631367E+02  0.00000000000E+00 0. -1.
          3    1    5    5  503    0 -0.27798320215E+03  0.31242368956E+03  0.16515946801E+03  0.44962303361E+03  0.00000000000E+00 0. -1.
         -4    1    5    5    0  503 -0.14624576344E+03  0.12504420601E+03  0.27489455570E+02  0.19436961426E+03  0.00000000000E+00 0.  1.
         -3    1    6    6    0  502 -0.16958876069E+03 -0.34734040885E+03  0.23129902004E+03  0.45044971311E+03  0.00000000000E+00 0.  1.
<mgrwt>
<rscale>  0 0.17171424E+04</rscale>
<asrwt>0</asrwt>
<pdfrwt beam="1">  1        1 0.18238718E+00 0.17171424E+04</pdfrwt>
<pdfrwt beam="2">  1       -1 0.95660272E-01 0.17171424E+04</pdfrwt>
<totfact> 0.10970667E+01</totfact>
</mgrwt>
</event>
<event>
12    1  0.1980523E-007  0.2373329E+04  0.7818608E-02  0.8449557E-01
          1   -1    0    0  501    0  0.00000000000E+00  0.00000000000E+00  0.18078989411E+04  0.18078989411E+04  0.00000000000E+00 0. -1.
         -1   -1    0    0    0  501 -0.00000000000E+00 -0.00000000000E+00 -0.77890030635E+03  0.77890030635E+03  0.00000000000E+00 0.  1.
         23    2    1    2    0    0 -0.54904525107E+02 -0.10018084620E+04  0.28366672704E+03  0.10467098014E+04  0.92194875043E+02 0.  0.
        254    2    1    2    0    0  0.54904525107E+02  0.10018084620E+04  0.74533190770E+03  0.15400894460E+04  0.89984506879E+03 0.  0.
        -24    2    4    4    0    0 -0.37700909923E+03  0.58633816736E+03  0.58797913176E+03  0.91548153755E+03  0.80365905754E+02 0.  0.
         24    2    4    4    0    0  0.43191362433E+03  0.41547029460E+03  0.15735277594E+03  0.62460790848E+03  0.78804813703E+02 0.  0.
         11    1    3    3    0    0  0.10742457226E+02 -0.52918391352E+03  0.12492576041E+03  0.54383587628E+03  0.00000000000E+00 0. -1.
        -11    1    3    3    0    0 -0.65646982333E+02 -0.47262454844E+03  0.15874096664E+03  0.50287392512E+03  0.00000000000E+00 0.  1.
          4    1    6    6  502    0  0.93058340805E+02  0.81243766330E+02  0.68797614844E+00  0.12353492491E+03  0.00000000000E+00 0. -1.
          3    1    5    5  503    0 -0.54958721247E+02  0.80656714700E+02  0.12154776600E+03  0.15588401486E+03  0.00000000000E+00 0. -1.
         -4    1    5    5    0  503 -0.32205037798E+03  0.50568145266E+03  0.46643136576E+03  0.75959752269E+03  0.00000000000E+00 0.  1.
         -3    1    6    6    0  502  0.33885528353E+03  0.33422652827E+03  0.15666479979E+03  0.50107298358E+03  0.00000000000E+00 0.  1.
<mgrwt>
<rscale>  0 0.23733293E+04</rscale>
<asrwt>0</asrwt>
<pdfrwt beam="1">  1        1 0.27813830E+00 0.23733293E+04</pdfrwt>
<pdfrwt beam="2">  1       -1 0.11983082E+00 0.23733293E+04</pdfrwt>
<totfact> 0.22450507E+00</totfact>
</mgrwt>
</event>
<event>
12    1  0.1980523E-007  0.2836716E+04  0.7818608E-02  0.8291959E-01
         -2   -1    0    0    0  501 -0.00000000000E+00  0.00000000000E+00  0.74769362015E+03  0.74769362015E+03  0.00000000000E+00 0.  1.
          2   -1    0    0  501    0  0.00000000000E+00 -0.00000000000E+00 -0.26905925381E+04  0.26905925381E+04  0.00000000000E+00 0. -1.
         23    2    1    2    0    0  0.26145312357E+03  0.12421376637E+04 -0.10089725807E+04  0.16240955982E+04  0.91635866985E+02 0.  0.
        254    2    1    2    0    0 -0.26145312357E+03 -0.12421376637E+04 -0.93392633722E+03  0.18141905600E+04  0.89877988029E+03 0.  0.
        -24    2    4    4    0    0 -0.33464613365E+03 -0.85345358419E+03 -0.10484033892E+04  0.13949127833E+04  0.79126173986E+02 0.  0.
         24    2    4    4    0    0  0.73193010086E+02 -0.38868407953E+03  0.11447705197E+03  0.41927777671E+03  0.79096954518E+02 0.  0.
         13    1    3    3    0    0  0.19603578176E+03  0.71228104828E+03 -0.58195274286E+03  0.94044846450E+03  0.00000000000E+00 0.  1.
        -13    1    3    3    0    0  0.65417341805E+02  0.52985661543E+03 -0.42701983787E+03  0.68364713373E+03  0.00000000000E+00 0. -1.
          2    1    6    6  502    0  0.27148704922E+02 -0.26533908016E+03  0.10706468834E+03  0.28741038104E+03  0.00000000000E+00 0. -1.
          1    1    5    5  503    0 -0.32414513242E+03 -0.82442951830E+03 -0.98737403821E+03  0.13265223665E+04  0.00000000000E+00 0. -1.
         -2    1    5    5    0  503 -0.10501001235E+02 -0.29024065890E+02 -0.61029350983E+02  0.68390416793E+02  0.00000000000E+00 0.  1.
         -1    1    6    6    0  502  0.46044305164E+02 -0.12334499936E+03  0.74123636233E+01  0.13186739567E+03  0.00000000000E+00 0.  1.
<mgrwt>
<rscale>  0 0.28367156E+04</rscale>
<asrwt>0</asrwt>
<pdfrwt beam="1">  1        2 0.41393731E+00 0.28367156E+04</pdfrwt>
<pdfrwt beam="2">  1       -2 0.11502979E+00 0.28367156E+04</pdfrwt>
<totfact> 0.13747272E+00</totfact>
</mgrwt>
</event>
<event>
12    1  0.1980523E-007  0.1480223E+04  0.7818608E-02  0.8897712E-01
          2   -1    0    0  501    0  0.00000000000E+00  0.00000000000E+00  0.31525782879E+04  0.31525782879E+04  0.00000000000E+00 0. -1.
         -2   -1    0    0    0  501 -0.00000000000E+00 -0.00000000000E+00 -0.17375151669E+03  0.17375151669E+03  0.00000000000E+00 0.  1.
         23    2    1    2    0    0 -0.12164769306E+03 -0.27553946277E+03  0.16079633402E+03  0.35328718801E+03  0.90753619225E+02 0.  0.
        254    2    1    2    0    0  0.12164769306E+03  0.27553946277E+03  0.28180304372E+04  0.29730426166E+04  0.89831325182E+03 0.  0.
        -24    2    4    4    0    0  0.13281415861E+03  0.43956605099E+03  0.66458674589E+03  0.81181020584E+03  0.80637172518E+02 0.  0.
         24    2    4    4    0    0 -0.11166465552E+02 -0.16402658822E+03  0.21534436913E+04  0.21612324108E+04  0.81094944878E+02 0.  0.
         13    1    3    3    0    0 -0.16000136898E+02 -0.27139559655E+02 -0.10944182560E+02  0.33351689776E+02  0.00000000000E+00 0. -1.
        -13    1    3    3    0    0 -0.10564755616E+03 -0.24839990312E+03  0.17174051658E+03  0.31993549823E+03  0.00000000000E+00 0.  1.
          4    1    6    6  502    0 -0.28192407521E+02 -0.79412199469E+02  0.14613529614E+04  0.14637805802E+04  0.00000000000E+00 0. -1.
          3    1    5    5  503    0  0.10732673550E+03  0.36301476224E+03  0.48754987138E+03  0.61725490912E+03  0.00000000000E+00 0. -1.
         -2    1    5    5    0  503  0.25487423111E+02  0.76551288755E+02  0.17703687450E+03  0.19455529672E+03  0.00000000000E+00 0.  1.
         -3    1    6    6    0  502  0.17025941969E+02 -0.84614388749E+02  0.69209072992E+03  0.69745183054E+03  0.00000000000E+00 0.  1.
<mgrwt>
<rscale>  0 0.14802233E+04</rscale>
<asrwt>0</asrwt>
<pdfrwt beam="1">  1        2 0.48501200E+00 0.14802233E+04</pdfrwt>
<pdfrwt beam="2">  1       -2 0.26731005E-01 0.14802233E+04</pdfrwt>
<totfact> 0.17266933E+01</totfact>
</mgrwt>
</event>
<event>
12    1  0.1980523E-007  0.2037198E+04  0.7818608E-02  0.8589424E-01
          2   -1    0    0  501    0  0.00000000000E+00  0.00000000000E+00  0.56438706936E+03  0.56438706936E+03  0.00000000000E+00 0.  1.
         -2   -1    0    0    0  501 -0.00000000000E+00 -0.00000000000E+00 -0.18383558236E+04  0.18383558236E+04  0.00000000000E+00 0. -1.
         23    2    1    2    0    0 -0.54053699347E+03 -0.33555797966E+03 -0.11255421310E+04  0.12961273831E+04  0.91223382089E+02 0.  0.
        254    2    1    2    0    0  0.54053699347E+03  0.33555797966E+03 -0.14842662329E+03  0.11066155099E+04  0.89318980363E+03 0.  0.
        -24    2    4    4    0    0  0.16765968072E+03 -0.30076931899E+03 -0.55663486899E+02  0.35897145023E+03  0.84794613749E+02 0.  0.
         24    2    4    4    0    0  0.37287731275E+03  0.63632729866E+03 -0.92763136387E+02  0.74764405971E+03  0.80104426638E+02 0.  0.
         13    1    3    3    0    0 -0.32901936587E+03 -0.22376179877E+03 -0.61786071160E+03  0.73489791444E+03  0.00000000000E+00 0.  1.
        -13    1    3    3    0    0 -0.21151762760E+03 -0.11179618090E+03 -0.50768141939E+03  0.56122946861E+03  0.00000000000E+00 0. -1.
          4    1    6    6  502    0  0.13014264137E+03  0.28372635217E+03 -0.14593390846E+02  0.31249114720E+03  0.00000000000E+00 0. -1.
          3    1    5    5  503    0  0.92547079854E+02 -0.12848694301E+03 -0.64119959212E+02  0.17083683936E+03  0.00000000000E+00 0. -1.
         -4    1    5    5    0  503  0.75112600871E+02 -0.17228237599E+03  0.84564723129E+01  0.18813461087E+03  0.00000000000E+00 0.  1.
         -3    1    6    6    0  502  0.24273467137E+03  0.35260094649E+03 -0.78169745541E+02  0.43515291251E+03  0.00000000000E+00 0.  1.
<mgrwt>
<rscale>  0 0.20371983E+04</rscale>
<asrwt>0</asrwt>
<pdfrwt beam="1">  1        2 0.86828779E-01 0.20371983E+04</pdfrwt>
<pdfrwt beam="2">  1       -2 0.28282398E+00 0.20371983E+04</pdfrwt>
<totfact> 0.20024025E+00</totfact>
</mgrwt>
</event>
<event>
12    1  0.1980523E-007  0.1435112E+04  0.7818608E-02  0.8928788E-01
         -2   -1    0    0    0  501 -0.00000000000E+00  0.00000000000E+00  0.74463008061E+03  0.74463008061E+03  0.00000000000E+00 0.  1.
          2   -1    0    0  501    0  0.00000000000E+00 -0.00000000000E+00 -0.69146616316E+03  0.69146616316E+03  0.00000000000E+00 0. -1.
         23    2    1    2    0    0 -0.32155956534E+03 -0.25576649414E+03  0.13919122544E+03  0.44272540843E+03  0.88399866797E+02 0.  0.
        254    2    1    2    0    0  0.32155956534E+03  0.25576649414E+03 -0.86027307991E+02  0.99337083533E+03  0.90031542538E+03 0.  0.
        -24    2    4    4    0    0  0.26725869258E+03  0.57917231504E+03 -0.12116964477E+03  0.65408407030E+03  0.79221896827E+02 0.  0.
         24    2    4    4    0    0  0.54300872753E+02 -0.32340582090E+03  0.35142336774E+02  0.33928676503E+03  0.79627980750E+02 0.  0.
         11    1    3    3    0    0 -0.27559236678E+03 -0.18019059725E+03  0.89290063216E+02  0.34116347893E+03  0.00000000000E+00 0. -1.
        -11    1    3    3    0    0 -0.45967198555E+02 -0.75575896887E+02  0.49901162225E+02  0.10156192950E+03  0.00000000000E+00 0.  1.
          2    1    6    6  502    0  0.31639102165E+02 -0.51318295945E+02 -0.13945395463E+02  0.61879514698E+02  0.00000000000E+00 0. -1.
          1    1    5    5  503    0  0.34967412872E+01  0.24481450788E+02 -0.19553511760E+02  0.31526313683E+02  0.00000000000E+00 0. -1.
         -4    1    5    5    0  503  0.26376195130E+03  0.55469086425E+03 -0.10161613301E+03  0.62255775662E+03  0.00000000000E+00 0.  1.
         -1    1    6    6    0  502  0.22661770587E+02 -0.27208752495E+03  0.49087732237E+02  0.27740725033E+03  0.00000000000E+00 0.  1.
<mgrwt>
<rscale>  0 0.14351118E+04</rscale>
<asrwt>0</asrwt>
<pdfrwt beam="1">  1        2 0.10637941E+00 0.14351118E+04</pdfrwt>
<pdfrwt beam="2">  1       -2 0.11455847E+00 0.14351118E+04</pdfrwt>
<totfact> 0.24046343E+01</totfact>
</mgrwt>
</event>
<event>
12    1  0.1980523E-007  0.3037792E+04  0.7818608E-02  0.8233021E-01
         -2   -1    0    0    0  501 -0.00000000000E+00  0.00000000000E+00  0.84108167860E+03  0.84108167860E+03  0.00000000000E+00 0. -1.
          2   -1    0    0  501    0  0.00000000000E+00 -0.00000000000E+00 -0.27429500114E+04  0.27429500114E+04  0.00000000000E+00 0.  1.
         23    2    1    2    0    0  0.33125738600E+02 -0.12693950747E+04 -0.15079510729E+04  0.19735052182E+04  0.91352274156E+02 0.  0.
        254    2    1    2    0    0 -0.33125738600E+02  0.12693950747E+04 -0.39391725984E+03  0.16105264717E+04  0.90893538737E+03 0.  0.
        -24    2    4    4    0    0 -0.83118789618E+02 -0.38429185375E+02  0.14777882202E+03  0.19180554840E+03  0.81026246865E+02 0.  0.
         24    2    4    4    0    0  0.49993051018E+02  0.13078242600E+04 -0.54169608186E+03  0.14187209233E+04  0.80192349528E+02 0.  0.
         13    1    3    3    0    0  0.59319641519E+02 -0.10679814356E+04 -0.12495394327E+04  0.16448258147E+04  0.00000000000E+00 0. -1.
        -13    1    3    3    0    0 -0.26193902919E+02 -0.20141363906E+03 -0.25841164019E+03  0.32867940358E+03  0.00000000000E+00 0.  1.
          2    1    6    6  502    0  0.57641394303E+02  0.60882847640E+03 -0.27498792540E+03  0.67053188077E+03  0.00000000000E+00 0. -1.
          1    1    5    5  503    0 -0.44523559651E+02  0.20612327902E+02  0.41563867164E+02  0.64302180983E+02  0.00000000000E+00 0. -1.
         -2    1    5    5    0  503 -0.38595229967E+02 -0.59041513277E+02  0.10621495486E+03  0.12750336741E+03  0.00000000000E+00 0.  1.
         -1    1    6    6    0  502 -0.76483432850E+01  0.69899578363E+03 -0.26670815647E+03  0.74818904256E+03  0.00000000000E+00 0.  1.
<mgrwt>
<rscale>  0 0.30377920E+04</rscale>
<asrwt>0</asrwt>
<pdfrwt beam="1">  1        2 0.42199232E+00 0.30377920E+04</pdfrwt>
<pdfrwt beam="2">  1       -2 0.12939718E+00 0.30377920E+04</pdfrwt>
<totfact> 0.93825171E-01</totfact>
</mgrwt>
</event>
<event>
12    1  0.1980523E-007  0.1864220E+04  0.7818608E-02  0.8672874E-01
         -1   -1    0    0    0  501 -0.00000000000E+00  0.00000000000E+00  0.29102258881E+03  0.29102258881E+03  0.00000000000E+00 0.  1.
          1   -1    0    0  501    0  0.00000000000E+00 -0.00000000000E+00 -0.29854344965E+04  0.29854344965E+04  0.00000000000E+00 0. -1.
         23    2    1    2    0    0  0.56590321824E+03  0.44921880774E+02 -0.17861386548E+04  0.18763973760E+04  0.91166830442E+02 0.  0.
        254    2    1    2    0    0 -0.56590321824E+03 -0.44921880774E+02 -0.90827325290E+03  0.14000597092E+04  0.90163321797E+03 0.  0.
        -24    2    4    4    0    0 -0.22790153218E+03  0.18701857994E+03 -0.93291587692E+03  0.98164372178E+03  0.79858033286E+02 0.  0.
         24    2    4    4    0    0 -0.33800168606E+03 -0.23194046072E+03  0.24642624020E+02  0.41841598747E+03  0.80144635241E+02 0.  0.
         11    1    3    3    0    0  0.41022245643E+03 -0.58770321607E+00 -0.13560662963E+04  0.14167563690E+04  0.00000000000E+00 0.  1.
        -11    1    3    3    0    0  0.15568076180E+03  0.45509583990E+02 -0.43007235850E+03  0.45964100706E+03  0.00000000000E+00 0. -1.
          4    1    6    6  502    0 -0.33755957578E+03 -0.22602448702E+03  0.14302492951E+02  0.40649489202E+03  0.00000000000E+00 0. -1.
          3    1    5    5  503    0 -0.22957017380E+03  0.19056799462E+03 -0.89275374607E+03  0.94129053772E+03  0.00000000000E+00 0. -1.
         -4    1    5    5    0  503  0.16686416159E+01 -0.35494146817E+01 -0.40162130847E+02  0.40353184058E+02  0.00000000000E+00 0.  1.
         -3    1    6    6    0  502 -0.44211027885E+00 -0.59159736984E+01  0.10340131069E+02  0.11921095454E+02  0.00000000000E+00 0.  1.
<mgrwt>
<rscale>  0 0.18642198E+04</rscale>
<asrwt>0</asrwt>
<pdfrwt beam="1">  1        1 0.45929759E+00 0.18642198E+04</pdfrwt>
<pdfrwt beam="2">  1       -1 0.44772708E-01 0.18642198E+04</pdfrwt>
<totfact> 0.28495339E+00</totfact>
</mgrwt>
</event>
<event>
12    1  0.1980523E-007  0.1392490E+04  0.7818608E-02  0.8959273E-01
          2   -1    0    0  501    0  0.00000000000E+00  0.00000000000E+00  0.16077031898E+04  0.16077031898E+04  0.00000000000E+00 0. -1.
         -2   -1    0    0    0  501 -0.00000000000E+00 -0.00000000000E+00 -0.30152141238E+03  0.30152141238E+03  0.00000000000E+00 0.  1.
         23    2    1    2    0    0  0.35683438383E+03  0.17253308787E+03  0.40542295760E+03  0.57429896886E+03  0.91395225201E+02 0.  0.
        254    2    1    2    0    0 -0.35683438383E+03 -0.17253308787E+03  0.90075881981E+03  0.13349256333E+04  0.90197646927E+03 0.  0.
        -24    2    4    4    0    0 -0.14388743390E+03 -0.27761561248E+03  0.10109974719E+04  0.10608066702E+04  0.73626636067E+02 0.  0.
         24    2    4    4    0    0 -0.21294694993E+03  0.10508252460E+03 -0.11023865206E+03  0.27411896309E+03  0.81239799682E+02 0.  0.
         13    1    3    3    0    0  0.25397528974E+03  0.89895514380E+02  0.22642693999E+03  0.35192870082E+03  0.00000000000E+00 0.  1.
        -13    1    3    3    0    0  0.10285909409E+03  0.82637573494E+02  0.17899601761E+03  0.22237026805E+03  0.00000000000E+00 0. -1.
          2    1    6    6  502    0 -0.35954320840E+02  0.55813320224E+02 -0.39470590923E+02  0.77238380675E+02  0.00000000000E+00 0. -1.
          1    1    5    5  503    0 -0.23331874149E+02 -0.52219776538E+02  0.10651677318E+03  0.12090121746E+03  0.00000000000E+00 0. -1.
         -2    1    5    5    0  503 -0.12055555975E+03 -0.22539583594E+03  0.90448069869E+03  0.93990545277E+03  0.00000000000E+00 0.  1.
         -1    1    6    6    0  502 -0.17699262909E+03  0.49269204381E+02 -0.70768061138E+02  0.19688058241E+03  0.00000000000E+00 0.  1.
<mgrwt>
<rscale>  0 0.13924898E+04</rscale>
<asrwt>0</asrwt>
<pdfrwt beam="1">  1        2 0.24733895E+00 0.13924898E+04</pdfrwt>
<pdfrwt beam="2">  1       -2 0.46387910E-01 0.13924898E+04</pdfrwt>
<totfact> 0.47366549E+01</totfact>
</mgrwt>
</event>
<event>
12    1  0.1980523E-007  0.3928061E+04  0.7818608E-02  0.8019218E-01
          1   -1    0    0  501    0  0.00000000000E+00  0.00000000000E+00  0.32740010378E+04  0.32740010378E+04  0.00000000000E+00 0. -1.
         -1   -1    0    0    0  501 -0.00000000000E+00 -0.00000000000E+00 -0.11781960312E+04  0.11781960312E+04  0.00000000000E+00 0.  1.
         23    2    1    2    0    0  0.34604543482E+03  0.16656134056E+04  0.18669601533E+04  0.25273790475E+04  0.89939846854E+02 0.  0.
        254    2    1    2    0    0 -0.34604543482E+03 -0.16656134056E+04  0.22884485322E+03  0.19248180215E+04  0.87094143845E+03 0.  0.
        -24    2    4    4    0    0 -0.51697154553E+02 -0.85644452286E+03  0.52596972973E+03  0.10095514393E+04  0.79875750642E+02 0.  0.
         24    2    4    4    0    0 -0.29434828027E+03 -0.80916888271E+03 -0.29712487652E+03  0.91526658215E+03  0.89635558309E+02 0.  0.
         13    1    3    3    0    0  0.80606446992E+02  0.54397306338E+03  0.56246780033E+03  0.78662196727E+03  0.00000000000E+00 0.  1.
        -13    1    3    3    0    0  0.26543898783E+03  0.11216403422E+04  0.13044923530E+04  0.17407570803E+04  0.00000000000E+00 0. -1.
          4    1    6    6  502    0 -0.14134827987E+03 -0.50200154159E+03 -0.20077630263E+03  0.55883450831E+03  0.00000000000E+00 0. -1.
          1    1    5    5  503    0 -0.59593618879E+02 -0.52097912251E+03  0.28886348670E+03  0.59867583837E+03  0.00000000000E+00 0. -1.
         -2    1    5    5    0  503  0.78964643252E+01 -0.33546540035E+03  0.23710624303E+03  0.41087560096E+03  0.00000000000E+00 0.  1.
         -3    1    6    6    0  502 -0.15300000039E+03 -0.30716734112E+03 -0.96348573887E+02  0.35643207384E+03  0.00000000000E+00 0.  1.
<mgrwt>
<rscale>  0 0.39280606E+04</rscale>
<asrwt>0</asrwt>
<pdfrwt beam="1">  1        1 0.50369246E+00 0.39280606E+04</pdfrwt>
<pdfrwt beam="2">  1       -1 0.18126093E+00 0.39280606E+04</pdfrwt>
<totfact> 0.59909580E-02</totfact>
</mgrwt>
</event>
<event>
12    1  0.1980523E-007  0.2900870E+04  0.7818608E-02  0.8272619E-01
          1   -1    0    0  501    0  0.00000000000E+00  0.00000000000E+00  0.27164307937E+04  0.27164307937E+04  0.00000000000E+00 0.  1.
         -1   -1    0    0    0  501 -0.00000000000E+00 -0.00000000000E+00 -0.77445800576E+03  0.77445800576E+03  0.00000000000E+00 0. -1.
         23    2    1    2    0    0  0.71976577547E+02 -0.12399810462E+04  0.38047252755E+03  0.13020479823E+04  0.88521078568E+02 0.  0.
        254    2    1    2    0    0 -0.71976577547E+02  0.12399810462E+04  0.15615002604E+04  0.21888408172E+04  0.90000413185E+03 0.  0.
        -24    2    4    4    0    0 -0.18412786249E+03  0.13452176509E+04  0.14035065516E+04  0.19544570740E+04  0.80982811524E+02 0.  0.
         24    2    4    4    0    0  0.11215128494E+03 -0.10523660476E+03  0.15799370882E+03  0.23438374320E+03  0.79505178158E+02 0.  0.
         11    1    3    3    0    0  0.51501406492E+02 -0.54611943892E+03  0.20908670259E+03  0.58704010564E+03  0.00000000000E+00 0.  1.
        -11    1    3    3    0    0  0.20475171055E+02 -0.69386160724E+03  0.17138582496E+03  0.71500787662E+03  0.00000000000E+00 0. -1.
          2    1    6    6  502    0  0.30286877498E+00 -0.23268867775E+02  0.60645318360E+02  0.64956805463E+02  0.00000000000E+00 0. -1.
          1    1    5    5  503    0 -0.71581124646E+01  0.23653944796E+02  0.12826996040E+02  0.27843841435E+02  0.00000000000E+00 0. -1.
         -4    1    5    5    0  503 -0.17696975003E+03  0.13215637061E+04  0.13906795556E+04  0.19266132326E+04  0.00000000000E+00 0.  1.
         -1    1    6    6    0  502  0.11184841617E+03 -0.81967736984E+02  0.97348390464E+02  0.16942693774E+03  0.00000000000E+00 0.  1.
<mgrwt>
<rscale>  0 0.29008699E+04</rscale>
<asrwt>0</asrwt>
<pdfrwt beam="1">  1        1 0.41791242E+00 0.29008699E+04</pdfrwt>
<pdfrwt beam="2">  1       -1 0.11914739E+00 0.29008699E+04</pdfrwt>
<totfact> 0.51636442E-01</totfact>
</mgrwt>
</event>
<event>
12    1  0.1980523E-007  0.2101388E+04  0.7818608E-02  0.8560632E-01
          2   -1    0    0  501    0  0.00000000000E+00  0.00000000000E+00  0.24608178530E+04  0.24608178530E+04  0.00000000000E+00 0. -1.
         -2   -1    0    0    0  501 -0.00000000000E+00 -0.00000000000E+00 -0.44861409521E+03  0.44861409521E+03  0.00000000000E+00 0.  1.
         23    2    1    2    0    0  0.54949659800E+03 -0.37498086883E+03  0.15660540005E+04  0.17039102223E+04  0.90706944588E+02 0.  0.
        254    2    1    2    0    0 -0.54949659800E+03  0.37498086883E+03  0.44614975724E+03  0.12055217259E+04  0.90093055370E+03 0.  0.
        -24    2    4    4    0    0 -0.65431544688E+03 -0.10148331570E+02  0.45016973000E+03  0.79849321292E+03  0.81895864486E+02 0.  0.
         24    2    4    4    0    0  0.10481884888E+03  0.38512920040E+03 -0.40199727575E+01  0.40702851300E+03  0.79652734623E+02 0.  0.
         11    1    3    3    0    0  0.64842671301E+02 -0.77011220237E+02  0.28315424388E+03  0.30051892767E+03  0.00000000000E+00 0. -1.
        -11    1    3    3    0    0  0.48465392669E+03 -0.29796964859E+03  0.12828997567E+04  0.14033912946E+04  0.00000000000E+00 0.  1.
          2    1    6    6  502    0 -0.10574698148E+02  0.30832222108E+02  0.10165052391E+02  0.34143497933E+02  0.00000000000E+00 0. -1.
          3    1    5    5  503    0 -0.13994487454E+03 -0.24706427113E+02  0.12890478698E+03  0.19186302290E+03  0.00000000000E+00 0. -1.
         -4    1    5    5    0  503 -0.51437057233E+03  0.14558095543E+02  0.32126494302E+03  0.60663019002E+03  0.00000000000E+00 0.  1.
         -1    1    6    6    0  502  0.11539354703E+03  0.35429697829E+03 -0.14185025149E+02  0.37288501507E+03  0.00000000000E+00 0.  1.
<mgrwt>
<rscale>  0 0.21013877E+04</rscale>
<asrwt>0</asrwt>
<pdfrwt beam="1">  1        2 0.37858736E+00 0.21013877E+04</pdfrwt>
<pdfrwt beam="2">  1       -2 0.69017554E-01 0.21013877E+04</pdfrwt>
<totfact> 0.64808102E+00</totfact>
</mgrwt>
</event>
<event>
12    1  0.1980523E-007  0.3189400E+04  0.7818608E-02  0.8191622E-01
          1   -1    0    0  501    0  0.00000000000E+00  0.00000000000E+00  0.41124924875E+04  0.41124924875E+04  0.00000000000E+00 0. -1.
         -1   -1    0    0    0  501 -0.00000000000E+00 -0.00000000000E+00 -0.61837636034E+03  0.61837636034E+03  0.00000000000E+00 0.  1.
         23    2    1    2    0    0  0.12806500711E+04  0.49988205954E+03  0.85349977588E+03  0.16206661249E+04  0.90278140627E+02 0.  0.
        254    2    1    2    0    0 -0.12806500711E+04 -0.49988205954E+03  0.26406163512E+04  0.31102027229E+04  0.90031082697E+03 0.  0.
        -24    2    4    4    0    0 -0.85015507819E+03  0.65991527100E+02  0.18811439756E+04  0.20668697362E+04  0.78289914556E+02 0.  0.
         24    2    4    4    0    0 -0.43049499296E+03 -0.56587358664E+03  0.75947237560E+03  0.10433329867E+04  0.78781830985E+02 0.  0.
         11    1    3    3    0    0  0.31012122248E+03  0.11047202711E+03  0.16140622941E+03  0.36664862238E+03  0.00000000000E+00 0. -1.
        -11    1    3    3    0    0  0.97052884867E+03  0.38941003243E+03  0.69209354647E+03  0.12540175025E+04  0.00000000000E+00 0.  1.
          2    1    6    6  502    0 -0.75014778571E+02 -0.15071453573E+03  0.19492700771E+03  0.25756285955E+03  0.00000000000E+00 0. -1.
          1    1    5    5  503    0 -0.84507380771E+02  0.18121616497E+01  0.13679056016E+03  0.16079937401E+03  0.00000000000E+00 0. -1.
         -2    1    5    5    0  503 -0.76564769742E+03  0.64179365450E+02  0.17443534155E+04  0.19060703622E+04  0.00000000000E+00 0.  1.
         -1    1    6    6    0  502 -0.35548021438E+03 -0.41515905091E+03  0.56454536788E+03  0.78577012718E+03  0.00000000000E+00 0.  1.
<mgrwt>
<rscale>  0 0.31894000E+04</rscale>
<asrwt>0</asrwt>
<pdfrwt beam="1">  1        1 0.63269114E+00 0.31894000E+04</pdfrwt>
<pdfrwt beam="2">  1       -1 0.95134827E-01 0.31894000E+04</pdfrwt>
<totfact> 0.67920399E-02</totfact>
</mgrwt>
</event>
<event>
12    1  0.1980523E-007  0.2112050E+04  0.7818608E-02  0.8555954E-01
          2   -1    0    0  501    0  0.00000000000E+00  0.00000000000E+00  0.43873328286E+03  0.43873328286E+03  0.00000000000E+00 0. -1.
         -2   -1    0    0    0  501 -0.00000000000E+00 -0.00000000000E+00 -0.25418377076E+04  0.25418377076E+04  0.00000000000E+00 0.  1.
         23    2    1    2    0    0 -0.17270181012E+03  0.72107272750E+03 -0.14802606288E+04  0.16582852625E+04  0.94692603870E+02 0.  0.
        254    2    1    2    0    0  0.17270181012E+03 -0.72107272750E+03 -0.62284379594E+03  0.13222857279E+04  0.90040732923E+03 0.  0.
        -24    2    4    4    0    0  0.17848677284E+03 -0.23652910979E+03  0.19838709814E+03  0.36527767005E+03  0.79163044887E+02 0.  0.
         24    2    4    4    0    0 -0.57849627215E+01 -0.48454361772E+03 -0.82123089408E+03  0.95700805786E+03  0.81414115214E+02 0.  0.
         11    1    3    3    0    0 -0.77877233766E+02  0.38314517088E+03 -0.87995837156E+03  0.96290800245E+03  0.00000000000E+00 0.  1.
        -11    1    3    3    0    0 -0.94824576351E+02  0.33792755662E+03 -0.60030225723E+03  0.69537726008E+03  0.00000000000E+00 0. -1.
          4    1    6    6  502    0  0.15382558274E+02 -0.70649497222E+02 -0.17444436499E+03  0.18883540726E+03  0.00000000000E+00 0. -1.
          1    1    5    5  503    0  0.68758796456E+02 -0.78487295312E+02  0.27410061960E+02  0.10788576881E+03  0.00000000000E+00 0. -1.
         -2    1    5    5    0  503  0.10972797638E+03 -0.15804181447E+03  0.17097703618E+03  0.25739190124E+03  0.00000000000E+00 0.  1.
         -3    1    6    6    0  502 -0.21167520995E+02 -0.41389412049E+03 -0.64678652908E+03  0.76817265060E+03  0.00000000000E+00 0.  1.
<mgrwt>
<rscale>  0 0.21120500E+04</rscale>
<asrwt>0</asrwt>
<pdfrwt beam="1">  1        2 0.67497427E-01 0.21120500E+04</pdfrwt>
<pdfrwt beam="2">  1       -2 0.39105196E+00 0.21120500E+04</pdfrwt>
<totfact> 0.56083517E-01</totfact>
</mgrwt>
</event>
<event>
12    1  0.1980523E-007  0.3104525E+04  0.7818608E-02  0.8214497E-01
         -2   -1    0    0    0  501 -0.00000000000E+00  0.00000000000E+00  0.16874830586E+04  0.16874830586E+04  0.00000000000E+00 0.  1.
          2   -1    0    0  501    0  0.00000000000E+00 -0.00000000000E+00 -0.14278773259E+04  0.14278773259E+04  0.00000000000E+00 0. -1.
         23    2    1    2    0    0  0.95988143100E+03 -0.10460342409E+04  0.80020231006E+02  0.14249576651E+04  0.92418154443E+02 0.  0.
        254    2    1    2    0    0 -0.95988143100E+03  0.10460342409E+04  0.17958550170E+03  0.16904027194E+04  0.89980576041E+03 0.  0.
        -24    2    4    4    0    0  0.20571669235E+02 -0.12017941733E+03  0.67282598340E+02  0.16068439225E+03  0.80163831915E+02 0.  0.
         24    2    4    4    0    0 -0.98045310023E+03  0.11662136582E+04  0.11230290336E+03  0.15297183271E+04  0.77997690965E+02 0.  0.
         13    1    3    3    0    0  0.63079096959E+03 -0.74802923681E+03  0.67416600520E+02  0.98081088109E+03  0.00000000000E+00 0.  1.
        -13    1    3    3    0    0  0.32909046141E+03 -0.29800500409E+03  0.12603630485E+02  0.44414678402E+03  0.00000000000E+00 0. -1.
          2    1    6    6  502    0 -0.90899542645E+03  0.10464626158E+04  0.10047402290E+03  0.13897667865E+04  0.00000000000E+00 0. -1.
          1    1    5    5  503    0 -0.81717521245E+01 -0.11288549451E+03  0.65964081427E+02  0.13100065817E+03  0.00000000000E+00 0. -1.
         -2    1    5    5    0  503  0.28743421360E+02 -0.72939228184E+01  0.13185169138E+01  0.29683734071E+02  0.00000000000E+00 0.  1.
         -1    1    6    6    0  502 -0.71457673781E+02  0.11975104248E+03  0.11828880454E+02  0.13995154065E+03  0.00000000000E+00 0.  1.
<mgrwt>
<rscale>  0 0.31045250E+04</rscale>
<asrwt>0</asrwt>
<pdfrwt beam="1">  1        2 0.21967344E+00 0.31045250E+04</pdfrwt>
<pdfrwt beam="2">  1       -2 0.25961278E+00 0.31045250E+04</pdfrwt>
<totfact> 0.66412790E-01</totfact>
</mgrwt>
</event>
<event>
12    1  0.1980523E-007  0.1964075E+04  0.7818608E-02  0.8623604E-01
          1   -1    0    0  501    0  0.00000000000E+00  0.00000000000E+00  0.98386225397E+03  0.98386225397E+03  0.00000000000E+00 0. -1.
         -1   -1    0    0    0  501 -0.00000000000E+00 -0.00000000000E+00 -0.98021570528E+03  0.98021570528E+03  0.00000000000E+00 0.  1.
         23    2    1    2    0    0  0.55724181071E+03  0.53290618967E+03 -0.37271555007E+02  0.77731497957E+03  0.91224810569E+02 0.  0.
        254    2    1    2    0    0 -0.55724181071E+03 -0.53290618967E+03  0.40918103696E+02  0.11867629797E+04  0.90123506155E+03 0.  0.
        -24    2    4    4    0    0 -0.70522324584E+03 -0.26148950742E+03 -0.20620985169E+03  0.78375823471E+03  0.77703787429E+02 0.  0.
         24    2    4    4    0    0  0.14798143513E+03 -0.27141668225E+03  0.24712795539E+03  0.40300474498E+03  0.75993931315E+02 0.  0.
         11    1    3    3    0    0  0.30693107211E+03  0.31236871126E+03  0.22023844958E+02  0.43848140730E+03  0.00000000000E+00 0. -1.
        -11    1    3    3    0    0  0.25031073860E+03  0.22053747840E+03 -0.59295399966E+02  0.33883357226E+03  0.00000000000E+00 0.  1.
          4    1    6    6  502    0  0.12553732407E+03 -0.24669442353E+03  0.18642554622E+03  0.33372480073E+03  0.00000000000E+00 0. -1.
          1    1    5    5  503    0 -0.62900494939E+03 -0.21066567956E+03 -0.16656240087E+03  0.68393734237E+03  0.00000000000E+00 0. -1.
         -2    1    5    5    0  503 -0.76218296444E+02 -0.50823827852E+02 -0.39647450817E+02  0.99820892335E+02  0.00000000000E+00 0.  1.
         -3    1    6    6    0  502  0.22444111057E+02 -0.24722258719E+02  0.60702409164E+02  0.69279944253E+02  0.00000000000E+00 0.  1.
<mgrwt>
<rscale>  0 0.19640746E+04</rscale>
<asrwt>0</asrwt>
<pdfrwt beam="1">  1        1 0.15136342E+00 0.19640746E+04</pdfrwt>
<pdfrwt beam="2">  1       -1 0.15080242E+00 0.19640746E+04</pdfrwt>
<totfact> 0.49858656E+00</totfact>
</mgrwt>
</event>
<event>
12    1  0.1980523E-007  0.1962658E+04  0.7818608E-02  0.8624281E-01
         -1   -1    0    0    0  501 -0.00000000000E+00  0.00000000000E+00  0.36281772543E+03  0.36281772543E+03  0.00000000000E+00 0.  1.
          1   -1    0    0  501    0  0.00000000000E+00 -0.00000000000E+00 -0.26542447256E+04  0.26542447256E+04  0.00000000000E+00 0. -1.
         23    2    1    2    0    0  0.23192157685E+03 -0.53482095922E+03 -0.12844728135E+03  0.60334381533E+03  0.87772314417E+02 0.  0.
        254    2    1    2    0    0 -0.23192157685E+03  0.53482095922E+03 -0.21629797188E+04  0.24137186357E+04  0.89874095940E+03 0.  0.
        -24    2    4    4    0    0 -0.42881376452E+03  0.15699774156E+03 -0.17651437430E+04  0.18250156594E+04  0.80126075766E+02 0.  0.
         24    2    4    4    0    0  0.19689218766E+03  0.37782321766E+03 -0.39783597582E+03  0.58870297633E+03  0.82345693996E+02 0.  0.
         11    1    3    3    0    0  0.66319657559E+02 -0.95163119766E+02 -0.52941335478E+02  0.12750333856E+03  0.00000000000E+00 0. -1.
        -11    1    3    3    0    0  0.16560191929E+03 -0.43965783945E+03 -0.75505945870E+02  0.47584047676E+03  0.00000000000E+00 0.  1.
          2    1    6    6  502    0  0.94119054366E+02  0.11274719867E+03 -0.16777241254E+03  0.22297513228E+03  0.00000000000E+00 0. -1.
          3    1    5    5  503    0 -0.14493325366E+03  0.94181742234E+02 -0.66869199878E+03  0.69066984719E+03  0.00000000000E+00 0. -1.
         -4    1    5    5    0  503 -0.28388051086E+03  0.62815999325E+02 -0.10964517442E+04  0.11343458122E+04  0.00000000000E+00 0.  1.
         -1    1    6    6    0  502  0.10277313330E+03  0.26507601898E+03 -0.23006356328E+03  0.36572784406E+03  0.00000000000E+00 0.  1.
<mgrwt>
<rscale>  0 0.19626584E+04</rscale>
<asrwt>0</asrwt>
<pdfrwt beam="1">  1        1 0.40834536E+00 0.19626584E+04</pdfrwt>
<pdfrwt beam="2">  1       -1 0.55818110E-01 0.19626584E+04</pdfrwt>
<totfact> 0.31965260E+00</totfact>
</mgrwt>
</event>
<event>
12    1  0.1980523E-007  0.1658818E+04  0.7818608E-02  0.8785207E-01
          2   -1    0    0  501    0  0.00000000000E+00  0.00000000000E+00  0.20460411861E+04  0.20460411861E+04  0.00000000000E+00 0. -1.
         -2   -1    0    0    0  501 -0.00000000000E+00 -0.00000000000E+00 -0.33621959785E+03  0.33621959785E+03  0.00000000000E+00 0.  1.
         23    2    1    2    0    0  0.42955563637E+03  0.38852942602E+03  0.56903201809E+03  0.81704699020E+03  0.91077917038E+02 0.  0.
        254    2    1    2    0    0 -0.42955563637E+03 -0.38852942602E+03  0.11407895701E+04  0.15652137937E+04  0.90167633721E+03 0.  0.
        -24    2    4    4    0    0 -0.23043737121E+03 -0.61498746236E+02 -0.95113581502E+02  0.26890950774E+03  0.79888998771E+02 0.  0.
         24    2    4    4    0    0 -0.19911826516E+03 -0.32703067978E+03  0.12359031516E+04  0.12963042860E+04  0.79693491528E+02 0.  0.
         13    1    3    3    0    0  0.21848861964E+03  0.14041547792E+03  0.27442300550E+03  0.37783828458E+03  0.00000000000E+00 0.  1.
        -13    1    3    3    0    0  0.21106701673E+03  0.24811394810E+03  0.29460901259E+03  0.43920870562E+03  0.00000000000E+00 0. -1.
          2    1    6    6  502    0 -0.13565394826E+03 -0.17212641166E+03  0.79626988649E+03  0.82587845801E+03  0.00000000000E+00 0. -1.
          3    1    5    5  503    0 -0.20613880240E+03 -0.43533029045E+02 -0.10716752134E+03  0.23637514274E+03  0.00000000000E+00 0. -1.
         -4    1    5    5    0  503 -0.24298568810E+02 -0.17965717191E+02  0.12053939835E+02  0.32534365000E+02  0.00000000000E+00 0.  1.
         -1    1    6    6    0  502 -0.63464316892E+02 -0.15490426812E+03  0.43963326513E+03  0.47042582796E+03  0.00000000000E+00 0.  1.
<mgrwt>
<rscale>  0 0.16588178E+04</rscale>
<asrwt>0</asrwt>
<pdfrwt beam="1">  1        2 0.31477556E+00 0.16588178E+04</pdfrwt>
<pdfrwt beam="2">  1       -2 0.51726093E-01 0.16588178E+04</pdfrwt>
<totfact> 0.21227351E+01</totfact>
</mgrwt>
</event>
<event>
12    1  0.1980523E-007  0.1752482E+04  0.7818608E-02  0.8731985E-01
          1   -1    0    0  501    0  0.00000000000E+00  0.00000000000E+00  0.16644910627E+04  0.16644910627E+04  0.00000000000E+00 0. -1.
         -1   -1    0    0    0  501 -0.00000000000E+00 -0.00000000000E+00 -0.46128116464E+03  0.46128116464E+03  0.00000000000E+00 0.  1.
         23    2    1    2    0    0  0.28734560144E+03  0.56832202198E+03  0.32487347390E+03  0.71969718085E+03  0.82848311630E+02 0.  0.
        254    2    1    2    0    0 -0.28734560144E+03 -0.56832202198E+03  0.87833642421E+03  0.14060750465E+04  0.89443543482E+03 0.  0.
        -24    2    4    4    0    0  0.19265810646E+03 -0.12168310950E+03 -0.67204799831E+02  0.25270948569E+03  0.86149137641E+02 0.  0.
         24    2    4    4    0    0 -0.48000370790E+03 -0.44663891248E+03  0.94554122405E+03  0.11533655608E+04  0.79460888788E+02 0.  0.
         11    1    3    3    0    0  0.61586573099E+02  0.78399423347E+02  0.77344633956E+02  0.12618069571E+03  0.00000000000E+00 0. -1.
        -11    1    3    3    0    0  0.22575902835E+03  0.48992259863E+03  0.24752883994E+03  0.59351648514E+03  0.00000000000E+00 0.  1.
          2    1    6    6  502    0 -0.42730871864E+03 -0.42018224660E+03  0.88533689734E+03  0.10690964798E+04  0.00000000000E+00 0. -1.
          1    1    5    5  503    0  0.18128252577E+03 -0.10693811921E+03 -0.84964305584E+02  0.22697587694E+03  0.00000000000E+00 0. -1.
         -2    1    5    5    0  503  0.11375580683E+02 -0.14744990288E+02  0.17759505753E+02  0.25733608745E+02  0.00000000000E+00 0.  1.
         -1    1    6    6    0  502 -0.52694989261E+02 -0.26456665874E+02  0.60204326705E+02  0.84269081022E+02  0.00000000000E+00 0.  1.
<mgrwt>
<rscale>  0 0.17524821E+04</rscale>
<asrwt>0</asrwt>
<pdfrwt beam="1">  1        1 0.25607555E+00 0.17524821E+04</pdfrwt>
<pdfrwt beam="2">  1       -1 0.70966334E-01 0.17524821E+04</pdfrwt>
<totfact> 0.95767532E+00</totfact>
</mgrwt>
</event>
<event>
12    1  0.1980523E-007  0.1775951E+04  0.7818608E-02  0.8719194E-01
          2   -1    0    0  501    0  0.00000000000E+00  0.00000000000E+00  0.14246639550E+04  0.14246639550E+04  0.00000000000E+00 0.  1.
         -2   -1    0    0    0  501 -0.00000000000E+00 -0.00000000000E+00 -0.55346434029E+03  0.55346434029E+03  0.00000000000E+00 0. -1.
         23    2    1    2    0    0  0.43586931894E+02 -0.64425698788E+03  0.45085132955E+03  0.79395846170E+03  0.10067884821E+03 0.  0.
        254    2    1    2    0    0 -0.43586931894E+02  0.64425698788E+03  0.42034828519E+03  0.11841698336E+04  0.89922112238E+03 0.  0.
        -24    2    4    4    0    0  0.82662875957E+02  0.51359852539E+03 -0.17625101728E+03  0.55537345786E+03  0.82211071366E+02 0.  0.
         24    2    4    4    0    0 -0.12624980785E+03  0.13065846250E+03  0.59659930247E+03  0.62879637577E+03  0.80271456129E+02 0.  0.
         11    1    3    3    0    0  0.30701922237E+02 -0.44660953117E+03  0.25397548178E+03  0.51469041832E+03  0.00000000000E+00 0.  1.
        -11    1    3    3    0    0  0.12885009657E+02 -0.19764745671E+03  0.19687584777E+03  0.27926804338E+03  0.00000000000E+00 0. -1.
          2    1    6    6  502    0 -0.95089735894E+02  0.43723732813E+02  0.27664358334E+03  0.29577947002E+03  0.00000000000E+00 0. -1.
          3    1    5    5  503    0  0.39334553456E+02  0.16396853823E+03 -0.19409105304E+02  0.16973391527E+03  0.00000000000E+00 0. -1.
         -4    1    5    5    0  503  0.43328322500E+02  0.34962998716E+03 -0.15684191198E+03  0.38563954259E+03  0.00000000000E+00 0.  1.
         -1    1    6    6    0  502 -0.31160071957E+02  0.86934729683E+02  0.31995571913E+03  0.33301690575E+03  0.00000000000E+00 0.  1.
<mgrwt>
<rscale>  0 0.17759512E+04</rscale>
<asrwt>0</asrwt>
<pdfrwt beam="1">  1        2 0.21917907E+00 0.17759512E+04</pdfrwt>
<pdfrwt beam="2">  1       -2 0.85148361E-01 0.17759512E+04</pdfrwt>
<totfact> 0.15902422E+01</totfact>
</mgrwt>
</event>
<event>
12    1  0.1980523E-007  0.1834885E+04  0.7818608E-02  0.8687965E-01
         -2   -1    0    0    0  501 -0.00000000000E+00  0.00000000000E+00  0.22952349276E+03  0.22952349276E+03  0.00000000000E+00 0.  1.
          2   -1    0    0  501    0  0.00000000000E+00 -0.00000000000E+00 -0.36671639959E+04  0.36671639959E+04  0.00000000000E+00 0. -1.
         23    2    1    2    0    0 -0.27242536747E+03  0.53325996881E+03 -0.57515312862E+03  0.83524234910E+03  0.90812362578E+02 0.  0.
        254    2    1    2    0    0  0.27242536747E+03 -0.53325996881E+03 -0.28624873745E+04  0.30614451396E+04  0.90555540861E+03 0.  0.
        -24    2    4    4    0    0  0.30833546495E+03 -0.31383899576E+03 -0.27747956331E+04  0.28104095572E+04  0.73112241247E+02 0.  0.
         24    2    4    4    0    0 -0.35910097478E+02 -0.21942097305E+03 -0.87691741428E+02  0.25103558231E+03  0.76771893021E+02 0.  0.
         13    1    3    3    0    0 -0.10153730890E+03  0.20288107622E+03 -0.28020394155E+03  0.36053405533E+03  0.00000000000E+00 0. -1.
        -13    1    3    3    0    0 -0.17088805857E+03  0.33037889258E+03 -0.29494918706E+03  0.47470829377E+03  0.00000000000E+00 0.  1.
          4    1    6    6  502    0 -0.14378407201E+02 -0.20712460038E+03 -0.89674196503E+02  0.22616100503E+03  0.00000000000E+00 0. -1.
          1    1    5    5  503    0  0.30547519876E+03 -0.31563303076E+03 -0.26965403412E+04  0.27320814627E+04  0.00000000000E+00 0. -1.
         -2    1    5    5    0  503  0.28602661874E+01  0.17940350000E+01 -0.78255291921E+02  0.78328094564E+02  0.00000000000E+00 0.  1.
         -3    1    6    6    0  502 -0.21531690277E+02 -0.12296372665E+02  0.19824550750E+01  0.24874577283E+02  0.00000000000E+00 0.  1.
<mgrwt>
<rscale>  0 0.18348845E+04</rscale>
<asrwt>0</asrwt>
<pdfrwt beam="1">  1        2 0.56417904E+00 0.18348845E+04</pdfrwt>
<pdfrwt beam="2">  1       -2 0.35311309E-01 0.18348845E+04</pdfrwt>
<totfact> 0.44175217E+00</totfact>
</mgrwt>
</event>
<event>
12    1  0.1980523E-007  0.1406306E+04  0.7818608E-02  0.8949267E-01
         -1   -1    0    0    0  501 -0.00000000000E+00  0.00000000000E+00  0.32612252786E+03  0.32612252786E+03  0.00000000000E+00 0.  1.
          1   -1    0    0  501    0  0.00000000000E+00 -0.00000000000E+00 -0.15160686655E+04  0.15160686655E+04  0.00000000000E+00 0. -1.
         23    2    1    2    0    0 -0.46839785629E+01 -0.29991301944E+02  0.17785953077E+03  0.20462832929E+03  0.96526279399E+02 0.  0.
        254    2    1    2    0    0  0.46839785629E+01  0.29991301944E+02 -0.13678056684E+04  0.16375628640E+04  0.89988797602E+03 0.  0.
        -24    2    4    4    0    0 -0.30075072332E+03 -0.10110281089E+03 -0.12236770910E+04  0.12665502973E+04  0.78046503010E+02 0.  0.
         24    2    4    4    0    0  0.30543470189E+03  0.13109411283E+03 -0.14412857735E+03  0.37101256670E+03  0.80007839030E+02 0.  0.
         13    1    3    3    0    0 -0.35103950745E+02 -0.16002716242E+02  0.16385472963E+03  0.16833522123E+03  0.00000000000E+00 0. -1.
        -13    1    3    3    0    0  0.30419972182E+02 -0.13988585702E+02  0.14004801139E+02  0.36293108057E+02  0.00000000000E+00 0.  1.
          4    1    6    6  502    0  0.18649055452E+03  0.83159094169E+02 -0.45418031180E+02  0.20918164218E+03  0.00000000000E+00 0. -1.
          1    1    5    5  503    0 -0.76367783532E+02  0.32035130316E+01 -0.36581360133E+03  0.37371364944E+03  0.00000000000E+00 0. -1.
         -4    1    5    5    0  503 -0.22438293979E+03 -0.10430632392E+03 -0.85786348968E+03  0.89283664788E+03  0.00000000000E+00 0.  1.
         -3    1    6    6    0  502  0.11894414737E+03  0.47935018662E+02 -0.98710546172E+02  0.16183092453E+03  0.00000000000E+00 0.  1.
<mgrwt>
<rscale>  0 0.14063060E+04</rscale>
<asrwt>0</asrwt>
<pdfrwt beam="1">  1        1 0.23324134E+00 0.14063060E+04</pdfrwt>
<pdfrwt beam="2">  1       -1 0.50172696E-01 0.14063060E+04</pdfrwt>
<totfact> 0.24776690E+01</totfact>
</mgrwt>
</event>
<event>
12    1  0.1980523E-007  0.1820978E+04  0.7818608E-02  0.8695222E-01
         -2   -1    0    0    0  501 -0.00000000000E+00  0.00000000000E+00  0.10583388748E+04  0.10583388748E+04  0.00000000000E+00 0.  1.
          2   -1    0    0  501    0  0.00000000000E+00 -0.00000000000E+00 -0.78329376853E+03  0.78329376853E+03  0.00000000000E+00 0. -1.
         23    2    1    2    0    0  0.13732373591E+03  0.64621441852E+03  0.24844671692E+03  0.71161553579E+03  0.90664306551E+02 0.  0.
        254    2    1    2    0    0 -0.13732373591E+03 -0.64621441852E+03  0.26598389401E+02  0.11300171076E+04  0.91639527824E+03 0.  0.
        -24    2    4    4    0    0  0.38118153970E+02  0.87489748062E+02 -0.28368531998E+03  0.31050384992E+03  0.82630686575E+02 0.  0.
         24    2    4    4    0    0 -0.17544188988E+03 -0.73370416658E+03  0.31028370938E+03  0.81951325767E+03  0.78894476400E+02 0.  0.
         13    1    3    3    0    0  0.53393537869E+02  0.23145471552E+03  0.43704878910E+02  0.24152074789E+03  0.00000000000E+00 0. -1.
        -13    1    3    3    0    0  0.83930198039E+02  0.41475970300E+03  0.20474183801E+03  0.47009478790E+03  0.00000000000E+00 0.  1.
          2    1    6    6  502    0 -0.17900011207E+03 -0.64917710674E+03  0.26614239449E+03  0.72408820608E+03  0.00000000000E+00 0. -1.
          3    1    5    5  503    0  0.86596226879E+01  0.42384374292E+02 -0.23147398513E+03  0.23548169789E+03  0.00000000000E+00 0. -1.
         -4    1    5    5    0  503  0.29458531283E+02  0.45105373770E+02 -0.52211334853E+02  0.75022152031E+02  0.00000000000E+00 0.  1.
         -1    1    6    6    0  502  0.35582221964E+01 -0.84527059836E+02  0.44141314898E+02  0.95425051589E+02  0.00000000000E+00 0.  1.
<mgrwt>
<rscale>  0 0.18209780E+04</rscale>
<asrwt>0</asrwt>
<pdfrwt beam="1">  1        2 0.12050673E+00 0.18209780E+04</pdfrwt>
<pdfrwt beam="2">  1       -2 0.16282137E+00 0.18209780E+04</pdfrwt>
<totfact> 0.80135462E+00</totfact>
</mgrwt>
</event>
<event>
12    1  0.1980523E-007  0.3398860E+04  0.7818608E-02  0.8138186E-01
          2   -1    0    0  501    0  0.00000000000E+00  0.00000000000E+00  0.44386322459E+04  0.44386322459E+04  0.00000000000E+00 0.  1.
         -2   -1    0    0    0  501 -0.00000000000E+00 -0.00000000000E+00 -0.65066504063E+03  0.65066504063E+03  0.00000000000E+00 0. -1.
         23    2    1    2    0    0 -0.38044905072E+03 -0.13956882481E+04  0.27141281301E+04  0.30767983475E+04  0.86656788948E+02 0.  0.
        254    2    1    2    0    0  0.38044905072E+03  0.13956882481E+04  0.10738390752E+04  0.20124989390E+04  0.89684695123E+03 0.  0.
        -24    2    4    4    0    0 -0.10091488050E+03 -0.75569314684E+02  0.66681501048E+02  0.16372103668E+03  0.80396646950E+02 0.  0.
         24    2    4    4    0    0  0.48136393122E+03  0.14712575628E+04  0.10071575741E+04  0.18487779023E+04  0.85459362192E+02 0.  0.
         13    1    3    3    0    0 -0.31285018748E+03 -0.12055580108E+04  0.22781027954E+04  0.25963431406E+04  0.00000000000E+00 0.  1.
        -13    1    3    3    0    0 -0.67598863236E+02 -0.19013023727E+03  0.43602533468E+03  0.48045520698E+03  0.00000000000E+00 0. -1.
          2    1    6    6  502    0  0.25862492641E+02  0.35086938674E+02  0.31783245514E+02  0.53945680889E+02  0.00000000000E+00 0. -1.
          3    1    5    5  503    0  0.91216098963E+00 -0.96552434421E+01  0.37809382546E+02  0.39033385353E+02  0.00000000000E+00 0. -1.
         -4    1    5    5    0  503 -0.10182704149E+03 -0.65914071242E+02  0.28872118502E+02  0.12468765133E+03  0.00000000000E+00 0.  1.
         -1    1    6    6    0  502  0.45550143858E+03  0.14361706241E+04  0.97537432862E+03  0.17948322214E+04  0.00000000000E+00 0.  1.
<mgrwt>
<rscale>  0 0.33988603E+04</rscale>
<asrwt>0</asrwt>
<pdfrwt beam="1">  1        2 0.68286648E+00 0.33988603E+04</pdfrwt>
<pdfrwt beam="2">  1       -2 0.10010232E+00 0.33988603E+04</pdfrwt>
<totfact> 0.95945801E-02</totfact>
</mgrwt>
</event>
<event>
12    1  0.1980523E-007  0.4071594E+04  0.7818608E-02  0.7990258E-01
         -1   -1    0    0    0  501 -0.00000000000E+00  0.00000000000E+00  0.23366696199E+04  0.23366696199E+04  0.00000000000E+00 0.  1.
          1   -1    0    0  501    0  0.00000000000E+00 -0.00000000000E+00 -0.17736647588E+04  0.17736647588E+04  0.00000000000E+00 0. -1.
         23    2    1    2    0    0  0.16357023137E+04 -0.10183025143E+04  0.94050373687E+02  0.19311543788E+04  0.89720076333E+02 0.  0.
        254    2    1    2    0    0 -0.16357023137E+04  0.10183025143E+04  0.46895448743E+03  0.21791799999E+04  0.90357351172E+03 0.  0.
        -24    2    4    4    0    0 -0.11677920807E+04  0.40304539412E+03  0.62462167358E+03  0.13866631559E+04  0.80613518314E+02 0.  0.
         24    2    4    4    0    0 -0.46791023295E+03  0.61525712022E+03 -0.15566718615E+03  0.79251684401E+03  0.79808302225E+02 0.  0.
         13    1    3    3    0    0  0.10745366794E+04 -0.66466668515E+03  0.10417008873E+03  0.12677784842E+04  0.00000000000E+00 0.  1.
        -13    1    3    3    0    0  0.56116563432E+03 -0.35363582920E+03 -0.10119715045E+02  0.66337589455E+03  0.00000000000E+00 0. -1.
          4    1    6    6  502    0 -0.40719353076E+02  0.44331304444E+02 -0.34071200685E+02  0.69167745263E+02  0.00000000000E+00 0. -1.
          3    1    5    5  503    0 -0.34508110199E+03  0.10441544548E+03  0.14470496062E+03  0.38848819523E+03  0.00000000000E+00 0. -1.
         -4    1    5    5    0  503 -0.82271097875E+03  0.29862994864E+03  0.47991671296E+03  0.99817496070E+03  0.00000000000E+00 0.  1.
         -3    1    6    6    0  502 -0.42719087988E+03  0.57092581578E+03 -0.12159598546E+03  0.72334909874E+03  0.00000000000E+00 0.  1.
<mgrwt>
<rscale>  0 0.40715936E+04</rscale>
<asrwt>0</asrwt>
<pdfrwt beam="1">  1        1 0.27287150E+00 0.40715936E+04</pdfrwt>
<pdfrwt beam="2">  1       -1 0.35948764E+00 0.40715936E+04</pdfrwt>
<totfact> 0.44368442E-02</totfact>
</mgrwt>
</event>
<event>
12    1  0.1980523E-007  0.1940790E+04  0.7818608E-02  0.8634815E-01
          2   -1    0    0  501    0  0.00000000000E+00  0.00000000000E+00  0.12283553747E+04  0.12283553747E+04  0.00000000000E+00 0. -1.
         -2   -1    0    0    0  501 -0.00000000000E+00 -0.00000000000E+00 -0.76660775571E+03  0.76660775571E+03  0.00000000000E+00 0.  1.
         23    2    1    2    0    0  0.26179142064E+03 -0.68906056305E+03  0.36418895871E+03  0.82745734288E+03  0.93342643866E+02 0.  0.
        254    2    1    2    0    0 -0.26179142064E+03  0.68906056305E+03  0.97558660278E+02  0.11675057875E+04  0.90011825016E+03 0.  0.
        -24    2    4    4    0    0  0.19467140612E+03  0.29155926792E+03  0.35475415174E+03  0.50499237037E+03  0.79139262635E+02 0.  0.
         24    2    4    4    0    0 -0.45646282676E+03  0.39750129512E+03 -0.25719549146E+03  0.66251341716E+03  0.80055700909E+02 0.  0.
         13    1    3    3    0    0  0.11258680455E+03 -0.41642706447E+03  0.23093730866E+03  0.48930494491E+03  0.00000000000E+00 0. -1.
        -13    1    3    3    0    0  0.14920461609E+03 -0.27263349858E+03  0.13325165005E+03  0.33815239796E+03  0.00000000000E+00 0.  1.
          2    1    6    6  502    0 -0.23065930287E+03  0.15495156010E+03 -0.13880352397E+03  0.31061248888E+03  0.00000000000E+00 0. -1.
          3    1    5    5  503    0  0.16905489164E+02  0.84834061122E+02  0.93615742430E+02  0.12746184025E+03  0.00000000000E+00 0. -1.
         -4    1    5    5    0  503  0.17776591696E+03  0.20672520680E+03  0.26113840930E+03  0.37753053012E+03  0.00000000000E+00 0.  1.
         -1    1    6    6    0  502 -0.22580352389E+03  0.24254973502E+03 -0.11839196749E+03  0.35190092828E+03  0.00000000000E+00 0.  1.
<mgrwt>
<rscale>  0 0.19407903E+04</rscale>
<asrwt>0</asrwt>
<pdfrwt beam="1">  1        2 0.18897775E+00 0.19407903E+04</pdfrwt>
<pdfrwt beam="2">  1       -2 0.11793966E+00 0.19407903E+04</pdfrwt>
<totfact> 0.94279778E+00</totfact>
</mgrwt>
</event>
<event>
12    1  0.2507874E-007  0.4639357E+04  0.7818608E-02  0.7886684E-01
          1   -1    0    0  501    0  0.00000000000E+00  0.00000000000E+00  0.16918843490E+04  0.16918843490E+04  0.00000000000E+00 0. -1.
         -1   -1    0    0    0  501 -0.00000000000E+00 -0.00000000000E+00 -0.31804238817E+04  0.31804238817E+04  0.00000000000E+00 0.  1.
         23    2    1    2    0    0  0.70917021936E+01 -0.22018613581E+04 -0.33176278352E+03  0.22283612302E+04  0.85343394178E+02 0.  0.
        254    2    1    2    0    0 -0.70917021936E+01  0.22018613581E+04 -0.11567767492E+04  0.26439470006E+04  0.89670483546E+03 0.  0.
        -24    2    4    4    0    0  0.34500268107E+03  0.13731433534E+04 -0.42466008017E+03  0.14803701756E+04  0.81302854787E+02 0.  0.
         24    2    4    4    0    0 -0.35209438326E+03  0.82871800468E+03 -0.73211666900E+03  0.11635768250E+04  0.84688987155E+02 0.  0.
         11    1    3    3    0    0 -0.38861334063E+02 -0.88398397230E+03 -0.12992831335E+03  0.89432613357E+03  0.00000000000E+00 0. -1.
        -11    1    3    3    0    0  0.45953036257E+02 -0.13178773858E+04 -0.20183447018E+03  0.13340350966E+04  0.00000000000E+00 0.  1.
          4    1    6    6  502    0 -0.34286023472E+03  0.80599364071E+03 -0.72751365701E+03  0.11386197831E+04  0.00000000000E+00 0. -1.
          3    1    5    5  503    0  0.34496095849E+03  0.13716509866E+04 -0.42715797556E+03  0.14774601273E+04  0.00000000000E+00 0. -1.
         -4    1    5    5    0  503  0.41722579874E-01  0.14923668708E+01  0.24978953901E+01  0.29100482866E+01  0.00000000000E+00 0.  1.
         -3    1    6    6    0  502 -0.92341485372E+01  0.22724363967E+02 -0.46030119940E+01  0.24957041819E+02  0.00000000000E+00 0.  1.
<mgrwt>
<rscale>  0 0.46393575E+04</rscale>
<asrwt>0</asrwt>
<pdfrwt beam="1">  1        1 0.26028991E+00 0.46393575E+04</pdfrwt>
<pdfrwt beam="2">  1       -1 0.48929597E+00 0.46393575E+04</pdfrwt>
<totfact> 0.63012965E-03</totfact>
</mgrwt>
</event>
<event>
12    1  0.1980523E-007  0.1526773E+04  0.7818608E-02  0.8866842E-01
          2   -1    0    0  501    0  0.00000000000E+00  0.00000000000E+00  0.98606493551E+03  0.98606493551E+03  0.00000000000E+00 0. -1.
         -2   -1    0    0    0  501 -0.00000000000E+00 -0.00000000000E+00 -0.59099456428E+03  0.59099456428E+03  0.00000000000E+00 0.  1.
         23    2    1    2    0    0 -0.22129325314E+03 -0.12332596527E+03 -0.30742335608E+03  0.40810708030E+03  0.88669450963E+02 0.  0.
        254    2    1    2    0    0  0.22129325314E+03  0.12332596527E+03  0.70249372731E+03  0.11689524195E+04  0.89931769944E+03 0.  0.
        -24    2    4    4    0    0 -0.12593389932E+03  0.23526706757E+03 -0.89598592650E+02  0.29279037186E+03  0.80550319476E+02 0.  0.
         24    2    4    4    0    0  0.34722715245E+03 -0.11194110229E+03  0.79209231996E+03  0.87616204763E+03  0.84570589430E+02 0.  0.
         13    1    3    3    0    0 -0.12402969228E+02 -0.19961826425E+02 -0.76443596852E+02  0.79974568830E+02  0.00000000000E+00 0.  1.
        -13    1    3    3    0    0 -0.20889028391E+03 -0.10336413885E+03 -0.23097975923E+03  0.32813251147E+03  0.00000000000E+00 0. -1.
          2    1    6    6  502    0  0.30629709735E+03 -0.67033486560E+02  0.67356687574E+03  0.74296953926E+03  0.00000000000E+00 0. -1.
          1    1    5    5  503    0 -0.12286086607E+03  0.23906651856E+03 -0.77494929182E+02  0.27973747829E+03  0.00000000000E+00 0. -1.
         -2    1    5    5    0  503 -0.30730332479E+01 -0.37994509949E+01 -0.12103663468E+02  0.13052893570E+02  0.00000000000E+00 0.  1.
         -1    1    6    6    0  502  0.40930055100E+02 -0.44907615734E+02  0.11852544422E+03  0.13319250838E+03  0.00000000000E+00 0.  1.
<mgrwt>
<rscale>  0 0.15267731E+04</rscale>
<asrwt>0</asrwt>
<pdfrwt beam="1">  1        2 0.15170230E+00 0.15267731E+04</pdfrwt>
<pdfrwt beam="2">  1       -2 0.90922241E-01 0.15267731E+04</pdfrwt>
<totfact> 0.25600798E+01</totfact>
</mgrwt>
</event>
<event>
12    1  0.1980523E-007  0.1328154E+04  0.7818608E-02  0.9007532E-01
          2   -1    0    0  501    0  0.00000000000E+00  0.00000000000E+00  0.68558576384E+03  0.68558576384E+03  0.00000000000E+00 0. -1.
         -2   -1    0    0    0  501 -0.00000000000E+00 -0.00000000000E+00 -0.64324338533E+03  0.64324338533E+03  0.00000000000E+00 0.  1.
         23    2    1    2    0    0 -0.29752308834E+03  0.17132971453E+03  0.81974041035E+02  0.36443959469E+03  0.90678639138E+02 0.  0.
        254    2    1    2    0    0  0.29752308834E+03 -0.17132971453E+03 -0.39631662522E+02  0.96438955448E+03  0.90033476271E+03 0.  0.
        -24    2    4    4    0    0 -0.30542369695E+03  0.30802489183E+01 -0.94891480839E+02  0.32923802972E+03  0.78103549769E+02 0.  0.
         24    2    4    4    0    0  0.60294678529E+03 -0.17440996345E+03  0.55259818318E+02  0.63515152477E+03  0.80000941587E+02 0.  0.
         11    1    3    3    0    0 -0.24520900902E+03  0.95880975630E+02  0.60319017434E+02  0.27010924356E+03  0.00000000000E+00 0.  1.
        -11    1    3    3    0    0 -0.52314079323E+02  0.75448738902E+02  0.21655023601E+02  0.94330351131E+02  0.00000000000E+00 0. -1.
          4    1    6    6  502    0  0.51275573996E+03 -0.12372039311E+03  0.28260075888E+02  0.52822705006E+03  0.00000000000E+00 0. -1.
          1    1    5    5  503    0 -0.17778312176E+03 -0.30031257558E+02 -0.77418051595E+02  0.19621995190E+03  0.00000000000E+00 0. -1.
         -2    1    5    5    0  503 -0.12764057519E+03  0.33111506476E+02 -0.17473429245E+02  0.13301807781E+03  0.00000000000E+00 0.  1.
         -3    1    6    6    0  502  0.90191045331E+02 -0.50689570345E+02  0.26999742430E+02  0.10692447471E+03  0.00000000000E+00 0.  1.
<mgrwt>
<rscale>  0 0.13281544E+04</rscale>
<asrwt>0</asrwt>
<pdfrwt beam="1">  1        2 0.10547473E+00 0.13281544E+04</pdfrwt>
<pdfrwt beam="2">  1       -2 0.98960521E-01 0.13281544E+04</pdfrwt>
<totfact> 0.34851019E+01</totfact>
</mgrwt>
</event>
<event>
12    1  0.1980523E-007  0.1944704E+04  0.7818608E-02  0.8632919E-01
          1   -1    0    0  501    0  0.00000000000E+00  0.00000000000E+00  0.14824095652E+04  0.14824095652E+04  0.00000000000E+00 0. -1.
         -1   -1    0    0    0  501 -0.00000000000E+00 -0.00000000000E+00 -0.63779180833E+03  0.63779180833E+03  0.00000000000E+00 0.  1.
         23    2    1    2    0    0 -0.89023676897E+02  0.59335098745E+03  0.84192994155E+03  0.10379192091E+04  0.91867561632E+02 0.  0.
        254    2    1    2    0    0  0.89023676897E+02 -0.59335098745E+03  0.26878152884E+01  0.10822821644E+04  0.90074238801E+03 0.  0.
        -24    2    4    4    0    0 -0.52150968337E+02 -0.42475734497E+02 -0.37842973832E+03  0.39289353569E+03  0.81439253604E+02 0.  0.
         24    2    4    4    0    0  0.14117464523E+03 -0.55087525296E+03  0.38111755361E+03  0.68938862866E+03  0.81315846420E+02 0.  0.
         11    1    3    3    0    0 -0.36647736974E+02  0.33290780268E+03  0.54321232438E+03  0.63816164964E+03  0.00000000000E+00 0. -1.
        -11    1    3    3    0    0 -0.52375939923E+02  0.26044318477E+03  0.29871761717E+03  0.39975755951E+03  0.00000000000E+00 0.  1.
          2    1    6    6  502    0  0.56802855923E+02 -0.94919715908E+02  0.67303402459E+02  0.12948384027E+03  0.00000000000E+00 0. -1.
          1    1    5    5  503    0 -0.50419635482E+02  0.11413707689E+02 -0.18801582583E+03  0.19499323868E+03  0.00000000000E+00 0. -1.
         -2    1    5    5    0  503 -0.17313328552E+01 -0.53889442186E+02 -0.19041391248E+03  0.19790029702E+03  0.00000000000E+00 0.  1.
         -1    1    6    6    0  502  0.84371789310E+02 -0.45595553705E+03  0.31381415115E+03  0.55990478839E+03  0.00000000000E+00 0.  1.
<mgrwt>
<rscale>  0 0.19447043E+04</rscale>
<asrwt>0</asrwt>
<pdfrwt beam="1">  1        1 0.22806301E+00 0.19447043E+04</pdfrwt>
<pdfrwt beam="2">  1       -1 0.98121817E-01 0.19447043E+04</pdfrwt>
<totfact> 0.62412712E+00</totfact>
</mgrwt>
</event>
<event>
12    1  0.1980523E-007  0.1414225E+04  0.7818608E-02  0.8943586E-01
         -4   -1    0    0    0  501 -0.00000000000E+00  0.00000000000E+00  0.11611927958E+04  0.11611927958E+04  0.00000000000E+00 0.  1.
          4   -1    0    0  501    0  0.00000000000E+00 -0.00000000000E+00 -0.43059861485E+03  0.43059861485E+03  0.00000000000E+00 0. -1.
         23    2    1    2    0    0 -0.32622927826E+03 -0.26144708399E+03  0.16615783498E+03  0.45737796946E+03  0.82498855151E+02 0.  0.
        254    2    1    2    0    0  0.32622927826E+03  0.26144708399E+03  0.56443634594E+03  0.11344134412E+04  0.89080039694E+03 0.  0.
        -24    2    4    4    0    0 -0.10138660707E+02  0.51275386391E+03  0.46201194178E+03  0.69497695996E+03  0.80737990673E+02 0.  0.
         24    2    4    4    0    0  0.33636793896E+03 -0.25130677992E+03  0.10242440417E+03  0.43943648122E+03  0.79468071975E+02 0.  0.
         13    1    3    3    0    0 -0.15067362014E+03 -0.12029280595E+03  0.12101371877E+03  0.22763395858E+03  0.00000000000E+00 0.  1.
        -13    1    3    3    0    0 -0.17555565811E+03 -0.14115427804E+03  0.45144116219E+02  0.22974401087E+03  0.00000000000E+00 0. -1.
          2    1    6    6  502    0  0.32932023845E+03 -0.23373719131E+03  0.82933313570E+02  0.41226548310E+03  0.00000000000E+00 0. -1.
          1    1    5    5  503    0 -0.29154518652E+02  0.37052918765E+03  0.29305524957E+03  0.47331093814E+03  0.00000000000E+00 0. -1.
         -2    1    5    5    0  503  0.19015857946E+02  0.14222467625E+03  0.16895669220E+03  0.22166602182E+03  0.00000000000E+00 0.  1.
         -1    1    6    6    0  502  0.70477005152E+01 -0.17569588610E+02  0.19491090597E+02  0.27170998125E+02  0.00000000000E+00 0.  1.
<mgrwt>
<rscale>  0 0.14142249E+04</rscale>
<asrwt>0</asrwt>
<pdfrwt beam="1">  1        4 0.66245941E-01 0.14142249E+04</pdfrwt>
<pdfrwt beam="2">  1       -4 0.17864504E+00 0.14142249E+04</pdfrwt>
<totfact> 0.75480146E-01</totfact>
</mgrwt>
</event>
<event>
12    1  0.1980523E-007  0.1846449E+04  0.7818608E-02  0.8681981E-01
          1   -1    0    0  501    0  0.00000000000E+00  0.00000000000E+00  0.24229611162E+04  0.24229611162E+04  0.00000000000E+00 0. -1.
         -1   -1    0    0    0  501 -0.00000000000E+00 -0.00000000000E+00 -0.35177751564E+03  0.35177751564E+03  0.00000000000E+00 0.  1.
         23    2    1    2    0    0 -0.36247566061E+03 -0.36121377379E+03  0.72363798296E+02  0.52473073902E+03  0.90784548571E+02 0.  0.
        254    2    1    2    0    0  0.36247566061E+03  0.36121377379E+03  0.19988198022E+04  0.22500078928E+04  0.89743574750E+03 0.  0.
        -24    2    4    4    0    0  0.18514044911E+03 -0.21179995148E+03  0.20503915220E+03  0.35708037773E+03  0.79555872729E+02 0.  0.
         24    2    4    4    0    0  0.17733521151E+03  0.57301372527E+03  0.17937806500E+04  0.18929275151E+04  0.75716908394E+02 0.  0.
         13    1    3    3    0    0 -0.26175771648E+03 -0.31297161266E+03  0.54263465419E+02  0.41159793020E+03  0.00000000000E+00 0. -1.
        -13    1    3    3    0    0 -0.10071794414E+03 -0.48242161127E+02  0.18100332877E+02  0.11313280882E+03  0.00000000000E+00 0.  1.
          4    1    6    6  502    0  0.15272176611E+03  0.40541259396E+03  0.13555831530E+04  0.14231264856E+04  0.00000000000E+00 0. -1.
          3    1    5    5  503    0  0.29612538977E+02 -0.51158226980E+02  0.91510824546E+01  0.59814788828E+02  0.00000000000E+00 0. -1.
         -4    1    5    5    0  503  0.15552791013E+03 -0.16064172450E+03  0.19588806974E+03  0.29726558891E+03  0.00000000000E+00 0.  1.
         -3    1    6    6    0  502  0.24613445401E+02  0.16760113132E+03  0.43819749700E+03  0.46980102947E+03  0.00000000000E+00 0.  1.
<mgrwt>
<rscale>  0 0.18464487E+04</rscale>
<asrwt>0</asrwt>
<pdfrwt beam="1">  1        1 0.37276324E+00 0.18464487E+04</pdfrwt>
<pdfrwt beam="2">  1       -1 0.54119619E-01 0.18464487E+04</pdfrwt>
<totfact> 0.49666828E+00</totfact>
</mgrwt>
</event>
<event>
12    1  0.1980523E-007  0.2707242E+04  0.7818608E-02  0.8332659E-01
         -2   -1    0    0    0  501 -0.00000000000E+00  0.00000000000E+00  0.12813370740E+04  0.12813370740E+04  0.00000000000E+00 0.  1.
          2   -1    0    0  501    0  0.00000000000E+00 -0.00000000000E+00 -0.14299825975E+04  0.14299825975E+04  0.00000000000E+00 0. -1.
         23    2    1    2    0    0  0.10379434456E+04 -0.50493405719E+03  0.26694795427E+03  0.11881670235E+04  0.90524400286E+02 0.  0.
        254    2    1    2    0    0 -0.10379434456E+04  0.50493405719E+03 -0.41559347776E+03  0.15231526481E+04  0.90276854851E+03 0.  0.
        -24    2    4    4    0    0 -0.46221979407E+03 -0.20003061299E+03  0.21307505578E+02  0.51027281067E+03  0.79151420440E+02 0.  0.
         24    2    4    4    0    0 -0.57572365155E+03  0.70496467019E+03 -0.43690098334E+03  0.10128798374E+04  0.81303054099E+02 0.  0.
         13    1    3    3    0    0  0.68965957139E+03 -0.38201347404E+03  0.17621968960E+03  0.80784775655E+03  0.00000000000E+00 0. -1.
        -13    1    3    3    0    0  0.34828387423E+03 -0.12292058315E+03  0.90728264668E+02  0.38031926696E+03  0.00000000000E+00 0.  1.
          4    1    6    6  502    0 -0.40185595905E+03  0.44970160525E+03 -0.31925305884E+03  0.68237985109E+03  0.00000000000E+00 0. -1.
          1    1    5    5  503    0 -0.39920544998E+03 -0.14173153380E+03  0.10499581035E+02  0.42374881731E+03  0.00000000000E+00 0. -1.
         -2    1    5    5    0  503 -0.63014344088E+02 -0.58299079191E+02  0.10807924544E+02  0.86523993367E+02  0.00000000000E+00 0.  1.
         -3    1    6    6    0  502 -0.17386769250E+03  0.25526306493E+03 -0.11764792450E+03  0.33049998631E+03  0.00000000000E+00 0.  1.
<mgrwt>
<rscale>  0 0.27072419E+04</rscale>
<asrwt>0</asrwt>
<pdfrwt beam="1">  1        2 0.21999732E+00 0.27072419E+04</pdfrwt>
<pdfrwt beam="2">  1       -2 0.19712878E+00 0.27072419E+04</pdfrwt>
<totfact> 0.16945842E+00</totfact>
</mgrwt>
</event>
<event>
12    1  0.1980523E-007  0.1373561E+04  0.7818608E-02  0.8973182E-01
          2   -1    0    0  501    0  0.00000000000E+00  0.00000000000E+00  0.28339063058E+04  0.28339063058E+04  0.00000000000E+00 0.  1.
         -2   -1    0    0    0  501 -0.00000000000E+00 -0.00000000000E+00 -0.16643715437E+03  0.16643715437E+03  0.00000000000E+00 0. -1.
         23    2    1    2    0    0  0.20203238636E+03  0.31647581356E+03  0.59779986664E+03  0.71287517944E+03  0.99258829305E+02 0.  0.
        254    2    1    2    0    0 -0.20203238636E+03 -0.31647581356E+03  0.20696692848E+04  0.22874682807E+04  0.89889162932E+03 0.  0.
        -24    2    4    4    0    0 -0.28364213348E+03  0.14609884521E+03  0.26932288670E+03  0.42515384391E+03  0.80145126080E+02 0.  0.
         24    2    4    4    0    0  0.81609747126E+02 -0.46257465877E+03  0.18003463981E+04  0.18623144368E+04  0.79576646899E+02 0.  0.
         11    1    3    3    0    0  0.17947188237E+02  0.10107506667E+03  0.19542277207E+03  0.22074494447E+03  0.00000000000E+00 0. -1.
        -11    1    3    3    0    0  0.18408519812E+03  0.21540074689E+03  0.40237709457E+03  0.49213023496E+03  0.00000000000E+00 0.  1.
          2    1    6    6  502    0  0.33774749941E+02 -0.37488374772E+03  0.14395278609E+04  0.14879244001E+04  0.00000000000E+00 0. -1.
          1    1    5    5  503    0 -0.17443454438E+03  0.10775008951E+03  0.21567947908E+03  0.29758213951E+03  0.00000000000E+00 0. -1.
         -2    1    5    5    0  503 -0.10920758911E+03  0.38348755697E+02  0.53643407622E+02  0.12757170440E+03  0.00000000000E+00 0.  1.
         -1    1    6    6    0  502  0.47834997185E+02 -0.87690911046E+02  0.36081853719E+03  0.37439003674E+03  0.00000000000E+00 0.  1.
<mgrwt>
<rscale>  0 0.13735608E+04</rscale>
<asrwt>0</asrwt>
<pdfrwt beam="1">  1        2 0.43598555E+00 0.13735608E+04</pdfrwt>
<pdfrwt beam="2">  1       -2 0.25605718E-01 0.13735608E+04</pdfrwt>
<totfact> 0.29759626E+01</totfact>
</mgrwt>
</event>
<event>
12    1  0.1980523E-007  0.2234486E+04  0.7818608E-02  0.8504210E-01
         -2   -1    0    0    0  501 -0.00000000000E+00  0.00000000000E+00  0.80954206563E+03  0.80954206563E+03  0.00000000000E+00 0.  1.
          2   -1    0    0  501    0  0.00000000000E+00 -0.00000000000E+00 -0.15418989257E+04  0.15418989257E+04  0.00000000000E+00 0. -1.
         23    2    1    2    0    0  0.83682655421E+03 -0.41034264756E+03 -0.34607170750E+03  0.99826257265E+03  0.90015370805E+02 0.  0.
        254    2    1    2    0    0 -0.83682655421E+03  0.41034264756E+03 -0.38628515256E+03  0.13531784187E+04  0.90178480993E+03 0.  0.
        -24    2    4    4    0    0 -0.26469923053E+03  0.57861891174E+03 -0.39166663075E+03  0.75162709235E+03  0.81700726064E+02 0.  0.
         24    2    4    4    0    0 -0.57212732369E+03 -0.16827626419E+03  0.53814781877E+01  0.60155132632E+03  0.78666780097E+02 0.  0.
         11    1    3    3    0    0  0.60448859961E+03 -0.25047883631E+03 -0.24309664355E+03  0.69802728643E+03  0.00000000000E+00 0. -1.
        -11    1    3    3    0    0  0.23233795460E+03 -0.15986381124E+03 -0.10297506395E+03  0.30023528622E+03  0.00000000000E+00 0.  1.
          4    1    6    6  502    0 -0.22965137674E+02 -0.56247091201E+01 -0.15765376528E+02  0.28417987229E+02  0.00000000000E+00 0. -1.
          1    1    5    5  503    0 -0.15828960874E+02  0.37660485628E+02 -0.38966462083E+01  0.41037203020E+02  0.00000000000E+00 0. -1.
         -2    1    5    5    0  503 -0.24887026965E+03  0.54095842612E+03 -0.38776998454E+03  0.71058988933E+03  0.00000000000E+00 0.  1.
         -3    1    6    6    0  502 -0.54916218601E+03 -0.16265155507E+03  0.21146854716E+02  0.57313333909E+03  0.00000000000E+00 0.  1.
<mgrwt>
<rscale>  0 0.22344861E+04</rscale>
<asrwt>0</asrwt>
<pdfrwt beam="1">  1        2 0.23721522E+00 0.22344861E+04</pdfrwt>
<pdfrwt beam="2">  1       -2 0.12454493E+00 0.22344861E+04</pdfrwt>
<totfact> 0.53030106E+00</totfact>
</mgrwt>
</event>
<event>
12    1  0.1980523E-007  0.1699338E+04  0.7818608E-02  0.8761742E-01
          1   -1    0    0  501    0  0.00000000000E+00  0.00000000000E+00  0.12558134008E+04  0.12558134008E+04  0.00000000000E+00 0. -1.
         -1   -1    0    0    0  501 -0.00000000000E+00 -0.00000000000E+00 -0.57487639312E+03  0.57487639312E+03  0.00000000000E+00 0.  1.
         23    2    1    2    0    0 -0.38671425534E+03 -0.32625214361E+03  0.60645749588E+03  0.79497650071E+03  0.90601136159E+02 0.  0.
        254    2    1    2    0    0  0.38671425534E+03  0.32625214361E+03  0.74479511840E+02  0.10357132933E+04  0.90064779556E+03 0.  0.
        -24    2    4    4    0    0 -0.17680105979E+03  0.31040772844E+03  0.24580068546E+03  0.44118280198E+03  0.81318602863E+02 0.  0.
         24    2    4    4    0    0  0.56351531514E+03  0.15844415164E+02 -0.17132117362E+03  0.59453049127E+03  0.79467003398E+02 0.  0.
         13    1    3    3    0    0 -0.19872710384E+03 -0.11051516886E+03  0.28532687853E+03  0.36485269899E+03  0.00000000000E+00 0. -1.
        -13    1    3    3    0    0 -0.18798715150E+03 -0.21573697475E+03  0.32113061735E+03  0.43012380172E+03  0.00000000000E+00 0.  1.
          4    1    6    6  502    0  0.65552133452E+02 -0.22864907030E+02 -0.28489773694E+02  0.75043676474E+02  0.00000000000E+00 0. -1.
          3    1    5    5  503    0 -0.12844519552E+02  0.71023765508E+02  0.76848914117E+02  0.10542823412E+03  0.00000000000E+00 0. -1.
         -4    1    5    5    0  503 -0.16395654024E+03  0.23938396294E+03  0.16895177135E+03  0.33575456786E+03  0.00000000000E+00 0.  1.
         -3    1    6    6    0  502  0.49796318168E+03  0.38709322194E+02 -0.14283139993E+03  0.51948681479E+03  0.00000000000E+00 0.  1.
<mgrwt>
<rscale>  0 0.16993381E+04</rscale>
<asrwt>0</asrwt>
<pdfrwt beam="1">  1        1 0.19320206E+00 0.16993381E+04</pdfrwt>
<pdfrwt beam="2">  1       -1 0.88442523E-01 0.16993381E+04</pdfrwt>
<totfact> 0.11627451E+01</totfact>
</mgrwt>
</event>
<event>
12    1  0.1980523E-007  0.1028823E+04  0.7818608E-02  0.9277485E-01
          1   -1    0    0  501    0  0.00000000000E+00  0.00000000000E+00  0.73029726352E+03  0.73029726352E+03  0.00000000000E+00 0. -1.
         -1   -1    0    0    0  501 -0.00000000000E+00 -0.00000000000E+00 -0.36234447000E+03  0.36234447000E+03  0.00000000000E+00 0.  1.
         23    2    1    2    0    0  0.49075408304E+02  0.24483929872E+02 -0.24746616806E+02  0.11028410657E+03  0.92424729351E+02 0.  0.
        254    2    1    2    0    0 -0.49075408304E+02 -0.24483929872E+02  0.39269941032E+03  0.98235762696E+03  0.89878018550E+03 0.  0.
        -24    2    4    4    0    0 -0.26923582060E+03 -0.31601056127E+03 -0.20339641067E+02  0.42470206612E+03  0.87221224694E+02 0.  0.
         24    2    4    4    0    0  0.22016041229E+03  0.29152663140E+03  0.41303905139E+03  0.55765556084E+03  0.83187033866E+02 0.  0.
         13    1    3    3    0    0 -0.22743033700E+01  0.49783482069E+02 -0.68260685636E+01  0.50300723203E+02  0.00000000000E+00 0. -1.
        -13    1    3    3    0    0  0.51349711674E+02 -0.25299552197E+02 -0.17920548242E+02  0.59983383363E+02  0.00000000000E+00 0.  1.
          4    1    6    6  502    0  0.88114702445E+02  0.17913240417E+03  0.24688676686E+03  0.31749912545E+03  0.00000000000E+00 0. -1.
          3    1    5    5  503    0 -0.88888675636E+02 -0.11209255451E+03 -0.48418149101E+02  0.15103064125E+03  0.00000000000E+00 0. -1.
         -4    1    5    5    0  503 -0.18034714496E+03 -0.20391800676E+03  0.28078508033E+02  0.27367142487E+03  0.00000000000E+00 0.  1.
         -3    1    6    6    0  502  0.13204570985E+03  0.11239422724E+03  0.16615228453E+03  0.24015643539E+03  0.00000000000E+00 0.  1.
<mgrwt>
<rscale>  0 0.10288230E+04</rscale>
<asrwt>0</asrwt>
<pdfrwt beam="1">  1        1 0.11235342E+00 0.10288230E+04</pdfrwt>
<pdfrwt beam="2">  1       -1 0.55745303E-01 0.10288230E+04</pdfrwt>
<totfact> 0.83158726E+01</totfact>
</mgrwt>
</event>
<event>
12    1  0.1980523E-007  0.2901096E+04  0.7818608E-02  0.8272551E-01
         -2   -1    0    0    0  501 -0.00000000000E+00  0.00000000000E+00  0.78545974636E+03  0.78545974636E+03  0.00000000000E+00 0.  1.
          2   -1    0    0  501    0  0.00000000000E+00 -0.00000000000E+00 -0.26788007018E+04  0.26788007018E+04  0.00000000000E+00 0. -1.
         23    2    1    2    0    0 -0.12273145851E+04 -0.32439782255E+03 -0.12389521565E+04  0.17761046039E+04  0.89499048708E+02 0.  0.
        254    2    1    2    0    0  0.12273145851E+04  0.32439782255E+03 -0.65438879888E+03  0.16881558442E+04  0.90006134028E+03 0.  0.
        -24    2    4    4    0    0  0.14523462640E+03  0.42257824138E+03 -0.91589478186E+02  0.46170115084E+03  0.71511211540E+02 0.  0.
         24    2    4    4    0    0  0.10820799587E+04 -0.98180418834E+02 -0.56279932069E+03  0.12264546934E+04  0.83136080789E+02 0.  0.
         11    1    3    3    0    0 -0.52891311271E+03 -0.11377052655E+03 -0.57869872528E+03  0.79220264337E+03  0.00000000000E+00 0. -1.
        -11    1    3    3    0    0 -0.69840147239E+03 -0.21062729599E+03 -0.66025343122E+03  0.98390196051E+03  0.00000000000E+00 0.  1.
          2    1    6    6  502    0  0.24783161203E+03  0.11143725651E+02 -0.13896781776E+03  0.28435320451E+03  0.00000000000E+00 0. -1.
          3    1    5    5  503    0  0.44481847179E+02  0.23861374402E+03 -0.45593148827E+02  0.24696940860E+03  0.00000000000E+00 0. -1.
         -4    1    5    5    0  503  0.10075277922E+03  0.18396449736E+03 -0.45996329359E+02  0.21473174224E+03  0.00000000000E+00 0.  1.
         -1    1    6    6    0  502  0.83424834667E+03 -0.10932414449E+03 -0.42383150293E+03  0.94210148889E+03  0.00000000000E+00 0.  1.
<mgrwt>
<rscale>  0 0.29010964E+04</rscale>
<asrwt>0</asrwt>
<pdfrwt beam="1">  1        2 0.41212318E+00 0.29010964E+04</pdfrwt>
<pdfrwt beam="2">  1       -2 0.12083996E+00 0.29010964E+04</pdfrwt>
<totfact> 0.12307667E+00</totfact>
</mgrwt>
</event>
<event>
12    1  0.1980523E-007  0.1428679E+04  0.7818608E-02  0.8933317E-01
         -2   -1    0    0    0  501 -0.00000000000E+00  0.00000000000E+00  0.61545359851E+03  0.61545359851E+03  0.00000000000E+00 0.  1.
          2   -1    0    0  501    0  0.00000000000E+00 -0.00000000000E+00 -0.82911300938E+03  0.82911300938E+03  0.00000000000E+00 0. -1.
         23    2    1    2    0    0  0.39280159950E+03 -0.14097827296E+03 -0.12399169638E+03  0.44754992545E+03  0.10372571997E+03 0.  0.
        254    2    1    2    0    0 -0.39280159950E+03  0.14097827296E+03 -0.89667714490E+02  0.99701668243E+03  0.90101831058E+03 0.  0.
        -24    2    4    4    0    0  0.18313029616E+03 -0.21955629843E+03 -0.97975276384E+02  0.31296980145E+03  0.81297406390E+02 0.  0.
         24    2    4    4    0    0 -0.57593189566E+03  0.36053457139E+03  0.83075618942E+01  0.68404688098E+03  0.78539125194E+02 0.  0.
         11    1    3    3    0    0  0.27591650966E+03 -0.84950465392E+02 -0.13249886123E+03  0.31765146010E+03  0.00000000000E+00 0. -1.
        -11    1    3    3    0    0  0.11688508984E+03 -0.56027807572E+02  0.85071648524E+01  0.12989846536E+03  0.00000000000E+00 0.  1.
          2    1    6    6  502    0 -0.20943966160E+03  0.87518382665E+02  0.31742391331E+01  0.22701214714E+03  0.00000000000E+00 0. -1.
          3    1    5    5  503    0  0.13825618504E+03 -0.10690148676E+03 -0.71649065149E+02  0.18888168019E+03  0.00000000000E+00 0. -1.
         -4    1    5    5    0  503  0.44874111119E+02 -0.11265481166E+03 -0.26326211236E+02  0.12408812126E+03  0.00000000000E+00 0.  1.
         -1    1    6    6    0  502 -0.36649223407E+03  0.27301618873E+03  0.51333227612E+01  0.45703473384E+03  0.00000000000E+00 0.  1.
<mgrwt>
<rscale>  0 0.14286785E+04</rscale>
<asrwt>0</asrwt>
<pdfrwt beam="1">  1        2 0.12755585E+00 0.14286785E+04</pdfrwt>
<pdfrwt beam="2">  1       -2 0.94685169E-01 0.14286785E+04</pdfrwt>
<totfact> 0.29960544E+01</totfact>
</mgrwt>
</event>
<event>
12    1  0.2552550E-007  0.2107112E+04  0.7818608E-02  0.8558117E-01
          2   -1    0    0  501    0  0.00000000000E+00  0.00000000000E+00  0.20011615084E+04  0.20011615084E+04  0.00000000000E+00 0. -1.
         -2   -1    0    0    0  501 -0.00000000000E+00 -0.00000000000E+00 -0.55466808812E+03  0.55466808812E+03  0.00000000000E+00 0.  1.
         23    2    1    2    0    0  0.85618213927E+03  0.32967667770E+02  0.64621420148E+03  0.10770659916E+04  0.91343490738E+02 0.  0.
        254    2    1    2    0    0 -0.85618213927E+03 -0.32967667770E+02  0.80027921879E+03  0.14787636049E+04  0.90119933896E+03 0.  0.
        -24    2    4    4    0    0 -0.35337871045E+03  0.21128669842E+03  0.81177918821E+03  0.91379610030E+03  0.80742062004E+02 0.  0.
         24    2    4    4    0    0 -0.50280342882E+03 -0.24425436619E+03 -0.11499969422E+02  0.56496750464E+03  0.81145231318E+02 0.  0.
         11    1    3    3    0    0  0.44454465688E+03 -0.22286992941E+02  0.36311304992E+03  0.57442819311E+03  0.00000000000E+00 0.  1.
        -11    1    3    3    0    0  0.41163748239E+03  0.55254660711E+02  0.28310115157E+03  0.50263779848E+03  0.00000000000E+00 0. -1.
          4    1    6    6  502    0 -0.42181585283E+03 -0.16939996964E+03 -0.80594106904E+01  0.45463162837E+03  0.00000000000E+00 0. -1.
          1    1    5    5  503    0 -0.33163039063E+03  0.18870593574E+03  0.78395118964E+03  0.87187620331E+03  0.00000000000E+00 0. -1.
         -4    1    5    5    0  503 -0.21748319827E+02  0.22580762685E+02  0.27827998576E+02  0.41919896988E+02  0.00000000000E+00 0.  1.
         -3    1    6    6    0  502 -0.80987575986E+02 -0.74854396554E+02 -0.34405587317E+01  0.11033587627E+03  0.00000000000E+00 0.  1.
<mgrwt>
<rscale>  0 0.21071122E+04</rscale>
<asrwt>0</asrwt>
<pdfrwt beam="1">  1        2 0.30787100E+00 0.21071122E+04</pdfrwt>
<pdfrwt beam="2">  1       -2 0.85333553E-01 0.21071122E+04</pdfrwt>
<totfact> 0.73368830E+00</totfact>
</mgrwt>
</event>
<event>
12    1  0.1980523E-007  0.2030687E+04  0.7818608E-02  0.8592406E-01
          1   -1    0    0  501    0  0.00000000000E+00  0.00000000000E+00  0.54711469746E+03  0.54711469746E+03  0.00000000000E+00 0. -1.
         -1   -1    0    0    0  501 -0.00000000000E+00 -0.00000000000E+00 -0.18842895258E+04  0.18842895258E+04  0.00000000000E+00 0.  1.
         23    2    1    2    0    0  0.42642680303E+03 -0.31082811211E+03  0.20522998827E+03  0.57329086013E+03  0.89939583020E+02 0.  0.
        254    2    1    2    0    0 -0.42642680303E+03  0.31082811211E+03 -0.15424048166E+04  0.18581133632E+04  0.89169429649E+03 0.  0.
        -24    2    4    4    0    0 -0.54380538170E+03  0.51505498301E+03 -0.92944258234E+03  0.11963244950E+04  0.79516380652E+02 0.  0.
         24    2    4    4    0    0  0.11737857866E+03 -0.20422687089E+03 -0.61296223431E+03  0.66178886818E+03  0.82191604431E+02 0.  0.
         13    1    3    3    0    0  0.95860026003E+02 -0.27071523674E+02  0.40803534631E+02  0.10764265148E+03  0.00000000000E+00 0. -1.
        -13    1    3    3    0    0  0.33056677703E+03 -0.28375658844E+03  0.16442645364E+03  0.46564820864E+03  0.00000000000E+00 0.  1.
          4    1    6    6  502    0  0.49004022180E+02 -0.92357894190E+02 -0.38365052292E+03  0.39764192252E+03  0.00000000000E+00 0. -1.
          3    1    5    5  503    0 -0.25922496406E+03  0.21530637188E+03 -0.36552586483E+03  0.49715548235E+03  0.00000000000E+00 0. -1.
         -4    1    5    5    0  503 -0.28458041763E+03  0.29974861113E+03 -0.56391671750E+03  0.69916901265E+03  0.00000000000E+00 0.  1.
         -3    1    6    6    0  502  0.68374556483E+02 -0.11186897670E+03 -0.22931171138E+03  0.26414694566E+03  0.00000000000E+00 0.  1.
<mgrwt>
<rscale>  0 0.20306871E+04</rscale>
<asrwt>0</asrwt>
<pdfrwt beam="1">  1        1 0.84171492E-01 0.20306871E+04</pdfrwt>
<pdfrwt beam="2">  1       -1 0.28989070E+00 0.20306871E+04</pdfrwt>
<totfact> 0.13892052E+00</totfact>
</mgrwt>
</event>
<event>
12    1  0.1980523E-007  0.1327757E+04  0.7818608E-02  0.9007839E-01
         -1   -1    0    0    0  501 -0.00000000000E+00  0.00000000000E+00  0.79496738784E+03  0.79496738784E+03  0.00000000000E+00 0.  1.
          1   -1    0    0  501    0  0.00000000000E+00 -0.00000000000E+00 -0.55440612924E+03  0.55440612924E+03  0.00000000000E+00 0. -1.
         23    2    1    2    0    0 -0.32932599668E+03 -0.46109367787E+02 -0.48215975938E+02  0.34819606441E+03  0.91290925331E+02 0.  0.
        254    2    1    2    0    0  0.32932599668E+03  0.46109367787E+02  0.28877723454E+03  0.10011774527E+04  0.89910083677E+03 0.  0.
        -24    2    4    4    0    0  0.17706302304E+03  0.21052577397E+03 -0.26971697626E+03  0.39342690740E+03  0.79781379717E+02 0.  0.
         24    2    4    4    0    0  0.15226297364E+03 -0.16441640618E+03  0.55849421080E+03  0.60775054528E+03  0.85018668720E+02 0.  0.
         13    1    3    3    0    0 -0.25524085027E+03 -0.60240067968E+01 -0.62273087604E+02  0.26279672324E+03  0.00000000000E+00 0. -1.
        -13    1    3    3    0    0 -0.74085146406E+02 -0.40085360990E+02  0.14057111666E+02  0.85399341169E+02  0.00000000000E+00 0.  1.
          2    1    6    6  502    0  0.61910270156E+02 -0.10004251472E+03  0.19538309773E+03  0.22807003569E+03  0.00000000000E+00 0. -1.
          1    1    5    5  503    0  0.80411721740E+02  0.11262465491E+03 -0.82539632526E+02  0.16113084380E+03  0.00000000000E+00 0. -1.
         -2    1    5    5    0  503  0.96651301299E+02  0.97901119060E+02 -0.18717734373E+03  0.23229606360E+03  0.00000000000E+00 0.  1.
         -1    1    6    6    0  502  0.90352703481E+02 -0.64373891465E+02  0.36311111306E+03  0.37968050958E+03  0.00000000000E+00 0.  1.
<mgrwt>
<rscale>  0 0.13277572E+04</rscale>
<asrwt>0</asrwt>
<pdfrwt beam="1">  1        1 0.85293251E-01 0.13277572E+04</pdfrwt>
<pdfrwt beam="2">  1       -1 0.12230268E+00 0.13277572E+04</pdfrwt>
<totfact> 0.22224521E+01</totfact>
</mgrwt>
</event>
<event>
12    1  0.2309934E-007  0.1882249E+04  0.7818608E-02  0.8663743E-01
          2   -1    0    0  501    0  0.00000000000E+00  0.00000000000E+00  0.14232460122E+04  0.14232460122E+04  0.00000000000E+00 0.  1.
         -2   -1    0    0    0  501 -0.00000000000E+00 -0.00000000000E+00 -0.62232077394E+03  0.62232077394E+03  0.00000000000E+00 0. -1.
         23    2    1    2    0    0 -0.65781428761E+03 -0.26808390466E+03  0.45304050285E+03  0.84769039944E+03  0.93513096183E+02 0.  0.
        254    2    1    2    0    0  0.65781428761E+03  0.26808390466E+03  0.34788473539E+03  0.11978763867E+04  0.89960848803E+03 0.  0.
        -24    2    4    4    0    0  0.31144755605E+03  0.99035611367E+02 -0.29287863489E+03  0.44578863561E+03  0.78370787744E+02 0.  0.
         24    2    4    4    0    0  0.34636673156E+03  0.16904829330E+03  0.64076337028E+03  0.75208775108E+03  0.80691080242E+02 0.  0.
         11    1    3    3    0    0 -0.16102335842E+03 -0.26314631054E+02  0.86592261535E+02  0.18471383685E+03  0.00000000000E+00 0. -1.
        -11    1    3    3    0    0 -0.49679092919E+03 -0.24176927361E+03  0.36644824132E+03  0.66297656259E+03  0.00000000000E+00 0.  1.
          4    1    6    6  502    0  0.10458627570E+03  0.12172812925E+02  0.18392498867E+03  0.21193128107E+03  0.00000000000E+00 0. -1.
          1    1    5    5  503    0  0.69729263724E+02  0.50008264729E+02 -0.48423552495E+02  0.98528357324E+02  0.00000000000E+00 0. -1.
         -2    1    5    5    0  503  0.24171829232E+03  0.49027346637E+02 -0.24445508240E+03  0.34726027828E+03  0.00000000000E+00 0.  1.
         -3    1    6    6    0  502  0.24178045586E+03  0.15687548037E+03  0.45683838161E+03  0.54015647001E+03  0.00000000000E+00 0.  1.
<mgrwt>
<rscale>  0 0.18822493E+04</rscale>
<asrwt>0</asrwt>
<pdfrwt beam="1">  1        2 0.21896092E+00 0.18822493E+04</pdfrwt>
<pdfrwt beam="2">  1       -2 0.95741658E-01 0.18822493E+04</pdfrwt>
<totfact> 0.12047673E+01</totfact>
</mgrwt>
</event>
<event>
12    1  0.1980523E-007  0.2427170E+04  0.7818608E-02  0.8429401E-01
         -1   -1    0    0    0  501 -0.00000000000E+00  0.00000000000E+00  0.54601707551E+03  0.54601707551E+03  0.00000000000E+00 0.  1.
          1   -1    0    0  501    0  0.00000000000E+00 -0.00000000000E+00 -0.26973312800E+04  0.26973312800E+04  0.00000000000E+00 0. -1.
         23    2    1    2    0    0  0.10250506203E+04  0.18945188260E+03 -0.82374544211E+03  0.13317619551E+04  0.91720018384E+02 0.  0.
        254    2    1    2    0    0 -0.10250506203E+04 -0.18945188260E+03 -0.13275687623E+04  0.19115864003E+04  0.89727529626E+03 0.  0.
        -24    2    4    4    0    0 -0.10968802223E+04  0.47106938397E+02 -0.11756126433E+04  0.16106708500E+04  0.82645110305E+02 0.  0.
         24    2    4    4    0    0  0.71829602026E+02 -0.23655882100E+03 -0.15195611907E+03  0.30091555035E+03  0.79623732657E+02 0.  0.
         13    1    3    3    0    0  0.75290458466E+03  0.13535486911E+03 -0.65444369000E+03  0.10067188275E+04  0.00000000000E+00 0. -1.
        -13    1    3    3    0    0  0.27214603562E+03  0.54097013487E+02 -0.16930175210E+03  0.32504312766E+03  0.00000000000E+00 0.  1.
          2    1    6    6  502    0  0.87619822047E+02 -0.16971044710E+03 -0.10921662763E+03  0.22001622854E+03  0.00000000000E+00 0. -1.
          1    1    5    5  503    0 -0.76428049938E+03 -0.27678105739E+01 -0.83604861749E+03  0.11327442930E+04  0.00000000000E+00 0. -1.
         -2    1    5    5    0  503 -0.33259972293E+03  0.49874748971E+02 -0.33956402577E+03  0.47792655699E+03  0.00000000000E+00 0.  1.
         -1    1    6    6    0  502 -0.15790220021E+02 -0.66848373897E+02 -0.42739491446E+02  0.80899321815E+02  0.00000000000E+00 0.  1.
<mgrwt>
<rscale>  0 0.24271703E+04</rscale>
<asrwt>0</asrwt>
<pdfrwt beam="1">  1        1 0.41497405E+00 0.24271703E+04</pdfrwt>
<pdfrwt beam="2">  1       -1 0.84002626E-01 0.24271703E+04</pdfrwt>
<totfact> 0.12375086E+00</totfact>
</mgrwt>
</event>
<event>
12    1  0.1980523E-007  0.2136312E+04  0.7818608E-02  0.8545414E-01
         -1   -1    0    0    0  501 -0.00000000000E+00  0.00000000000E+00  0.13960548837E+04  0.13960548837E+04  0.00000000000E+00 0.  1.
          1   -1    0    0  501    0  0.00000000000E+00 -0.00000000000E+00 -0.81727216796E+03  0.81727216796E+03  0.00000000000E+00 0. -1.
         23    2    1    2    0    0 -0.52046930891E+03  0.67750879067E+03  0.43669328031E+02  0.86056965155E+03  0.93630401076E+02 0.  0.
        254    2    1    2    0    0  0.52046930891E+03 -0.67750879067E+03  0.53511338772E+03  0.13527574001E+04  0.90205309319E+03 0.  0.
        -24    2    4    4    0    0  0.10700941186E+03 -0.12742051759E+03 -0.24693661554E+03  0.30805524130E+03  0.78951485521E+02 0.  0.
         24    2    4    4    0    0  0.41345989705E+03 -0.55008827308E+03  0.78205000326E+03  0.10447021588E+04  0.79083490090E+02 0.  0.
         13    1    3    3    0    0 -0.85599237940E+02  0.84341200496E+02 -0.21916567080E+02  0.12215155975E+03  0.00000000000E+00 0. -1.
        -13    1    3    3    0    0 -0.43487007097E+03  0.59316759017E+03  0.65585895111E+02  0.73841809180E+03  0.00000000000E+00 0.  1.
          4    1    6    6  502    0  0.16829901675E+03 -0.28890500615E+03  0.36839687652E+03  0.49750067361E+03  0.00000000000E+00 0. -1.
          3    1    5    5  503    0  0.11208862613E+03 -0.83133946233E+02 -0.19002798008E+03  0.23576629602E+03  0.00000000000E+00 0. -1.
         -4    1    5    5    0  503 -0.50792142639E+01 -0.44286571357E+02 -0.56908635464E+02  0.72288945285E+02  0.00000000000E+00 0.  1.
         -3    1    6    6    0  502  0.24516088030E+03 -0.26118326693E+03  0.41365312675E+03  0.54720148521E+03  0.00000000000E+00 0.  1.
<mgrwt>
<rscale>  0 0.21363116E+04</rscale>
<asrwt>0</asrwt>
<pdfrwt beam="1">  1        1 0.12573418E+00 0.21363116E+04</pdfrwt>
<pdfrwt beam="2">  1       -1 0.21477767E+00 0.21363116E+04</pdfrwt>
<totfact> 0.23363515E+00</totfact>
</mgrwt>
</event>
<event>
12    1  0.1980523E-007  0.2080818E+04  0.7818608E-02  0.8569741E-01
          1   -1    0    0  501    0  0.00000000000E+00  0.00000000000E+00  0.36196573769E+04  0.36196573769E+04  0.00000000000E+00 0. -1.
         -1   -1    0    0    0  501 -0.00000000000E+00 -0.00000000000E+00 -0.29904790174E+03  0.29904790174E+03  0.00000000000E+00 0.  1.
         23    2    1    2    0    0 -0.63700902826E+03 -0.26457572461E+03  0.22602670802E+04  0.23658057066E+04  0.11157307615E+03 0.  0.
        254    2    1    2    0    0  0.63700902826E+03  0.26457572461E+03  0.10603423950E+04  0.15528995721E+04  0.90077204123E+03 0.  0.
        -24    2    4    4    0    0  0.83181528994E+03  0.27486738500E+03  0.65725003983E+03  0.10980644958E+04  0.79367916919E+02 0.  0.
         24    2    4    4    0    0 -0.19480626168E+03 -0.10291660390E+02  0.40309235518E+03  0.45483507628E+03  0.79599635340E+02 0.  0.
         13    1    3    3    0    0 -0.33390083440E+03 -0.19798928213E+03  0.12848861101E+04  0.13422450741E+04  0.00000000000E+00 0. -1.
        -13    1    3    3    0    0 -0.30310819386E+03 -0.66586442482E+02  0.97538097005E+03  0.10235606324E+04  0.00000000000E+00 0.  1.
          4    1    6    6  502    0 -0.20122493165E+03 -0.36584190858E+01  0.38093851748E+03  0.43083524838E+03  0.00000000000E+00 0. -1.
          3    1    5    5  503    0  0.58312742548E+03  0.18423639471E+03  0.41329649476E+03  0.73810204990E+03  0.00000000000E+00 0. -1.
         -4    1    5    5    0  503  0.24868786446E+03  0.90630990292E+02  0.24395354507E+03  0.35996244593E+03  0.00000000000E+00 0.  1.
         -3    1    6    6    0  502  0.64186699681E+01 -0.66332413043E+01  0.22153837700E+02  0.23999827900E+02  0.00000000000E+00 0.  1.
<mgrwt>
<rscale>  0 0.20808181E+04</rscale>
<asrwt>0</asrwt>
<pdfrwt beam="1">  1        1 0.55687034E+00 0.20808181E+04</pdfrwt>
<pdfrwt beam="2">  1       -1 0.46007372E-01 0.20808181E+04</pdfrwt>
<totfact> 0.87193797E-01</totfact>
</mgrwt>
</event>
<event>
12    1  0.1980523E-007  0.4185797E+04  0.7818608E-02  0.7968080E-01
          2   -1    0    0  501    0  0.00000000000E+00  0.00000000000E+00  0.24519880188E+04  0.24519880188E+04  0.00000000000E+00 0.  1.
         -2   -1    0    0    0  501 -0.00000000000E+00 -0.00000000000E+00 -0.17863967119E+04  0.17863967119E+04  0.00000000000E+00 0. -1.
         23    2    1    2    0    0  0.79290139430E+03 -0.69188936250E+03  0.20337147971E+04  0.22915734308E+04  0.88934818359E+02 0.  0.
        254    2    1    2    0    0 -0.79290139430E+03  0.69188936250E+03 -0.13681234903E+04  0.19468112998E+04  0.90050477041E+03 0.  0.
        -24    2    4    4    0    0 -0.29746266239E+03  0.10049861181E+01  0.29418099539E+02  0.30896476156E+03  0.78158517053E+02 0.  0.
         24    2    4    4    0    0 -0.49543873190E+03  0.69088437638E+03 -0.13975415898E+04  0.16378465383E+04  0.81474100923E+02 0.  0.
         13    1    3    3    0    0  0.37770559637E+03 -0.28978813364E+03  0.84827396641E+03  0.97273192710E+03  0.00000000000E+00 0. -1.
        -13    1    3    3    0    0  0.41519579793E+03 -0.40210122886E+03  0.11854408307E+04  0.13188415037E+04  0.00000000000E+00 0.  1.
          4    1    6    6  502    0 -0.34287492771E+03  0.41051882677E+03 -0.87502478359E+03  0.10255521903E+04  0.00000000000E+00 0. -1.
          3    1    5    5  503    0 -0.20236772109E+03 -0.94109994734E+01  0.55038392619E+02  0.20992971707E+03  0.00000000000E+00 0. -1.
         -4    1    5    5    0  503 -0.95094941309E+02  0.10415985591E+02 -0.25620293081E+02  0.99035044484E+02  0.00000000000E+00 0.  1.
         -3    1    6    6    0  502 -0.15256380419E+03  0.28036554961E+03 -0.52251680623E+03  0.61229434796E+03  0.00000000000E+00 0.  1.
<mgrwt>
<rscale>  0 0.41857966E+04</rscale>
<asrwt>0</asrwt>
<pdfrwt beam="1">  1        2 0.37722893E+00 0.41857966E+04</pdfrwt>
<pdfrwt beam="2">  1       -2 0.27483026E+00 0.41857966E+04</pdfrwt>
<totfact> 0.13060651E-01</totfact>
</mgrwt>
</event>
<event>
12    1  0.1980523E-007  0.2117225E+04  0.7818608E-02  0.8553693E-01
         -2   -1    0    0    0  501 -0.00000000000E+00  0.00000000000E+00  0.61109909192E+03  0.61109909192E+03  0.00000000000E+00 0.  1.
          2   -1    0    0  501    0  0.00000000000E+00 -0.00000000000E+00 -0.18338441762E+04  0.18338441762E+04  0.00000000000E+00 0. -1.
         23    2    1    2    0    0  0.72609459254E+03  0.46633939271E+03 -0.36171531786E+03  0.94022228829E+03  0.92163950180E+02 0.  0.
        254    2    1    2    0    0 -0.72609459254E+03 -0.46633939271E+03 -0.86102976640E+03  0.15047209798E+04  0.88211517498E+03 0.  0.
        -24    2    4    4    0    0  0.44463097507E+02  0.14002397245E+03  0.33205519260E+02  0.17511298132E+03  0.89321161071E+02 0.  0.
         24    2    4    4    0    0 -0.77055769005E+03 -0.60636336516E+03 -0.89423528566E+03  0.13296079985E+04  0.82249615368E+02 0.  0.
         13    1    3    3    0    0  0.60510774382E+03  0.37296255024E+03 -0.33201935600E+03  0.78453380951E+03  0.00000000000E+00 0. -1.
        -13    1    3    3    0    0  0.12098684872E+03  0.93376842469E+02 -0.29695961865E+02  0.15568847878E+03  0.00000000000E+00 0.  1.
          4    1    6    6  502    0 -0.61345853247E+02 -0.31103674561E+02 -0.85992431737E+02  0.11011562377E+03  0.00000000000E+00 0. -1.
          1    1    5    5  503    0 -0.17412111587E+02  0.18640142835E+02 -0.16165827573E+02  0.30198849911E+02  0.00000000000E+00 0. -1.
         -2    1    5    5    0  503  0.61875209095E+02  0.12138382961E+03  0.49371346833E+02  0.14491413140E+03  0.00000000000E+00 0.  1.
         -1    1    6    6    0  502 -0.70921183680E+03 -0.57525969059E+03 -0.80824285393E+03  0.12194923747E+04  0.00000000000E+00 0.  1.
<mgrwt>
<rscale>  0 0.21172251E+04</rscale>
<asrwt>0</asrwt>
<pdfrwt beam="1">  1        2 0.28212987E+00 0.21172251E+04</pdfrwt>
<pdfrwt beam="2">  1       -2 0.94015247E-01 0.21172251E+04</pdfrwt>
<totfact> 0.72618929E+00</totfact>
</mgrwt>
</event>
<event>
12    1  0.1980523E-007  0.1663524E+04  0.7818608E-02  0.8782446E-01
         -1   -1    0    0    0  501 -0.00000000000E+00  0.00000000000E+00  0.37315198000E+03  0.37315198000E+03  0.00000000000E+00 0.  1.
          1   -1    0    0  501    0  0.00000000000E+00 -0.00000000000E+00 -0.18540109997E+04  0.18540109997E+04  0.00000000000E+00 0. -1.
         23    2    1    2    0    0  0.14957293446E+03 -0.52904753419E+03 -0.26479003460E+03  0.61684896228E+03  0.90141686717E+02 0.  0.
        254    2    1    2    0    0 -0.14957293446E+03  0.52904753419E+03 -0.12160689851E+04  0.16103140174E+04  0.90112379949E+03 0.  0.
        -24    2    4    4    0    0 -0.36839308978E+03 -0.59067152037E+02 -0.25317240253E+03  0.45819957050E+03  0.81536396553E+02 0.  0.
         24    2    4    4    0    0  0.21882015532E+03  0.58811468623E+03 -0.96289658253E+03  0.11521144469E+04  0.80229206244E+02 0.  0.
         13    1    3    3    0    0  0.51021102696E+01 -0.11421642580E+02 -0.25845911432E+02  0.28714048586E+02  0.00000000000E+00 0. -1.
        -13    1    3    3    0    0  0.14447082419E+03 -0.51762589161E+03 -0.23894412317E+03  0.58813491369E+03  0.00000000000E+00 0.  1.
          2    1    6    6  502    0  0.18802921268E+03  0.42913447187E+03 -0.75555457490E+03  0.88902986193E+03  0.00000000000E+00 0. -1.
          1    1    5    5  503    0 -0.30304472443E+03 -0.37070451875E+02 -0.23919472882E+03  0.38784589943E+03  0.00000000000E+00 0. -1.
         -2    1    5    5    0  503 -0.65348365350E+02 -0.21996700163E+02 -0.13977673707E+02  0.70353671078E+02  0.00000000000E+00 0.  1.
         -1    1    6    6    0  502  0.30790942639E+02  0.15898021436E+03 -0.20734200763E+03  0.26308458494E+03  0.00000000000E+00 0.  1.
<mgrwt>
<rscale>  0 0.16635238E+04</rscale>
<asrwt>0</asrwt>
<pdfrwt beam="1">  1        1 0.28523246E+00 0.16635238E+04</pdfrwt>
<pdfrwt beam="2">  1       -1 0.57407998E-01 0.16635238E+04</pdfrwt>
<totfact> 0.10982507E+01</totfact>
</mgrwt>
</event>
<event>
12    1  0.1980523E-007  0.1855697E+04  0.7818608E-02  0.8677228E-01
          1   -1    0    0  501    0  0.00000000000E+00  0.00000000000E+00  0.96363679362E+03  0.96363679362E+03  0.00000000000E+00 0. -1.
         -1   -1    0    0    0  501 -0.00000000000E+00 -0.00000000000E+00 -0.89338965488E+03  0.89338965488E+03  0.00000000000E+00 0.  1.
         23    2    1    2    0    0  0.23444618608E+03 -0.61602648925E+03  0.28078635693E+03  0.72229531174E+03  0.91738157293E+02 0.  0.
        254    2    1    2    0    0 -0.23444618608E+03  0.61602648925E+03 -0.21053921819E+03  0.11347311368E+04  0.89935217835E+03 0.  0.
        -24    2    4    4    0    0  0.33045801522E+03  0.13302865840E+03 -0.10212682722E+03  0.37954258368E+03  0.81997318297E+02 0.  0.
         24    2    4    4    0    0 -0.56490420130E+03  0.48299783084E+03 -0.10841239097E+03  0.75518855308E+03  0.78440059553E+02 0.  0.
         13    1    3    3    0    0  0.19261372426E+03 -0.38271186473E+03  0.18038392436E+03  0.46487286256E+03  0.00000000000E+00 0.  1.
        -13    1    3    3    0    0  0.41832461817E+02 -0.23331462452E+03  0.10040243257E+03  0.25742244918E+03  0.00000000000E+00 0. -1.
          2    1    6    6  502    0 -0.53882867163E+02  0.25595899495E+02 -0.23538216785E+02  0.64129253029E+02  0.00000000000E+00 0. -1.
          1    1    5    5  503    0  0.11962001916E+03  0.76093846677E+02 -0.87925462562E+01  0.14204411764E+03  0.00000000000E+00 0. -1.
         -2    1    5    5    0  503  0.21083799606E+03  0.56934811726E+02 -0.93334280961E+02  0.23749846604E+03  0.00000000000E+00 0.  1.
         -1    1    6    6    0  502 -0.51102133413E+03  0.45740193135E+03 -0.84874174185E+02  0.69105930005E+03  0.00000000000E+00 0.  1.
<mgrwt>
<rscale>  0 0.18556973E+04</rscale>
<asrwt>0</asrwt>
<pdfrwt beam="1">  1        1 0.14825181E+00 0.18556973E+04</pdfrwt>
<pdfrwt beam="2">  1       -1 0.13744456E+00 0.18556973E+04</pdfrwt>
<totfact> 0.66773086E+00</totfact>
</mgrwt>
</event>
<event>
12    1  0.1980523E-007  0.2806922E+04  0.7818608E-02  0.8301123E-01
          2   -1    0    0  501    0  0.00000000000E+00  0.00000000000E+00  0.13195446690E+04  0.13195446690E+04  0.00000000000E+00 0. -1.
         -2   -1    0    0    0  501 -0.00000000000E+00 -0.00000000000E+00 -0.14927139292E+04  0.14927139292E+04  0.00000000000E+00 0.  1.
         23    2    1    2    0    0 -0.10387503744E+04 -0.59233946202E+03  0.31332762161E+03  0.12394571253E+04  0.90616711578E+02 0.  0.
        254    2    1    2    0    0  0.10387503744E+04  0.59233946202E+03 -0.48649688175E+03  0.15728014728E+04  0.89841909947E+03 0.  0.
        -24    2    4    4    0    0 -0.85286701069E+02 -0.71426942130E+02  0.68270695451E+02  0.15261133595E+03  0.79080355094E+02 0.  0.
         24    2    4    4    0    0  0.11240370755E+04  0.66376640415E+03 -0.55476757720E+03  0.14201901369E+04  0.71608475449E+02 0.  0.
         13    1    3    3    0    0 -0.67894912827E+03 -0.39739454060E+03  0.24933190215E+03  0.82526404084E+03  0.00000000000E+00 0. -1.
        -13    1    3    3    0    0 -0.35980124618E+03 -0.19494492142E+03  0.63995719455E+02  0.41419308450E+03  0.00000000000E+00 0.  1.
          4    1    6    6  502    0  0.62913898017E+03  0.33120545094E+03 -0.31062094739E+03  0.77588548128E+03  0.00000000000E+00 0. -1.
          3    1    5    5  503    0 -0.66637175644E+02 -0.43571543347E+01  0.36279642339E+02  0.75998094845E+02  0.00000000000E+00 0. -1.
         -4    1    5    5    0  503 -0.18649525425E+02 -0.67069787795E+02  0.31991053112E+02  0.76613241105E+02  0.00000000000E+00 0.  1.
         -3    1    6    6    0  502  0.49489809535E+03  0.33256095322E+03 -0.24414662981E+03  0.64430465560E+03  0.00000000000E+00 0.  1.
<mgrwt>
<rscale>  0 0.28069219E+04</rscale>
<asrwt>0</asrwt>
<pdfrwt beam="1">  1        2 0.20300687E+00 0.28069219E+04</pdfrwt>
<pdfrwt beam="2">  1       -2 0.22964830E+00 0.28069219E+04</pdfrwt>
<totfact> 0.12034985E+00</totfact>
</mgrwt>
</event>
<event>
12    1  0.1980523E-007  0.2745854E+04  0.7818608E-02  0.8320278E-01
          2   -1    0    0  501    0  0.00000000000E+00  0.00000000000E+00  0.15794414407E+04  0.15794414407E+04  0.00000000000E+00 0. -1.
         -2   -1    0    0    0  501 -0.00000000000E+00 -0.00000000000E+00 -0.11934146460E+04  0.11934146460E+04  0.00000000000E+00 0.  1.
         23    2    1    2    0    0 -0.80847538916E+03  0.50539923870E+03 -0.60207260088E+03  0.11312233342E+04  0.90077576590E+02 0.  0.
        254    2    1    2    0    0  0.80847538916E+03 -0.50539923870E+03  0.98809939556E+03  0.16416327525E+04  0.89975376246E+03 0.  0.
        -24    2    4    4    0    0  0.96416065448E+03 -0.57012343094E+03  0.82660628362E+03  0.13943570606E+04  0.79417693769E+02 0.  0.
         24    2    4    4    0    0 -0.15568526532E+03  0.64724192246E+02  0.16149311194E+03  0.24727569188E+03  0.81474656742E+02 0.  0.
         13    1    3    3    0    0 -0.68438141396E+03  0.42393757704E+03 -0.46799448147E+03  0.93119268880E+03  0.00000000000E+00 0. -1.
        -13    1    3    3    0    0 -0.12409397520E+03  0.81461661660E+02 -0.13407811941E+03  0.20003064542E+03  0.00000000000E+00 0.  1.
          2    1    6    6  502    0 -0.91432470053E+02  0.61652360362E+02  0.14253476306E+03  0.18021395284E+03  0.00000000000E+00 0. -1.
          1    1    5    5  503    0  0.80300224045E+03 -0.50132673651E+03  0.67510352764E+03  0.11627148696E+04  0.00000000000E+00 0. -1.
         -2    1    5    5    0  503  0.16115841403E+03 -0.68796694434E+02  0.15150275598E+03  0.23164219100E+03  0.00000000000E+00 0.  1.
         -1    1    6    6    0  502 -0.64252795266E+02  0.30718318836E+01  0.18958348880E+02  0.67061739039E+02  0.00000000000E+00 0.  1.
<mgrwt>
<rscale>  0 0.27458540E+04</rscale>
<asrwt>0</asrwt>
<pdfrwt beam="1">  1        2 0.24299099E+00 0.27458540E+04</pdfrwt>
<pdfrwt beam="2">  1       -2 0.18360225E+00 0.27458540E+04</pdfrwt>
<totfact> 0.17145243E+00</totfact>
</mgrwt>
</event>
<event>
12    1  0.1980523E-007  0.2376568E+04  0.7818608E-02  0.8448329E-01
         -2   -1    0    0    0  501 -0.00000000000E+00  0.00000000000E+00  0.40800382456E+03  0.40800382456E+03  0.00000000000E+00 0.  1.
          2   -1    0    0  501    0  0.00000000000E+00 -0.00000000000E+00 -0.34607968481E+04  0.34607968481E+04  0.00000000000E+00 0. -1.
         23    2    1    2    0    0 -0.49354902084E+03 -0.87774569052E+03 -0.15234878483E+04  0.18284360440E+04  0.90194289988E+02 0.  0.
        254    2    1    2    0    0  0.49354902084E+03  0.87774569052E+03 -0.15293051752E+04  0.20403646286E+04  0.90015852248E+03 0.  0.
        -24    2    4    4    0    0 -0.13452320662E+03 -0.25742261582E+02 -0.52453317628E+03  0.54794076940E+03  0.79654733723E+02 0.  0.
         24    2    4    4    0    0  0.62807222747E+03  0.90348795210E+03 -0.10047719989E+04  0.14924238592E+04  0.83648091460E+02 0.  0.
         13    1    3    3    0    0 -0.19799682615E+03 -0.44348857825E+03 -0.74101593019E+03  0.88599631546E+03  0.00000000000E+00 0.  1.
        -13    1    3    3    0    0 -0.29555219469E+03 -0.43425711227E+03 -0.78247191814E+03  0.94243972859E+03  0.00000000000E+00 0. -1.
          2    1    6    6  502    0  0.49182303275E+03  0.74429219367E+03 -0.84674224960E+03  0.12299728462E+04  0.00000000000E+00 0. -1.
          3    1    5    5  503    0 -0.49382585259E+02 -0.54477631288E+01 -0.74978682907E+02  0.89945098479E+02  0.00000000000E+00 0. -1.
         -4    1    5    5    0  503 -0.85140621366E+02 -0.20294498453E+02 -0.44955449337E+03  0.45799567092E+03  0.00000000000E+00 0.  1.
         -1    1    6    6    0  502  0.13624919472E+03  0.15919575844E+03 -0.15802974931E+03  0.26245101302E+03  0.00000000000E+00 0.  1.
<mgrwt>
<rscale>  0 0.23765676E+04</rscale>
<asrwt>0</asrwt>
<pdfrwt beam="1">  1        2 0.53243029E+00 0.23765676E+04</pdfrwt>
<pdfrwt beam="2">  1       -2 0.62769819E-01 0.23765676E+04</pdfrwt>
<totfact> 0.18389508E+00</totfact>
</mgrwt>
</event>
<event>
12    1  0.1980523E-007  0.2533681E+04  0.7818608E-02  0.8391084E-01
          2   -1    0    0  501    0  0.00000000000E+00  0.00000000000E+00  0.24084485571E+04  0.24084485571E+04  0.00000000000E+00 0. -1.
         -2   -1    0    0    0  501 -0.00000000000E+00 -0.00000000000E+00 -0.66635618187E+03  0.66635618187E+03  0.00000000000E+00 0.  1.
         23    2    1    2    0    0  0.58349894664E+03 -0.68345709282E+03 -0.17269209769E+02  0.90390399210E+03  0.95705709774E+02 0.  0.
        254    2    1    2    0    0 -0.58349894664E+03  0.68345709282E+03  0.17593615850E+04  0.21709007468E+04  0.89992902359E+03 0.  0.
        -24    2    4    4    0    0 -0.76286167908E+03  0.57532362245E+03  0.16764689517E+04  0.19313424747E+04  0.81119643432E+02 0.  0.
         24    2    4    4    0    0  0.17936273244E+03  0.10813347036E+03  0.82892633233E+02  0.23955827212E+03  0.81566781815E+02 0.  0.
         13    1    3    3    0    0  0.15745673679E+03 -0.19220887618E+03 -0.47388925931E+02  0.25294779371E+03  0.00000000000E+00 0.  1.
        -13    1    3    3    0    0  0.42604220985E+03 -0.49124821664E+03  0.30119716162E+02  0.65095619840E+03  0.00000000000E+00 0. -1.
          4    1    6    6  502    0  0.90281680281E+02  0.10062381412E+03  0.45266727580E+02  0.14256581073E+03  0.00000000000E+00 0. -1.
          3    1    5    5  503    0 -0.59267959115E+03  0.40813379652E+03  0.12255031471E+04  0.14211615872E+04  0.00000000000E+00 0. -1.
         -4    1    5    5    0  503 -0.17018208793E+03  0.16718982593E+03  0.45096580467E+03  0.51018088746E+03  0.00000000000E+00 0.  1.
         -3    1    6    6    0  502  0.89081052160E+02  0.75096562410E+01  0.37625905653E+02  0.96992461393E+02  0.00000000000E+00 0.  1.
<mgrwt>
<rscale>  0 0.25336808E+04</rscale>
<asrwt>0</asrwt>
<pdfrwt beam="1">  1        2 0.37053054E+00 0.25336808E+04</pdfrwt>
<pdfrwt beam="2">  1       -2 0.10251634E+00 0.25336808E+04</pdfrwt>
<totfact> 0.27215837E+00</totfact>
</mgrwt>
</event>
<event>
12    1  0.1980523E-007  0.1984320E+04  0.7818608E-02  0.8613987E-01
          1   -1    0    0  501    0  0.00000000000E+00  0.00000000000E+00  0.85128250099E+03  0.85128250099E+03  0.00000000000E+00 0. -1.
         -1   -1    0    0    0  501 -0.00000000000E+00 -0.00000000000E+00 -0.11563514751E+04  0.11563514751E+04  0.00000000000E+00 0.  1.
         23    2    1    2    0    0 -0.63729480724E+03  0.53859948792E+02 -0.58209349530E+03  0.86959162109E+03  0.91165699547E+02 0.  0.
        254    2    1    2    0    0  0.63729480724E+03 -0.53859948792E+02  0.27702452120E+03  0.11380423550E+04  0.89964006747E+03 0.  0.
        -24    2    4    4    0    0  0.42718201959E+03  0.30926252355E+03 -0.12949053755E+03  0.54876512207E+03  0.79041593786E+02 0.  0.
         24    2    4    4    0    0  0.21011278765E+03 -0.36312247234E+03  0.40651505876E+03  0.58927723293E+03  0.77381204407E+02 0.  0.
         13    1    3    3    0    0 -0.45913413291E+03  0.62232206405E+02 -0.46373276355E+03  0.65553419095E+03  0.00000000000E+00 0. -1.
        -13    1    3    3    0    0 -0.17816067433E+03 -0.83722576134E+01 -0.11836073175E+03  0.21405743014E+03  0.00000000000E+00 0.  1.
          4    1    6    6  502    0  0.10365895473E+03 -0.25117791768E+03  0.27133054824E+03  0.38399972869E+03  0.00000000000E+00 0. -1.
          1    1    5    5  503    0  0.38320143333E+03  0.27736804109E+03 -0.14020577773E+03  0.49339034125E+03  0.00000000000E+00 0. -1.
         -4    1    5    5    0  503  0.43980586261E+02  0.31894482458E+02  0.10715240177E+02  0.55374780822E+02  0.00000000000E+00 0.  1.
         -1    1    6    6    0  502  0.10645383292E+03 -0.11194455466E+03  0.13518451051E+03  0.20527750423E+03  0.00000000000E+00 0.  1.
<mgrwt>
<rscale>  0 0.19843203E+04</rscale>
<asrwt>0</asrwt>
<pdfrwt beam="1">  1        1 0.13096654E+00 0.19843203E+04</pdfrwt>
<pdfrwt beam="2">  1       -1 0.17790023E+00 0.19843203E+04</pdfrwt>
<totfact> 0.39988410E+00</totfact>
</mgrwt>
</event>
<event>
12    1  0.1980523E-007  0.1156413E+04  0.7818608E-02  0.9151887E-01
          3   -1    0    0  501    0  0.00000000000E+00  0.00000000000E+00  0.12072688713E+04  0.12072688713E+04  0.00000000000E+00 0. -1.
         -3   -1    0    0    0  501 -0.00000000000E+00 -0.00000000000E+00 -0.27692497353E+03  0.27692497353E+03  0.00000000000E+00 0.  1.
         23    2    1    2    0    0 -0.34419956824E+01  0.19010360303E+03  0.64590844617E+02  0.22056126933E+03  0.91236336504E+02 0.  0.
        254    2    1    2    0    0  0.34419956824E+01 -0.19010360303E+03  0.86575305312E+03  0.12636325755E+04  0.90060408039E+03 0.  0.
        -24    2    4    4    0    0  0.15040746158E+01  0.35643189395E+03  0.39382082814E+03  0.53719037345E+03  0.80204085843E+02 0.  0.
         24    2    4    4    0    0  0.19379210666E+01 -0.54653549698E+03  0.47193222498E+03  0.72644220203E+03  0.79331222827E+02 0.  0.
         11    1    3    3    0    0  0.30100817818E+02  0.30642739569E+02  0.33959669348E+02  0.54756696976E+02  0.00000000000E+00 0. -1.
        -11    1    3    3    0    0 -0.33542813500E+02  0.15946086346E+03  0.30631175270E+02  0.16580457235E+03  0.00000000000E+00 0.  1.
          2    1    6    6  502    0  0.25464251120E+01 -0.49863971537E+03  0.39643200849E+03  0.63702934577E+03  0.00000000000E+00 0. -1.
          3    1    5    5  503    0  0.19591582670E+02  0.29668571779E+03  0.35743287333E+03  0.46493494618E+03  0.00000000000E+00 0. -1.
         -4    1    5    5    0  503 -0.18087508054E+02  0.59746176165E+02  0.36387954815E+02  0.72255427267E+02  0.00000000000E+00 0.  1.
         -1    1    6    6    0  502 -0.60850404542E+00 -0.47895781614E+02  0.75500216488E+02  0.89412856254E+02  0.00000000000E+00 0.  1.
<mgrwt>
<rscale>  0 0.11564132E+04</rscale>
<asrwt>0</asrwt>
<pdfrwt beam="1">  1        3 0.18573367E+00 0.11564132E+04</pdfrwt>
<pdfrwt beam="2">  1       -3 0.42603843E-01 0.11564132E+04</pdfrwt>
<totfact> 0.25909803E+00</totfact>
</mgrwt>
</event>
<event>
12    1  0.1980523E-007  0.2885414E+04  0.7818608E-02  0.8277230E-01
         -2   -1    0    0    0  501 -0.00000000000E+00  0.00000000000E+00  0.53095129700E+03  0.53095129700E+03  0.00000000000E+00 0.  1.
          2   -1    0    0  501    0  0.00000000000E+00 -0.00000000000E+00 -0.39201406483E+04  0.39201406483E+04  0.00000000000E+00 0. -1.
         23    2    1    2    0    0 -0.50227339157E+03  0.68112178354E+02 -0.33760629812E+04  0.34151242282E+04  0.91402475432E+02 0.  0.
        254    2    1    2    0    0  0.50227339157E+03 -0.68112178354E+02 -0.13126370103E+02  0.10359677171E+04  0.90340410698E+03 0.  0.
        -24    2    4    4    0    0  0.49129865831E+03 -0.18923870799E+03 -0.37252197484E+03  0.64939412336E+03  0.75858061247E+02 0.  0.
         24    2    4    4    0    0  0.10974733266E+02  0.12112652964E+03  0.35939560473E+03  0.38657359371E+03  0.74039595503E+02 0.  0.
         11    1    3    3    0    0 -0.15316692464E+03  0.71337762226E+01 -0.13025584853E+04  0.13115523647E+04  0.00000000000E+00 0. -1.
        -11    1    3    3    0    0 -0.34910646694E+03  0.60978402131E+02 -0.20735044959E+04  0.21035718635E+04  0.00000000000E+00 0.  1.
          2    1    6    6  502    0  0.28460472524E+02  0.46788323368E+02  0.22903609980E+03  0.23549242177E+03  0.00000000000E+00 0. -1.
          3    1    5    5  503    0  0.42349145923E+03 -0.13457240909E+03 -0.32129195427E+03  0.54834593935E+03  0.00000000000E+00 0. -1.
         -4    1    5    5    0  503  0.67807199082E+02 -0.54666298907E+02 -0.51230020565E+02  0.10104818400E+03  0.00000000000E+00 0.  1.
         -1    1    6    6    0  502 -0.17485739258E+02  0.74338206273E+02  0.13035950493E+03  0.15108117194E+03  0.00000000000E+00 0.  1.
<mgrwt>
<rscale>  0 0.28854142E+04</rscale>
<asrwt>0</asrwt>
<pdfrwt beam="1">  1        2 0.60309856E+00 0.28854142E+04</pdfrwt>
<pdfrwt beam="2">  1       -2 0.81684815E-01 0.28854142E+04</pdfrwt>
<totfact> 0.45165287E-01</totfact>
</mgrwt>
</event>
<event>
12    1  0.1980523E-007  0.1564824E+04  0.7818608E-02  0.8842454E-01
          2   -1    0    0  501    0  0.00000000000E+00  0.00000000000E+00  0.33584063851E+04  0.33584063851E+04  0.00000000000E+00 0. -1.
         -2   -1    0    0    0  501 -0.00000000000E+00 -0.00000000000E+00 -0.18227945299E+03  0.18227945299E+03  0.00000000000E+00 0.  1.
         23    2    1    2    0    0  0.14626884706E+03  0.37465876797E+03  0.18143029387E+04  0.18605798247E+04  0.91095348585E+02 0.  0.
        254    2    1    2    0    0 -0.14626884706E+03 -0.37465876797E+03  0.13618239934E+04  0.16801060134E+04  0.89801328457E+03 0.  0.
        -24    2    4    4    0    0  0.12248775544E+03  0.21052601135E+03  0.12941407553E+03  0.28708014397E+03  0.79640155879E+02 0.  0.
         24    2    4    4    0    0 -0.26875660251E+03 -0.58518477932E+03  0.12324099179E+04  0.13930258695E+04  0.83758760276E+02 0.  0.
         13    1    3    3    0    0  0.14212713761E+03  0.28007920094E+03  0.14899415117E+04  0.15226851908E+04  0.00000000000E+00 0.  1.
        -13    1    3    3    0    0  0.41417094528E+01  0.94579567039E+02  0.32436142697E+03  0.33789463382E+03  0.00000000000E+00 0. -1.
          4    1    6    6  502    0 -0.38869581415E+02 -0.80168749327E+02  0.11542203015E+03  0.14580849691E+03  0.00000000000E+00 0. -1.
          3    1    5    5  503    0 -0.40166265859E+01  0.25596746811E+01 -0.66757070942E+01  0.82006273425E+01  0.00000000000E+00 0. -1.
         -4    1    5    5    0  503  0.12650438203E+03  0.20796633667E+03  0.13608978262E+03  0.27887951663E+03  0.00000000000E+00 0.  1.
         -3    1    6    6    0  502 -0.22988702109E+03 -0.50501602999E+03  0.11169878877E+04  0.12472173725E+04  0.00000000000E+00 0.  1.
<mgrwt>
<rscale>  0 0.15648239E+04</rscale>
<asrwt>0</asrwt>
<pdfrwt beam="1">  1        2 0.51667786E+00 0.15648239E+04</pdfrwt>
<pdfrwt beam="2">  1       -2 0.28042995E-01 0.15648239E+04</pdfrwt>
<totfact> 0.11494525E+01</totfact>
</mgrwt>
</event>
<event>
12    1  0.2202344E-007  0.2165645E+04  0.7818608E-02  0.8532865E-01
         -2   -1    0    0    0  501 -0.00000000000E+00  0.00000000000E+00  0.60345579931E+03  0.60345579931E+03  0.00000000000E+00 0.  1.
          2   -1    0    0  501    0  0.00000000000E+00 -0.00000000000E+00 -0.19429835793E+04  0.19429835793E+04  0.00000000000E+00 0. -1.
         23    2    1    2    0    0 -0.68803048869E+03 -0.49652989132E+03 -0.88490590212E+03  0.12291232383E+04  0.88077198451E+02 0.  0.
        254    2    1    2    0    0  0.68803048869E+03  0.49652989132E+03 -0.45462187789E+03  0.13173161404E+04  0.89928464653E+03 0.  0.
        -24    2    4    4    0    0  0.88958418810E+03  0.37270577115E+03 -0.26471301424E+03  0.10032807456E+04  0.78928163094E+02 0.  0.
         24    2    4    4    0    0 -0.20155369940E+03  0.12382412016E+03 -0.18990886365E+03  0.31403539482E+03  0.81219124760E+02 0.  0.
         11    1    3    3    0    0 -0.41395029165E+03 -0.33362484901E+03 -0.50654230389E+03  0.73433336399E+03  0.00000000000E+00 0. -1.
        -11    1    3    3    0    0 -0.27408019704E+03 -0.16290504231E+03 -0.37836359823E+03  0.49478987427E+03  0.00000000000E+00 0.  1.
          2    1    6    6  502    0 -0.11557063289E+02 -0.16485385323E+01  0.64797895480E+01  0.13351818743E+02  0.00000000000E+00 0. -1.
          1    1    5    5  503    0  0.19784890431E+03  0.10413859936E+03 -0.89522573349E+02  0.24083880077E+03  0.00000000000E+00 0. -1.
         -2    1    5    5    0  503  0.69173528378E+03  0.26856717179E+03 -0.17519044089E+03  0.76244194479E+03  0.00000000000E+00 0.  1.
         -1    1    6    6    0  502 -0.18999663612E+03  0.12547265870E+03 -0.19638865320E+03  0.30068357607E+03  0.00000000000E+00 0.  1.
<mgrwt>
<rscale>  0 0.21656451E+04</rscale>
<asrwt>0</asrwt>
<pdfrwt beam="1">  1        2 0.29892055E+00 0.21656451E+04</pdfrwt>
<pdfrwt beam="2">  1       -2 0.92839354E-01 0.21656451E+04</pdfrwt>
<totfact> 0.64781513E+00</totfact>
</mgrwt>
</event>
<event>
12    1  0.1980523E-007  0.5949307E+04  0.7818608E-02  0.7696719E-01
          1   -1    0    0  501    0  0.00000000000E+00  0.00000000000E+00  0.39807914804E+04  0.39807914804E+04  0.00000000000E+00 0. -1.
         -1   -1    0    0    0  501 -0.00000000000E+00 -0.00000000000E+00 -0.22228149446E+04  0.22228149446E+04  0.00000000000E+00 0.  1.
         23    2    1    2    0    0 -0.16276135059E+04 -0.65737062910E+03 -0.15556664770E+04  0.23472216878E+04  0.89942178838E+02 0.  0.
        254    2    1    2    0    0  0.16276135059E+04  0.65737062910E+03  0.33136430127E+04  0.38563847372E+04  0.90011741294E+03 0.  0.
        -24    2    4    4    0    0  0.16593155883E+04  0.75409459661E+03  0.29345793519E+04  0.34554648770E+04  0.80589460994E+02 0.  0.
         24    2    4    4    0    0 -0.31702082465E+02 -0.96723967514E+02  0.37906366078E+03  0.40091986018E+03  0.81773635304E+02 0.  0.
         11    1    3    3    0    0 -0.13229552405E+04 -0.51005030404E+03 -0.12185394909E+04  0.18695454987E+04  0.00000000000E+00 0. -1.
        -11    1    3    3    0    0 -0.30465826542E+03 -0.14732032506E+03 -0.33712698607E+03  0.47767618907E+03  0.00000000000E+00 0.  1.
          2    1    6    6  502    0 -0.56933700728E+02 -0.74706516793E+02  0.31394961091E+03  0.32769935630E+03  0.00000000000E+00 0. -1.
          1    1    5    5  503    0  0.16517687865E+04  0.74624208688E+03  0.29244877803E+04  0.34406171181E+04  0.00000000000E+00 0. -1.
         -2    1    5    5    0  503  0.75468018731E+01  0.78525097343E+01  0.10091571682E+02  0.14847758978E+02  0.00000000000E+00 0.  1.
         -1    1    6    6    0  502  0.25231618263E+02 -0.22017450721E+02  0.65114049878E+02  0.73220503876E+02  0.00000000000E+00 0.  1.
<mgrwt>
<rscale>  0 0.59493068E+04</rscale>
<asrwt>0</asrwt>
<pdfrwt beam="1">  1        1 0.61242946E+00 0.59493068E+04</pdfrwt>
<pdfrwt beam="2">  1       -1 0.34197153E+00 0.59493068E+04</pdfrwt>
<totfact> 0.11704872E-03</totfact>
</mgrwt>
</event>
<event>
12    1  0.1980523E-007  0.2279560E+04  0.7818608E-02  0.8486024E-01
          2   -1    0    0  501    0  0.00000000000E+00  0.00000000000E+00  0.76826011397E+03  0.76826011397E+03  0.00000000000E+00 0. -1.
         -2   -1    0    0    0  501 -0.00000000000E+00 -0.00000000000E+00 -0.16909621181E+04  0.16909621181E+04  0.00000000000E+00 0.  1.
         23    2    1    2    0    0 -0.56917622965E+03 -0.76956180608E+03 -0.41984295810E+03  0.10489314794E+04  0.88329979023E+02 0.  0.
        254    2    1    2    0    0  0.56917622965E+03  0.76956180608E+03 -0.50285904602E+03  0.14102907527E+04  0.90546442952E+03 0.  0.
        -24    2    4    4    0    0  0.56521210835E+03  0.95452862683E+03 -0.38448002096E+03  0.11766611397E+04  0.78210768901E+02 0.  0.
         24    2    4    4    0    0  0.39641212922E+01 -0.18496682075E+03 -0.11837902506E+03  0.23362961293E+03  0.79628910780E+02 0.  0.
         11    1    3    3    0    0 -0.25045369285E+03 -0.32161739726E+03 -0.13263884127E+03  0.42866987846E+03  0.00000000000E+00 0. -1.
        -11    1    3    3    0    0 -0.31872253679E+03 -0.44794440882E+03 -0.28720411683E+03  0.62026160092E+03  0.00000000000E+00 0.  1.
          4    1    6    6  502    0 -0.35214915654E+02 -0.53843631655E+02 -0.43109055634E+02  0.77444287278E+02  0.00000000000E+00 0. -1.
          1    1    5    5  503    0  0.49808647104E+03  0.79252542428E+03 -0.30881581747E+03  0.98567433257E+03  0.00000000000E+00 0. -1.
         -2    1    5    5    0  503  0.67125637313E+02  0.16200320255E+03 -0.75664203493E+02  0.19098680716E+03  0.00000000000E+00 0.  1.
         -3    1    6    6    0  502  0.39179036946E+02 -0.13112318909E+03 -0.75269969421E+02  0.15618532566E+03  0.00000000000E+00 0.  1.
<mgrwt>
<rscale>  0 0.22795603E+04</rscale>
<asrwt>0</asrwt>
<pdfrwt beam="1">  1        2 0.11819386E+00 0.22795603E+04</pdfrwt>
<pdfrwt beam="2">  1       -2 0.26014802E+00 0.22795603E+04</pdfrwt>
<totfact> 0.18372510E+00</totfact>
</mgrwt>
</event>
<event>
12    1  0.1980523E-007  0.1161838E+04  0.7818608E-02  0.9146932E-01
          1   -1    0    0  501    0  0.00000000000E+00  0.00000000000E+00  0.56153759751E+03  0.56153759751E+03  0.00000000000E+00 0. -1.
         -1   -1    0    0    0  501 -0.00000000000E+00 -0.00000000000E+00 -0.60096904006E+03  0.60096904006E+03  0.00000000000E+00 0.  1.
         23    2    1    2    0    0 -0.64242466019E+02 -0.18587345017E+03  0.86055889361E+02  0.23248268228E+03  0.89255518296E+02 0.  0.
        254    2    1    2    0    0  0.64242466019E+02  0.18587345017E+03 -0.12548733191E+03  0.93002395530E+03  0.90028964952E+03 0.  0.
        -24    2    4    4    0    0  0.23848330158E+03 -0.25767014362E+03 -0.24103833394E+03  0.43325675240E+03  0.79647642939E+02 0.  0.
         24    2    4    4    0    0 -0.17424083556E+03  0.44354359379E+03  0.11555100202E+03  0.49676720290E+03  0.79591654310E+02 0.  0.
         11    1    3    3    0    0  0.25359747464E+01 -0.12620172660E+03  0.45563684406E+02  0.13419894299E+03  0.00000000000E+00 0.  1.
        -11    1    3    3    0    0 -0.66778440765E+02 -0.59671723572E+02  0.40492204955E+02  0.98283739282E+02  0.00000000000E+00 0. -1.
          2    1    6    6  502    0 -0.18190921386E+03  0.41824799778E+03  0.10336414958E+03  0.46766066453E+03  0.00000000000E+00 0. -1.
          1    1    5    5  503    0  0.11288482536E+03 -0.91543868275E+02 -0.13992049021E+03  0.20174490625E+03  0.00000000000E+00 0. -1.
         -4    1    5    5    0  503  0.12559847622E+03 -0.16612627535E+03 -0.10111784373E+03  0.23151184615E+03  0.00000000000E+00 0.  1.
         -1    1    6    6    0  502  0.76683782924E+01  0.25295596014E+02  0.12186852441E+02  0.29106538368E+02  0.00000000000E+00 0.  1.
<mgrwt>
<rscale>  0 0.11618377E+04</rscale>
<asrwt>0</asrwt>
<pdfrwt beam="1">  1        1 0.86390400E-01 0.11618377E+04</pdfrwt>
<pdfrwt beam="2">  1       -1 0.92456775E-01 0.11618377E+04</pdfrwt>
<totfact> 0.42554157E+01</totfact>
</mgrwt>
</event>
<event>
12    1  0.1980523E-007  0.2232997E+04  0.7818608E-02  0.8504818E-01
         -1   -1    0    0    0  501 -0.00000000000E+00  0.00000000000E+00  0.62376028001E+03  0.62376028001E+03  0.00000000000E+00 0.  1.
          1   -1    0    0  501    0  0.00000000000E+00 -0.00000000000E+00 -0.19984741536E+04  0.19984741536E+04  0.00000000000E+00 0. -1.
         23    2    1    2    0    0 -0.37294275732E+03  0.30839807340E+03  0.36090091687E+03  0.61056827586E+03  0.91369993835E+02 0.  0.
        254    2    1    2    0    0  0.37294275732E+03 -0.30839807340E+03 -0.17356147904E+04  0.20116661577E+04  0.89456489840E+03 0.  0.
        -24    2    4    4    0    0 -0.22176432864E+03 -0.18799749740E+03 -0.10509751700E+04  0.10933089706E+04  0.79077309174E+02 0.  0.
         24    2    4    4    0    0  0.59470708596E+03 -0.12040057599E+03 -0.68463962040E+03  0.91835718706E+03  0.80471711928E+02 0.  0.
         13    1    3    3    0    0 -0.34639910014E+03  0.30552249257E+03  0.32067732915E+03  0.56229020930E+03  0.00000000000E+00 0.  1.
        -13    1    3    3    0    0 -0.26543657177E+02  0.28755808266E+01  0.40223587713E+02  0.48278066551E+02  0.00000000000E+00 0. -1.
          4    1    6    6  502    0  0.44118107996E+03 -0.99331946189E+02 -0.45657443132E+03  0.64262570147E+03  0.00000000000E+00 0. -1.
          1    1    5    5  503    0 -0.14443044996E+03 -0.70872238596E+02 -0.57174617595E+03  0.59395009790E+03  0.00000000000E+00 0. -1.
         -2    1    5    5    0  503 -0.77333878675E+02 -0.11712525881E+03 -0.47922899406E+03  0.49935887275E+03  0.00000000000E+00 0.  1.
         -3    1    6    6    0  502  0.15352600599E+03 -0.21068629804E+02 -0.22806518908E+03  0.27573148560E+03  0.00000000000E+00 0.  1.
<mgrwt>
<rscale>  0 0.22329969E+04</rscale>
<asrwt>0</asrwt>
<pdfrwt beam="1">  1        1 0.30745757E+00 0.22329969E+04</pdfrwt>
<pdfrwt beam="2">  1       -1 0.95963119E-01 0.22329969E+04</pdfrwt>
<totfact> 0.28419299E+00</totfact>
</mgrwt>
</event>
<event>
12    1  0.1980523E-007  0.3962534E+04  0.7818608E-02  0.8012148E-01
          2   -1    0    0  501    0  0.00000000000E+00  0.00000000000E+00  0.17628726572E+04  0.17628726572E+04  0.00000000000E+00 0. -1.
         -2   -1    0    0    0  501 -0.00000000000E+00 -0.00000000000E+00 -0.22267172189E+04  0.22267172189E+04  0.00000000000E+00 0.  1.
         23    2    1    2    0    0 -0.12813328823E+03  0.94244437075E+03 -0.18497976651E+04  0.20827598910E+04  0.10732115438E+03 0.  0.
        254    2    1    2    0    0  0.12813328823E+03 -0.94244437075E+03  0.13859531034E+04  0.19068299852E+04  0.90028609671E+03 0.  0.
        -24    2    4    4    0    0  0.32147909144E+03 -0.90803633134E+03  0.71248665397E+03  0.12007375990E+04  0.79087067500E+02 0.  0.
         24    2    4    4    0    0 -0.19334580320E+03 -0.34408039412E+02  0.67346644946E+03  0.70609238620E+03  0.80267593139E+02 0.  0.
         13    1    3    3    0    0 -0.37006511859E+02  0.27248200000E+03 -0.64572788365E+03  0.70184073832E+03  0.00000000000E+00 0.  1.
        -13    1    3    3    0    0 -0.91126776375E+02  0.66996237075E+03 -0.12040697814E+04  0.13809191527E+04  0.00000000000E+00 0. -1.
          4    1    6    6  502    0 -0.10214018788E+03 -0.21482846329E+02  0.48766232533E+03  0.49870700237E+03  0.00000000000E+00 0. -1.
          3    1    5    5  503    0  0.24540127048E+03 -0.59477779019E+03  0.49644807786E+03  0.81267650222E+03  0.00000000000E+00 0. -1.
         -4    1    5    5    0  503  0.76077820961E+02 -0.31325854115E+03  0.21603857611E+03  0.38806109675E+03  0.00000000000E+00 0.  1.
         -3    1    6    6    0  502 -0.91205615319E+02 -0.12925193083E+02  0.18580412412E+03  0.20738538382E+03  0.00000000000E+00 0.  1.
<mgrwt>
<rscale>  0 0.39625340E+04</rscale>
<asrwt>0</asrwt>
<pdfrwt beam="1">  1        2 0.27121118E+00 0.39625340E+04</pdfrwt>
<pdfrwt beam="2">  1       -2 0.34257188E+00 0.39625340E+04</pdfrwt>
<totfact> 0.12401844E-01</totfact>
</mgrwt>
</event>
<event>
12    1  0.1980523E-007  0.2867823E+04  0.7818608E-02  0.8282516E-01
         -2   -1    0    0    0  501 -0.00000000000E+00  0.00000000000E+00  0.11105115182E+04  0.11105115182E+04  0.00000000000E+00 0.  1.
          2   -1    0    0  501    0  0.00000000000E+00 -0.00000000000E+00 -0.18514906653E+04  0.18514906653E+04  0.00000000000E+00 0. -1.
         23    2    1    2    0    0 -0.25564322270E+03 -0.61373131883E+03  0.80868271640E+03  0.10510313911E+04  0.93164694469E+02 0.  0.
        254    2    1    2    0    0  0.25564322270E+03  0.61373131883E+03 -0.15496618635E+04  0.19109707923E+04  0.89907613085E+03 0.  0.
        -24    2    4    4    0    0  0.48373847752E+03  0.59230259235E+03 -0.74537912652E+03  0.10707397228E+04  0.77898884547E+02 0.  0.
         24    2    4    4    0    0 -0.22809525482E+03  0.21428726480E+02 -0.80428273694E+03  0.84023106953E+03  0.81430299415E+02 0.  0.
         11    1    3    3    0    0 -0.26052036664E+03 -0.56288736069E+03  0.74878410671E+03  0.97231202848E+03  0.00000000000E+00 0. -1.
        -11    1    3    3    0    0  0.48771439445E+01 -0.50843958140E+02  0.59898609694E+02  0.78719362648E+02  0.00000000000E+00 0.  1.
          2    1    6    6  502    0 -0.18793516616E+03 -0.12006202759E+02 -0.57435132697E+03  0.60443628479E+03  0.00000000000E+00 0. -1.
          1    1    5    5  503    0  0.47879299176E+03  0.59247900260E+03 -0.74541018632E+03  0.10657909942E+04  0.00000000000E+00 0. -1.
         -2    1    5    5    0  503  0.49454857625E+01 -0.17641025537E+00  0.31059795918E-01  0.49487285959E+01  0.00000000000E+00 0.  1.
         -1    1    6    6    0  502 -0.40160088659E+02  0.33434929238E+02 -0.22993140997E+03  0.23579478473E+03  0.00000000000E+00 0.  1.
<mgrwt>
<rscale>  0 0.28678227E+04</rscale>
<asrwt>0</asrwt>
<pdfrwt beam="1">  1        2 0.28484472E+00 0.28678227E+04</pdfrwt>
<pdfrwt beam="2">  1       -2 0.17084793E+00 0.28678227E+04</pdfrwt>
<totfact> 0.14697144E+00</totfact>
</mgrwt>
</event>
<event>
12    1  0.1980523E-007  0.1805040E+04  0.7818608E-02  0.8703624E-01
         -2   -1    0    0    0  501 -0.00000000000E+00  0.00000000000E+00  0.18513198017E+03  0.18513198017E+03  0.00000000000E+00 0.  1.
          2   -1    0    0  501    0  0.00000000000E+00 -0.00000000000E+00 -0.43997926313E+04  0.43997926313E+04  0.00000000000E+00 0. -1.
         23    2    1    2    0    0  0.65397163895E+03  0.52514045105E+02 -0.20094208978E+04  0.21157781230E+04  0.91148734992E+02 0.  0.
        254    2    1    2    0    0 -0.65397163895E+03 -0.52514045105E+02 -0.22052397533E+04  0.24691464884E+04  0.89619494653E+03 0.  0.
        -24    2    4    4    0    0 -0.28220956036E+03  0.20856256904E+03 -0.20133128900E+03  0.41276046881E+03  0.81831140284E+02 0.  0.
         24    2    4    4    0    0 -0.37176207859E+03 -0.26107661415E+03 -0.20039084643E+04  0.20563860196E+04  0.81891921083E+02 0.  0.
         11    1    3    3    0    0  0.40734762019E+03  0.10985704784E+02 -0.11184232112E+04  0.11903458526E+04  0.00000000000E+00 0. -1.
        -11    1    3    3    0    0  0.24662401876E+03  0.41528340321E+02 -0.89099768657E+03  0.92543227043E+03  0.00000000000E+00 0.  1.
          2    1    6    6  502    0 -0.62302594964E+02 -0.19240726703E+02 -0.38750447917E+03  0.39295233843E+03  0.00000000000E+00 0. -1.
          3    1    5    5  503    0 -0.84680206608E+02  0.60142044072E+02 -0.10464788820E+03  0.14744145740E+03  0.00000000000E+00 0. -1.
         -4    1    5    5    0  503 -0.19752935375E+03  0.14842052497E+03 -0.96683400804E+02  0.26531901141E+03  0.00000000000E+00 0.  1.
         -1    1    6    6    0  502 -0.30945948363E+03 -0.24183588745E+03 -0.16164039852E+04  0.16634336812E+04  0.00000000000E+00 0.  1.
<mgrwt>
<rscale>  0 0.18050400E+04</rscale>
<asrwt>0</asrwt>
<pdfrwt beam="1">  1        2 0.67689108E+00 0.18050400E+04</pdfrwt>
<pdfrwt beam="2">  1       -2 0.28481847E-01 0.18050400E+04</pdfrwt>
<totfact> 0.16708335E+00</totfact>
</mgrwt>
</event>
<event>
12    1  0.1980523E-007  0.2782855E+04  0.7818608E-02  0.8308611E-01
         -1   -1    0    0    0  501 -0.00000000000E+00  0.00000000000E+00  0.92066282825E+03  0.92066282825E+03  0.00000000000E+00 0.  1.
          1   -1    0    0  501    0  0.00000000000E+00 -0.00000000000E+00 -0.21029088007E+04  0.21029088007E+04  0.00000000000E+00 0. -1.
         23    2    1    2    0    0 -0.48988835981E+03 -0.80992242477E+03 -0.14070229945E+04  0.16982878945E+04  0.92212398840E+02 0.  0.
        254    2    1    2    0    0  0.48988835981E+03  0.80992242477E+03  0.22477702206E+03  0.13252837344E+04  0.89993740214E+03 0.  0.
        -24    2    4    4    0    0 -0.13518794132E+03  0.53138189415E+02  0.29475043198E+03  0.33785498392E+03  0.78541239835E+02 0.  0.
         24    2    4    4    0    0  0.62507630112E+03  0.75678423535E+03 -0.69973409916E+02  0.98742875047E+03  0.81709840660E+02 0.  0.
         11    1    3    3    0    0 -0.28406892374E+03 -0.38125489850E+03 -0.69319368965E+03  0.84057595876E+03  0.00000000000E+00 0.  1.
        -11    1    3    3    0    0 -0.20581943606E+03 -0.42866752627E+03 -0.71382930484E+03  0.85771193579E+03  0.00000000000E+00 0. -1.
          4    1    6    6  502    0  0.60370943398E+03  0.71299456051E+03 -0.80043840566E+02  0.93767443199E+03  0.00000000000E+00 0. -1.
          1    1    5    5  503    0 -0.10993356955E+03  0.49304197982E+02  0.15777214021E+03  0.19851534419E+03  0.00000000000E+00 0. -1.
         -2    1    5    5    0  503 -0.25254371766E+02  0.38339914329E+01  0.13697829177E+03  0.13933963972E+03  0.00000000000E+00 0.  1.
         -3    1    6    6    0  502  0.21366867143E+02  0.43789674839E+02  0.10070430650E+02  0.49754318481E+02  0.00000000000E+00 0.  1.
<mgrwt>
<rscale>  0 0.27828546E+04</rscale>
<asrwt>0</asrwt>
<pdfrwt beam="1">  1        1 0.32352443E+00 0.27828546E+04</pdfrwt>
<pdfrwt beam="2">  1       -1 0.14164044E+00 0.27828546E+04</pdfrwt>
<totfact> 0.89399806E-01</totfact>
</mgrwt>
</event>
<event>
12    1  0.1980523E-007  0.2016412E+04  0.7818608E-02  0.8598986E-01
          2   -1    0    0  501    0  0.00000000000E+00  0.00000000000E+00  0.15241376621E+04  0.15241376621E+04  0.00000000000E+00 0. -1.
         -2   -1    0    0    0  501 -0.00000000000E+00 -0.00000000000E+00 -0.66692118556E+03  0.66692118556E+03  0.00000000000E+00 0.  1.
         23    2    1    2    0    0  0.51407082063E+03 -0.22829779415E+03  0.96962347920E+03  0.11247847414E+04  0.92640875059E+02 0.  0.
        254    2    1    2    0    0 -0.51407082063E+03  0.22829779415E+03 -0.11240700269E+03  0.10662741062E+04  0.89884172346E+03 0.  0.
        -24    2    4    4    0    0 -0.67758812016E+03  0.28315652793E+03  0.13761835724E+03  0.75164320025E+03  0.82008587029E+02 0.  0.
         24    2    4    4    0    0  0.16351729952E+03 -0.54858733775E+02 -0.25002535993E+03  0.31463090594E+03  0.82052047194E+02 0.  0.
         13    1    3    3    0    0  0.27245850792E+03 -0.15274277997E+03  0.60536243567E+03  0.68119576767E+03  0.00000000000E+00 0. -1.
        -13    1    3    3    0    0  0.24161231271E+03 -0.75555014181E+02  0.36426104354E+03  0.44358897378E+03  0.00000000000E+00 0.  1.
          2    1    6    6  502    0  0.24224327564E+02  0.17985468249E+02 -0.66271983316E+02  0.72816693737E+02  0.00000000000E+00 0. -1.
          1    1    5    5  503    0 -0.14663700354E+03  0.92876879064E+02  0.51757736106E+02  0.18112810030E+03  0.00000000000E+00 0. -1.
         -2    1    5    5    0  503 -0.53095111661E+03  0.19027964886E+03  0.85860621137E+02  0.57051509995E+03  0.00000000000E+00 0.  1.
         -1    1    6    6    0  502  0.13929297196E+03 -0.72844202024E+02 -0.18375337662E+03  0.24181421221E+03  0.00000000000E+00 0.  1.
<mgrwt>
<rscale>  0 0.20164124E+04</rscale>
<asrwt>0</asrwt>
<pdfrwt beam="1">  1        2 0.23448272E+00 0.20164124E+04</pdfrwt>
<pdfrwt beam="2">  1       -2 0.10260326E+00 0.20164124E+04</pdfrwt>
<totfact> 0.88686436E+00</totfact>
</mgrwt>
</event>
<event>
12    1  0.1980523E-007  0.2839782E+04  0.7818608E-02  0.8291023E-01
         -1   -1    0    0    0  501 -0.00000000000E+00  0.00000000000E+00  0.81689801877E+03  0.81689801877E+03  0.00000000000E+00 0.  1.
          1   -1    0    0  501    0  0.00000000000E+00 -0.00000000000E+00 -0.24679831318E+04  0.24679831318E+04  0.00000000000E+00 0. -1.
         23    2    1    2    0    0 -0.15233522800E+03  0.67424065717E+03 -0.19844711201E+04  0.21033670826E+04  0.90669575427E+02 0.  0.
        254    2    1    2    0    0  0.15233522800E+03 -0.67424065717E+03  0.33338600712E+03  0.11815140680E+04  0.89834446491E+03 0.  0.
        -24    2    4    4    0    0  0.32689146604E+03 -0.36907537974E+03 -0.19974492024E+03  0.53782976189E+03  0.79297875831E+02 0.  0.
         24    2    4    4    0    0 -0.17455623804E+03 -0.30516527743E+03  0.53313092736E+03  0.64368430610E+03  0.80654655299E+02 0.  0.
         13    1    3    3    0    0 -0.87049332409E+02  0.20379198792E+03 -0.59149696989E+03  0.63164659898E+03  0.00000000000E+00 0.  1.
        -13    1    3    3    0    0 -0.65285895592E+02  0.47044866925E+03 -0.13929741502E+04  0.14717204836E+04  0.00000000000E+00 0. -1.
          2    1    6    6  502    0 -0.85759555521E+02 -0.12189623769E+03  0.16045085772E+03  0.21899285803E+03  0.00000000000E+00 0. -1.
          1    1    5    5  503    0  0.20342749112E+03 -0.17506687583E+03 -0.90464534099E+02  0.28322250455E+03  0.00000000000E+00 0. -1.
         -2    1    5    5    0  503  0.12346397492E+03 -0.19400850390E+03 -0.10928038614E+03  0.25460725733E+03  0.00000000000E+00 0.  1.
         -1    1    6    6    0  502 -0.88796682517E+02 -0.18326903974E+03  0.37268006964E+03  0.42469144806E+03  0.00000000000E+00 0.  1.
<mgrwt>
<rscale>  0 0.28397821E+04</rscale>
<asrwt>0</asrwt>
<pdfrwt beam="1">  1        1 0.37968970E+00 0.28397821E+04</pdfrwt>
<pdfrwt beam="2">  1       -1 0.12567662E+00 0.28397821E+04</pdfrwt>
<totfact> 0.67894814E-01</totfact>
</mgrwt>
</event>
<event>
12    1  0.1980523E-007  0.3148960E+04  0.7818608E-02  0.8202428E-01
         -2   -1    0    0    0  501 -0.00000000000E+00  0.00000000000E+00  0.62459437404E+03  0.62459437404E+03  0.00000000000E+00 0.  1.
          2   -1    0    0  501    0  0.00000000000E+00 -0.00000000000E+00 -0.39689558841E+04  0.39689558841E+04  0.00000000000E+00 0. -1.
         23    2    1    2    0    0 -0.13769168713E+04  0.27858002616E+03 -0.10472946020E+04  0.17544049765E+04  0.87200555283E+02 0.  0.
        254    2    1    2    0    0  0.13769168713E+04 -0.27858002616E+03 -0.22970669080E+04  0.28391452816E+04  0.90040138210E+03 0.  0.
        -24    2    4    4    0    0  0.79474988135E+03  0.77572478947E+02 -0.18580845428E+04  0.20240958489E+04  0.82710182447E+02 0.  0.
         24    2    4    4    0    0  0.58216698991E+03 -0.35615250511E+03 -0.43898236528E+03  0.81504943269E+03  0.76400586845E+02 0.  0.
         13    1    3    3    0    0 -0.69273921308E+03  0.10063335368E+03 -0.49613144592E+03  0.85799831051E+03  0.00000000000E+00 0. -1.
        -13    1    3    3    0    0 -0.68417765818E+03  0.17794667248E+03 -0.55116315611E+03  0.89640666600E+03  0.00000000000E+00 0.  1.
          4    1    6    6  502    0  0.34775016661E+02 -0.94003212660E+01 -0.82028224519E+01  0.36945285489E+02  0.00000000000E+00 0. -1.
          1    1    5    5  503    0  0.36977809151E+03  0.75331899907E+01 -0.93413987765E+03  0.10046939320E+04  0.00000000000E+00 0. -1.
         -2    1    5    5    0  503  0.42497178985E+03  0.70039288956E+02 -0.92394466510E+03  0.10194019170E+04  0.00000000000E+00 0.  1.
         -3    1    6    6    0  502  0.54739197325E+03 -0.34675218384E+03 -0.43077954283E+03  0.77810414720E+03  0.00000000000E+00 0.  1.
<mgrwt>
<rscale>  0 0.31489602E+04</rscale>
<asrwt>0</asrwt>
<pdfrwt beam="1">  1        2 0.61060860E+00 0.31489602E+04</pdfrwt>
<pdfrwt beam="2">  1       -2 0.96091442E-01 0.31489602E+04</pdfrwt>
<totfact> 0.27769411E-01</totfact>
</mgrwt>
</event>
<event>
12    1  0.1980523E-007  0.3227439E+04  0.7818608E-02  0.8181608E-01
          2   -1    0    0  501    0  0.00000000000E+00  0.00000000000E+00  0.20673255429E+04  0.20673255429E+04  0.00000000000E+00 0. -1.
         -2   -1    0    0    0  501 -0.00000000000E+00 -0.00000000000E+00 -0.12596424667E+04  0.12596424667E+04  0.00000000000E+00 0.  1.
         23    2    1    2    0    0  0.48929818486E+03  0.13852044696E+04  0.60370325968E+03  0.15908815492E+04  0.90787341742E+02 0.  0.
        254    2    1    2    0    0 -0.48929818486E+03 -0.13852044696E+04  0.20397981647E+03  0.17360864604E+04  0.90232161465E+03 0.  0.
        -24    2    4    4    0    0 -0.46294302864E+03 -0.20213004927E+03  0.20219283279E+03  0.54998195510E+03  0.80158622200E+02 0.  0.
         24    2    4    4    0    0 -0.26355156216E+02 -0.11830744203E+04  0.17869836811E+01  0.11861045053E+04  0.80504819498E+02 0.  0.
         11    1    3    3    0    0  0.31959823096E+03  0.10257419453E+04  0.44103636990E+03  0.11613796310E+04  0.00000000000E+00 0. -1.
        -11    1    3    3    0    0  0.16969995390E+03  0.35946252427E+03  0.16266688978E+03  0.42950191820E+03  0.00000000000E+00 0.  1.
          4    1    6    6  502    0  0.15014862005E+02 -0.48233369232E+03  0.30753096321E+02  0.48354626434E+03  0.00000000000E+00 0. -1.
          1    1    5    5  503    0 -0.35327716286E+03 -0.16154699382E+03  0.11832910773E+03  0.40608368934E+03  0.00000000000E+00 0. -1.
         -2    1    5    5    0  503 -0.10966586579E+03 -0.40583055445E+02  0.83863725054E+02  0.14389826576E+03  0.00000000000E+00 0.  1.
         -3    1    6    6    0  502 -0.41370018222E+02 -0.70074072801E+03 -0.28966112640E+02  0.70255824099E+03  0.00000000000E+00 0.  1.
<mgrwt>
<rscale>  0 0.32274393E+04</rscale>
<asrwt>0</asrwt>
<pdfrwt beam="1">  1        2 0.31805008E+00 0.32274393E+04</pdfrwt>
<pdfrwt beam="2">  1       -2 0.19379115E+00 0.32274393E+04</pdfrwt>
<totfact> 0.75279197E-01</totfact>
</mgrwt>
</event>
<event>
12    1  0.1980523E-007  0.3599193E+04  0.7818608E-02  0.8090677E-01
          2   -1    0    0  501    0  0.00000000000E+00  0.00000000000E+00  0.39173537323E+04  0.39173537323E+04  0.00000000000E+00 0. -1.
         -2   -1    0    0    0  501 -0.00000000000E+00 -0.00000000000E+00 -0.82671807035E+03  0.82671807035E+03  0.00000000000E+00 0.  1.
         23    2    1    2    0    0 -0.11046042000E+04 -0.93961011724E+03  0.25613993263E+04  0.29448485542E+04  0.91372245647E+02 0.  0.
        254    2    1    2    0    0  0.11046042000E+04  0.93961011724E+03  0.52923633566E+03  0.17992232485E+04  0.92417292086E+03 0.  0.
        -24    2    4    4    0    0 -0.14907538632E+03  0.36785653798E+02  0.54604020935E+02  0.18103803255E+03  0.78844879325E+02 0.  0.
         24    2    4    4    0    0  0.12536795863E+04  0.90282446344E+03  0.47463231473E+03  0.16181852159E+04  0.80268560357E+02 0.  0.
         13    1    3    3    0    0 -0.40076116827E+03 -0.35523239678E+03  0.10336255691E+04  0.11641225824E+04  0.00000000000E+00 0.  1.
        -13    1    3    3    0    0 -0.70384303176E+03 -0.58437772046E+03  0.15277737572E+04  0.17807259718E+04  0.00000000000E+00 0. -1.
          4    1    6    6  502    0  0.96108269424E+03  0.71734135647E+03  0.39574125546E+03  0.12628815099E+04  0.00000000000E+00 0. -1.
          3    1    5    5  503    0 -0.15856109448E+03  0.32835062512E+02  0.54197156915E+02  0.17075448408E+03  0.00000000000E+00 0. -1.
         -4    1    5    5    0  503  0.94857081649E+01  0.39505912866E+01  0.40686401999E+00  0.10283548475E+02  0.00000000000E+00 0.  1.
         -3    1    6    6    0  502  0.29259689211E+03  0.18548310696E+03  0.78891059271E+02  0.35530370596E+03  0.00000000000E+00 0.  1.
<mgrwt>
<rscale>  0 0.35991928E+04</rscale>
<asrwt>0</asrwt>
<pdfrwt beam="1">  1        2 0.60266979E+00 0.35991928E+04</pdfrwt>
<pdfrwt beam="2">  1       -2 0.12718740E+00 0.35991928E+04</pdfrwt>
<totfact> 0.14862879E-01</totfact>
</mgrwt>
</event>
<event>
12    1  0.1980523E-007  0.1870310E+04  0.7818608E-02  0.8669778E-01
         -1   -1    0    0    0  501 -0.00000000000E+00  0.00000000000E+00  0.18810216267E+04  0.18810216267E+04  0.00000000000E+00 0.  1.
          1   -1    0    0  501    0  0.00000000000E+00 -0.00000000000E+00 -0.46491463492E+03  0.46491463492E+03  0.00000000000E+00 0. -1.
         23    2    1    2    0    0  0.23459353848E+03 -0.31629602156E+03  0.12774010073E+04  0.13395652891E+04  0.87203948944E+02 0.  0.
        254    2    1    2    0    0 -0.23459353848E+03  0.31629602156E+03  0.13870598448E+03  0.10063709725E+04  0.91567782690E+03 0.  0.
        -24    2    4    4    0    0 -0.18505119008E+03  0.44453480749E+03 -0.27778673174E+03  0.56132442567E+03  0.77874928528E+02 0.  0.
         24    2    4    4    0    0 -0.49542348394E+02 -0.12823878593E+03  0.41649271622E+03  0.44504654687E+03  0.75502421897E+02 0.  0.
         13    1    3    3    0    0  0.60924882646E+02 -0.45110649314E+02  0.34144718409E+03  0.34976133510E+03  0.00000000000E+00 0.  1.
        -13    1    3    3    0    0  0.17366865583E+03 -0.27118537225E+03  0.93595382319E+03  0.98980395397E+03  0.00000000000E+00 0. -1.
          4    1    6    6  502    0 -0.69059653452E+02 -0.10536509631E+03  0.35265582527E+03  0.37448253678E+03  0.00000000000E+00 0. -1.
          1    1    5    5  503    0 -0.53437158454E+01  0.76406466353E+02 -0.60562964124E+02  0.97644129486E+02  0.00000000000E+00 0. -1.
         -2    1    5    5    0  503 -0.17970747424E+03  0.36812834114E+03 -0.21722376762E+03  0.46368029618E+03  0.00000000000E+00 0.  1.
         -3    1    6    6    0  502  0.19517305058E+02 -0.22873689620E+02  0.63836890953E+02  0.70564010091E+02  0.00000000000E+00 0.  1.
<mgrwt>
<rscale>  0 0.18703096E+04</rscale>
<asrwt>0</asrwt>
<pdfrwt beam="1">  1        1 0.71525330E-01 0.18703096E+04</pdfrwt>
<pdfrwt beam="2">  1       -1 0.28938794E+00 0.18703096E+04</pdfrwt>
<totfact> 0.17789395E+00</totfact>
</mgrwt>
</event>
<event>
12    1  0.1980523E-007  0.2344175E+04  0.7818608E-02  0.8460704E-01
          2   -1    0    0  501    0  0.00000000000E+00  0.00000000000E+00  0.16325268544E+04  0.16325268544E+04  0.00000000000E+00 0.  1.
         -2   -1    0    0    0  501 -0.00000000000E+00 -0.00000000000E+00 -0.84151109706E+03  0.84151109706E+03  0.00000000000E+00 0. -1.
         23    2    1    2    0    0  0.93984913374E+03 -0.17529550333E+03  0.63699796690E+03  0.11524775900E+04  0.91614834273E+02 0.  0.
        254    2    1    2    0    0 -0.93984913374E+03  0.17529550333E+03  0.15401779040E+03  0.13215603615E+04  0.89930829060E+03 0.  0.
        -24    2    4    4    0    0 -0.12960806058E+03  0.42296036371E+03  0.13961681400E+03  0.47074614822E+03  0.80095959171E+02 0.  0.
         24    2    4    4    0    0 -0.81024107316E+03 -0.24766486038E+03  0.14400976408E+02  0.85081421324E+03  0.76478478245E+02 0.  0.
         13    1    3    3    0    0  0.83326587997E+02 -0.24675356771E+02  0.30028701087E+02  0.91945181428E+02  0.00000000000E+00 0. -1.
        -13    1    3    3    0    0  0.85652254574E+03 -0.15062014656E+03  0.60696926581E+03  0.10605324085E+04  0.00000000000E+00 0.  1.
          2    1    6    6  502    0 -0.74833954842E+02 -0.60568812221E+00  0.40910182962E+01  0.74948142646E+02  0.00000000000E+00 0. -1.
          1    1    5    5  503    0 -0.11027945522E+02  0.15627697271E+03  0.33593001030E+02  0.16022670658E+03  0.00000000000E+00 0. -1.
         -2    1    5    5    0  503 -0.11858011506E+03  0.26668339099E+03  0.10602381297E+03  0.31051944164E+03  0.00000000000E+00 0.  1.
         -1    1    6    6    0  502 -0.73540711832E+03 -0.24705917226E+03  0.10309958112E+02  0.77586607060E+03  0.00000000000E+00 0.  1.
<mgrwt>
<rscale>  0 0.23441753E+04</rscale>
<asrwt>0</asrwt>
<pdfrwt beam="1">  1        2 0.25115798E+00 0.23441753E+04</pdfrwt>
<pdfrwt beam="2">  1       -2 0.12946325E+00 0.23441753E+04</pdfrwt>
<totfact> 0.42405454E+00</totfact>
</mgrwt>
</event>
<event>
12    1  0.1980523E-007  0.3196629E+04  0.7818608E-02  0.8189708E-01
          1   -1    0    0  501    0  0.00000000000E+00  0.00000000000E+00  0.21888217754E+04  0.21888217754E+04  0.00000000000E+00 0. -1.
         -1   -1    0    0    0  501 -0.00000000000E+00 -0.00000000000E+00 -0.11671159162E+04  0.11671159162E+04  0.00000000000E+00 0.  1.
         23    2    1    2    0    0 -0.14541371071E+04  0.18795023259E+03  0.39306315797E+03  0.15209026583E+04  0.93841535104E+02 0.  0.
        254    2    1    2    0    0  0.14541371071E+04 -0.18795023259E+03  0.62864270114E+03  0.18350350333E+04  0.90681966861E+03 0.  0.
        -24    2    4    4    0    0  0.55357219578E+03  0.40493266784E+02  0.70334690484E+03  0.89953234272E+03  0.79872939431E+02 0.  0.
         24    2    4    4    0    0  0.90056491135E+03 -0.22844349938E+03 -0.74704203701E+02  0.93550269055E+03  0.79880999068E+02 0.  0.
         11    1    3    3    0    0 -0.66037467481E+03  0.63922491324E+02  0.13479061923E+03  0.67701499767E+03  0.00000000000E+00 0.  1.
        -11    1    3    3    0    0 -0.79376243231E+03  0.12402774127E+03  0.25827253874E+03  0.84388766066E+03  0.00000000000E+00 0. -1.
          2    1    6    6  502    0  0.65634903107E+03 -0.18644807095E+03 -0.25053456482E+02  0.68277713013E+03  0.00000000000E+00 0. -1.
          3    1    5    5  503    0  0.10959106934E+03  0.31608061309E+02  0.18093537628E+03  0.21388520849E+03  0.00000000000E+00 0. -1.
         -4    1    5    5    0  503  0.44398112644E+03  0.88852054749E+01  0.52241152856E+03  0.68564713423E+03  0.00000000000E+00 0.  1.
         -1    1    6    6    0  502  0.24421588028E+03 -0.41995428428E+02 -0.49650747220E+02  0.25272556042E+03  0.00000000000E+00 0.  1.
<mgrwt>
<rscale>  0 0.31966287E+04</rscale>
<asrwt>0</asrwt>
<pdfrwt beam="1">  1        1 0.33674181E+00 0.31966287E+04</pdfrwt>
<pdfrwt beam="2">  1       -1 0.17955629E+00 0.31966287E+04</pdfrwt>
<totfact> 0.38897328E-01</totfact>
</mgrwt>
</event>
<event>
12    1  0.1980523E-007  0.1093383E+04  0.7818608E-02  0.9211665E-01
         -2   -1    0    0    0  501 -0.00000000000E+00  0.00000000000E+00  0.10029619864E+04  0.10029619864E+04  0.00000000000E+00 0.  1.
          2   -1    0    0  501    0  0.00000000000E+00 -0.00000000000E+00 -0.29798905932E+03  0.29798905932E+03  0.00000000000E+00 0. -1.
         23    2    1    2    0    0  0.70163965913E+02 -0.10021724445E+01 -0.51099749241E+02  0.12506275080E+03  0.90030665906E+02 0.  0.
        254    2    1    2    0    0 -0.70163965913E+02  0.10021724445E+01  0.75607267629E+03  0.11758882949E+04  0.89785489014E+03 0.  0.
        -24    2    4    4    0    0  0.30602618484E+03  0.16334964035E+03  0.55296236537E+02  0.36022620372E+03  0.79812989288E+02 0.  0.
         24    2    4    4    0    0 -0.37619015075E+03 -0.16234746791E+03  0.70077643975E+03  0.81566209116E+03  0.79632270994E+02 0.  0.
         13    1    3    3    0    0 -0.10406572392E+02 -0.20531339300E+02 -0.32953295612E+02  0.40196421907E+02  0.00000000000E+00 0.  1.
        -13    1    3    3    0    0  0.80570538306E+02  0.19529166855E+02 -0.18146453628E+02  0.84866328896E+02  0.00000000000E+00 0. -1.
          2    1    6    6  502    0 -0.27607995997E+03 -0.96608115845E+02  0.55165294360E+03  0.62439910516E+03  0.00000000000E+00 0. -1.
          1    1    5    5  503    0  0.18833558087E+03  0.66625681764E+02  0.51209816533E+01  0.19983867730E+03  0.00000000000E+00 0. -1.
         -2    1    5    5    0  503  0.11769060397E+03  0.96723958589E+02  0.50175254883E+02  0.16038752642E+03  0.00000000000E+00 0.  1.
         -1    1    6    6    0  502 -0.10011019078E+03 -0.65739352064E+02  0.14912349615E+03  0.19126298600E+03  0.00000000000E+00 0.  1.
<mgrwt>
<rscale>  0 0.10933832E+04</rscale>
<asrwt>0</asrwt>
<pdfrwt beam="1">  1        2 0.45844471E-01 0.10933832E+04</pdfrwt>
<pdfrwt beam="2">  1       -2 0.15430184E+00 0.10933832E+04</pdfrwt>
<totfact> 0.30495729E+01</totfact>
</mgrwt>
</event>
<event>
12    1  0.1980523E-007  0.2049543E+04  0.7818608E-02  0.8583802E-01
         -1   -1    0    0    0  501 -0.00000000000E+00  0.00000000000E+00  0.70992043666E+03  0.70992043666E+03  0.00000000000E+00 0.  1.
          1   -1    0    0  501    0  0.00000000000E+00 -0.00000000000E+00 -0.14792589907E+04  0.14792589907E+04  0.00000000000E+00 0. -1.
         23    2    1    2    0    0  0.49718766260E+03  0.26510425733E+03  0.33260457644E+03  0.66053657207E+03  0.90592050814E+02 0.  0.
        254    2    1    2    0    0 -0.49718766260E+03 -0.26510425733E+03 -0.11019431305E+04  0.15286428553E+04  0.89721484445E+03 0.  0.
        -24    2    4    4    0    0  0.70201952015E+02  0.20984150490E+03 -0.56246816202E+03  0.60962685457E+03  0.79452484426E+02 0.  0.
         24    2    4    4    0    0 -0.56738961462E+03 -0.47494576223E+03 -0.53947496844E+03  0.91901600070E+03  0.77799203926E+02 0.  0.
         11    1    3    3    0    0  0.12973003848E+02  0.12524360922E+02  0.33040526658E+02  0.37640866716E+02  0.00000000000E+00 0.  1.
        -11    1    3    3    0    0  0.48421465875E+03  0.25257989641E+03  0.29956404978E+03  0.62289570535E+03  0.00000000000E+00 0. -1.
          2    1    6    6  502    0 -0.48820693366E+03 -0.41497386608E+03 -0.49738633031E+03  0.81113653671E+03  0.00000000000E+00 0. -1.
          1    1    5    5  503    0  0.31623521107E+02  0.18817357788E+03 -0.46123315305E+03  0.49914463232E+03  0.00000000000E+00 0. -1.
         -2    1    5    5    0  503  0.38578430908E+02  0.21667927022E+02 -0.10123500897E+03  0.11048222226E+03  0.00000000000E+00 0.  1.
         -1    1    6    6    0  502 -0.79182680954E+02 -0.59971896158E+02 -0.42088638130E+02  0.10787946399E+03  0.00000000000E+00 0.  1.
<mgrwt>
<rscale>  0 0.20495426E+04</rscale>
<asrwt>0</asrwt>
<pdfrwt beam="1">  1        1 0.22757830E+00 0.20495426E+04</pdfrwt>
<pdfrwt beam="2">  1       -1 0.10921853E+00 0.20495426E+04</pdfrwt>
<totfact> 0.48481150E+00</totfact>
</mgrwt>
</event>
<event>
12    1  0.1980523E-007  0.3367967E+04  0.7818608E-02  0.8145813E-01
          1   -1    0    0  501    0  0.00000000000E+00  0.00000000000E+00  0.13237365819E+04  0.13237365819E+04  0.00000000000E+00 0. -1.
         -1   -1    0    0    0  501 -0.00000000000E+00 -0.00000000000E+00 -0.21422694859E+04  0.21422694859E+04  0.00000000000E+00 0.  1.
         23    2    1    2    0    0  0.81878672932E+03 -0.12863842569E+04 -0.73702429010E+03  0.16960255934E+04  0.90010248399E+02 0.  0.
        254    2    1    2    0    0 -0.81878672932E+03  0.12863842569E+04 -0.81508613838E+02  0.17699804744E+04  0.89498103960E+03 0.  0.
        -24    2    4    4    0    0 -0.45182311072E+03  0.76376723213E+03  0.38996421011E+03  0.97221713139E+03  0.75163536053E+02 0.  0.
         24    2    4    4    0    0 -0.36696361860E+03  0.52261702475E+03 -0.47147282395E+03  0.79776334303E+03  0.79679833211E+02 0.  0.
         13    1    3    3    0    0  0.39723270795E+03 -0.70702544818E+03 -0.38479747610E+03  0.89763461734E+03  0.00000000000E+00 0.  1.
        -13    1    3    3    0    0  0.42155402137E+03 -0.57935880869E+03 -0.35222681401E+03  0.79839097605E+03  0.00000000000E+00 0. -1.
          2    1    6    6  502    0 -0.32180998120E+02  0.92383659734E+02 -0.59994881708E+02  0.11475950094E+03  0.00000000000E+00 0. -1.
          3    1    5    5  503    0 -0.39226818838E+02  0.81465475852E+02  0.64163819154E+02  0.11087092838E+03  0.00000000000E+00 0. -1.
         -4    1    5    5    0  503 -0.41259629188E+03  0.68230175627E+03  0.32580039096E+03  0.86134620301E+03  0.00000000000E+00 0.  1.
         -1    1    6    6    0  502 -0.33478262048E+03  0.43023336501E+03 -0.41147794224E+03  0.68300384208E+03  0.00000000000E+00 0.  1.
<mgrwt>
<rscale>  0 0.33679670E+04</rscale>
<asrwt>0</asrwt>
<pdfrwt beam="1">  1        1 0.20365178E+00 0.33679670E+04</pdfrwt>
<pdfrwt beam="2">  1       -1 0.32957992E+00 0.33679670E+04</pdfrwt>
<totfact> 0.15198408E-01</totfact>
</mgrwt>
</event>
<event>
12    1  0.1980523E-007  0.2495148E+04  0.7818608E-02  0.8404716E-01
          2   -1    0    0  501    0  0.00000000000E+00  0.00000000000E+00  0.12876069534E+04  0.12876069534E+04  0.00000000000E+00 0. -1.
         -2   -1    0    0    0  501 -0.00000000000E+00 -0.00000000000E+00 -0.12087860626E+04  0.12087860626E+04  0.00000000000E+00 0.  1.
         23    2    1    2    0    0  0.48655414858E+03 -0.96543836380E+03  0.92837200035E+02  0.10898472692E+04  0.10169636556E+03 0.  0.
        254    2    1    2    0    0 -0.48655414858E+03  0.96543836380E+03 -0.14016309292E+02  0.14065457468E+04  0.89964899105E+03 0.  0.
        -24    2    4    4    0    0 -0.48616301621E+03  0.14396909714E+03  0.20452649197E+03  0.55272679924E+03  0.81204983951E+02 0.  0.
         24    2    4    4    0    0 -0.39113236917E+00  0.82146926666E+03 -0.21854280127E+03  0.85381894755E+03  0.80211783197E+02 0.  0.
         11    1    3    3    0    0  0.49836939228E+02 -0.17993326745E+03  0.43521318315E+01  0.18675824559E+03  0.00000000000E+00 0.  1.
        -11    1    3    3    0    0  0.43671720935E+03 -0.78550509635E+03  0.88485068203E+02  0.90308902365E+03  0.00000000000E+00 0. -1.
          2    1    6    6  502    0 -0.26697419925E+02  0.63416840926E+03 -0.18985988305E+03  0.66251724410E+03  0.00000000000E+00 0. -1.
          1    1    5    5  503    0 -0.93617685040E+02  0.28663056730E+02  0.75810844302E+02  0.12382699983E+03  0.00000000000E+00 0. -1.
         -2    1    5    5    0  503 -0.39254533117E+03  0.11530604041E+03  0.12871564767E+03  0.42889979941E+03  0.00000000000E+00 0.  1.
         -1    1    6    6    0  502  0.26306287556E+02  0.18730085739E+03 -0.28682918215E+02  0.19130170345E+03  0.00000000000E+00 0.  1.
<mgrwt>
<rscale>  0 0.24951484E+04</rscale>
<asrwt>0</asrwt>
<pdfrwt beam="1">  1        2 0.19809338E+00 0.24951484E+04</pdfrwt>
<pdfrwt beam="2">  1       -2 0.18596709E+00 0.24951484E+04</pdfrwt>
<totfact> 0.24753039E+00</totfact>
</mgrwt>
</event>
<event>
12    1  0.1980523E-007  0.2007872E+04  0.7818608E-02  0.8602949E-01
         -2   -1    0    0    0  501 -0.00000000000E+00  0.00000000000E+00  0.73539983261E+03  0.73539983261E+03  0.00000000000E+00 0.  1.
          2   -1    0    0  501    0  0.00000000000E+00 -0.00000000000E+00 -0.13705295067E+04  0.13705295067E+04  0.00000000000E+00 0. -1.
         23    2    1    2    0    0  0.49525326068E+03 -0.62799155211E+03 -0.24742615950E+03  0.84239019054E+03  0.93553978920E+02 0.  0.
        254    2    1    2    0    0 -0.49525326068E+03  0.62799155211E+03 -0.38770351462E+03  0.12635391488E+04  0.89809130023E+03 0.  0.
        -24    2    4    4    0    0 -0.46052688526E+03 -0.86241056661E+02 -0.90880720886E+02  0.48420146249E+03  0.81665286081E+02 0.  0.
         24    2    4    4    0    0 -0.34726375423E+02  0.71423260878E+03 -0.29682279374E+03  0.77933768631E+03  0.89046717099E+02 0.  0.
         13    1    3    3    0    0  0.58022174653E+02 -0.55153098722E+02 -0.52932604743E+02  0.95970295899E+02  0.00000000000E+00 0. -1.
        -13    1    3    3    0    0  0.43723108603E+03 -0.57283845339E+03 -0.19449355475E+03  0.74641989464E+03  0.00000000000E+00 0.  1.
          2    1    6    6  502    0 -0.14928199863E+02  0.29367364015E+03 -0.75067228978E+02  0.30348335529E+03  0.00000000000E+00 0. -1.
          1    1    5    5  503    0 -0.29867228370E+03 -0.93244589124E+02 -0.47374943881E+02  0.31645548148E+03  0.00000000000E+00 0. -1.
         -2    1    5    5    0  503 -0.16185460156E+03  0.70035324628E+01 -0.43505777005E+02  0.16774598101E+03  0.00000000000E+00 0.  1.
         -1    1    6    6    0  502 -0.19798175560E+02  0.42055896862E+03 -0.22175556476E+03  0.47585433102E+03  0.00000000000E+00 0.  1.
<mgrwt>
<rscale>  0 0.20078717E+04</rscale>
<asrwt>0</asrwt>
<pdfrwt beam="1">  1        2 0.21085069E+00 0.20078717E+04</pdfrwt>
<pdfrwt beam="2">  1       -2 0.11313844E+00 0.20078717E+04</pdfrwt>
<totfact> 0.85733133E+00</totfact>
</mgrwt>
</event>
<event>
12    1  0.1980523E-007  0.2267554E+04  0.7818608E-02  0.8490825E-01
         -2   -1    0    0    0  501 -0.00000000000E+00  0.00000000000E+00  0.76341601998E+03  0.76341601998E+03  0.00000000000E+00 0.  1.
          2   -1    0    0  501    0  0.00000000000E+00 -0.00000000000E+00 -0.16838140950E+04  0.16838140950E+04  0.00000000000E+00 0. -1.
         23    2    1    2    0    0  0.27683281582E+03 -0.86084569465E+03 -0.62311444107E+02  0.91101390968E+03  0.91498140174E+02 0.  0.
        254    2    1    2    0    0 -0.27683281582E+03  0.86084569465E+03 -0.85808663090E+03  0.15362162053E+04  0.89775043600E+03 0.  0.
        -24    2    4    4    0    0 -0.22983012992E+03 -0.78980903563E+02 -0.42741105808E+03  0.49825962006E+03  0.80762396352E+02 0.  0.
         24    2    4    4    0    0 -0.47002685894E+02  0.93982659821E+03 -0.43067557282E+03  0.10379565852E+04  0.79932074874E+02 0.  0.
         11    1    3    3    0    0  0.28392198307E+03 -0.84708022997E+03 -0.61110287036E+02  0.89548371044E+03  0.00000000000E+00 0.  1.
        -11    1    3    3    0    0 -0.70891672554E+01 -0.13765464681E+02 -0.12011570712E+01  0.15530199244E+02  0.00000000000E+00 0. -1.
          2    1    6    6  502    0 -0.61645691117E+02  0.70710625411E+03 -0.29927938353E+03  0.77030357343E+03  0.00000000000E+00 0. -1.
          3    1    5    5  503    0 -0.22991570216E+03 -0.77737083644E+02 -0.43090287989E+03  0.49455189432E+03  0.00000000000E+00 0. -1.
         -4    1    5    5    0  503  0.85572241731E-01 -0.12438199196E+01  0.34918218118E+01  0.37077257405E+01  0.00000000000E+00 0.  1.
         -1    1    6    6    0  502  0.14643005223E+02  0.23272034411E+03 -0.13139618929E+03  0.26765301179E+03  0.00000000000E+00 0.  1.
<mgrwt>
<rscale>  0 0.22675543E+04</rscale>
<asrwt>0</asrwt>
<pdfrwt beam="1">  1        2 0.25904832E+00 0.22675543E+04</pdfrwt>
<pdfrwt beam="2">  1       -2 0.11744862E+00 0.22675543E+04</pdfrwt>
<totfact> 0.50974268E+00</totfact>
</mgrwt>
</event>
<event>
12    1  0.1980523E-007  0.1999694E+04  0.7818608E-02  0.8606764E-01
         -2   -1    0    0    0  501 -0.00000000000E+00  0.00000000000E+00  0.81055983665E+03  0.81055983665E+03  0.00000000000E+00 0. -1.
          2   -1    0    0  501    0  0.00000000000E+00 -0.00000000000E+00 -0.12333382275E+04  0.12333382275E+04  0.00000000000E+00 0.  1.
         23    2    1    2    0    0  0.11558880815E+03  0.42850498402E+03  0.50326859749E+03  0.67720613848E+03  0.91386973271E+02 0.  0.
        254    2    1    2    0    0 -0.11558880815E+03 -0.42850498402E+03 -0.92604698832E+03  0.13666919257E+04  0.90183507426E+03 0.  0.
        -24    2    4    4    0    0  0.88402200716E+02 -0.11772084893E+03 -0.96940353665E+03  0.98378396157E+03  0.80090691069E+02 0.  0.
         24    2    4    4    0    0 -0.20399100886E+03 -0.31078413509E+03  0.43356548335E+02  0.38290796408E+03  0.80867845010E+02 0.  0.
         11    1    3    3    0    0  0.57412231847E+01  0.16194949656E+03  0.14599649175E+03  0.21811826306E+03  0.00000000000E+00 0. -1.
        -11    1    3    3    0    0  0.10984758496E+03  0.26655548746E+03  0.35727210574E+03  0.45908787542E+03  0.00000000000E+00 0.  1.
          4    1    6    6  502    0 -0.18267617444E+03 -0.30292799408E+03  0.26724528562E+02  0.35475365358E+03  0.00000000000E+00 0. -1.
          3    1    5    5  503    0  0.96491387634E+02 -0.82937680326E+02 -0.83841307066E+03  0.84801280873E+03  0.00000000000E+00 0. -1.
         -4    1    5    5    0  503 -0.80891869175E+01 -0.34783168609E+02 -0.13099046599E+03  0.13577115284E+03  0.00000000000E+00 0.  1.
         -3    1    6    6    0  502 -0.21314834426E+02 -0.78561410113E+01  0.16632019773E+02  0.28154310504E+02  0.00000000000E+00 0.  1.
<mgrwt>
<rscale>  0 0.19996944E+04</rscale>
<asrwt>0</asrwt>
<pdfrwt beam="1">  1        2 0.18974434E+00 0.19996944E+04</pdfrwt>
<pdfrwt beam="2">  1       -2 0.12470151E+00 0.19996944E+04</pdfrwt>
<totfact> 0.81103301E+00</totfact>
</mgrwt>
</event>
<event>
12    1  0.1980523E-007  0.1890088E+04  0.7818608E-02  0.8659806E-01
         -2   -1    0    0    0  501 -0.00000000000E+00  0.00000000000E+00  0.19327268954E+04  0.19327268954E+04  0.00000000000E+00 0.  1.
          2   -1    0    0  501    0  0.00000000000E+00 -0.00000000000E+00 -0.46209768520E+03  0.46209768520E+03  0.00000000000E+00 0. -1.
         23    2    1    2    0    0  0.42461010206E+03  0.52283913163E+03  0.91976228431E+03  0.11434458108E+04  0.88606806878E+02 0.  0.
        254    2    1    2    0    0 -0.42461010206E+03 -0.52283913163E+03  0.55086692588E+03  0.12513787698E+04  0.89935530197E+03 0.  0.
        -24    2    4    4    0    0  0.11249406221E+03 -0.28261326357E+03  0.57643123827E+03  0.65704713890E+03  0.83143246900E+02 0.  0.
         24    2    4    4    0    0 -0.53710416427E+03 -0.24022586806E+03 -0.25564312391E+02  0.59433163091E+03  0.79919975435E+02 0.  0.
         11    1    3    3    0    0  0.18297199391E+03  0.16289720066E+03  0.35962760415E+03  0.43513935952E+03  0.00000000000E+00 0. -1.
        -11    1    3    3    0    0  0.24163810815E+03  0.35994193097E+03  0.56013468015E+03  0.70830645126E+03  0.00000000000E+00 0.  1.
          2    1    6    6  502    0 -0.31798219397E+03 -0.18441387246E+03 -0.20418155338E+02  0.36815493084E+03  0.00000000000E+00 0. -1.
          3    1    5    5  503    0  0.10493223887E+03 -0.27040698405E+03  0.57308124806E+03  0.64230275467E+03  0.00000000000E+00 0. -1.
         -4    1    5    5    0  503  0.75618233390E+01 -0.12206279526E+02  0.33499902131E+01  0.14744384236E+02  0.00000000000E+00 0.  1.
         -1    1    6    6    0  502 -0.21912197030E+03 -0.55811995599E+02 -0.51461570530E+01  0.22617670007E+03  0.00000000000E+00 0.  1.
<mgrwt>
<rscale>  0 0.18900885E+04</rscale>
<asrwt>0</asrwt>
<pdfrwt beam="1">  1        2 0.71091953E-01 0.18900885E+04</pdfrwt>
<pdfrwt beam="2">  1       -2 0.29734259E+00 0.18900885E+04</pdfrwt>
<totfact> 0.20891140E+00</totfact>
</mgrwt>
</event>
<event>
12    1  0.1980523E-007  0.1954069E+04  0.7818608E-02  0.8628401E-01
         -1   -1    0    0    0  501 -0.00000000000E+00  0.00000000000E+00  0.13009612905E+04  0.13009612905E+04  0.00000000000E+00 0.  1.
          1   -1    0    0  501    0  0.00000000000E+00 -0.00000000000E+00 -0.73376269390E+03  0.73376269390E+03  0.00000000000E+00 0. -1.
         23    2    1    2    0    0  0.61910249323E+03 -0.44518912494E+03  0.22541934501E+03  0.80542755459E+03  0.12813434551E+03 0.  0.
        254    2    1    2    0    0 -0.61910249323E+03  0.44518912494E+03  0.34177925160E+03  0.12292964298E+04  0.90159603008E+03 0.  0.
        -24    2    4    4    0    0 -0.60668329504E+03  0.35955455049E+03 -0.14825357892E+03  0.72590488415E+03  0.87262144792E+02 0.  0.
         24    2    4    4    0    0 -0.12419198195E+02  0.85634574442E+02  0.49003283052E+03  0.50339154567E+03  0.76048382262E+02 0.  0.
         11    1    3    3    0    0  0.51755316473E+03 -0.35329339378E+03  0.13412854181E+03  0.64083380540E+03  0.00000000000E+00 0. -1.
        -11    1    3    3    0    0  0.10154932850E+03 -0.91895731159E+02  0.91290803204E+02  0.16459374919E+03  0.00000000000E+00 0.  1.
          4    1    6    6  502    0 -0.46310391435E+01  0.88700050380E+02  0.48609238044E+03  0.49414061540E+03  0.00000000000E+00 0. -1.
          3    1    5    5  503    0 -0.56082673658E+03  0.34218111676E+03 -0.15846679889E+03  0.67581526431E+03  0.00000000000E+00 0. -1.
         -4    1    5    5    0  503 -0.45856558459E+02  0.17373433739E+02  0.10213219971E+02  0.50089619840E+02  0.00000000000E+00 0.  1.
         -3    1    6    6    0  502 -0.77881590516E+01 -0.30654759383E+01  0.39404500751E+01  0.92509302741E+01  0.00000000000E+00 0.  1.
<mgrwt>
<rscale>  0 0.19540695E+04</rscale>
<asrwt>0</asrwt>
<pdfrwt beam="1">  1        1 0.11288657E+00 0.19540695E+04</pdfrwt>
<pdfrwt beam="2">  1       -1 0.20014789E+00 0.19540695E+04</pdfrwt>
<totfact> 0.35432165E+00</totfact>
</mgrwt>
</event>
<event>
12    1  0.1980523E-007  0.3644081E+04  0.7818608E-02  0.8080468E-01
          1   -1    0    0  501    0  0.00000000000E+00  0.00000000000E+00  0.21897162106E+04  0.21897162106E+04  0.00000000000E+00 0.  1.
         -1   -1    0    0    0  501 -0.00000000000E+00 -0.00000000000E+00 -0.15161015491E+04  0.15161015491E+04  0.00000000000E+00 0. -1.
         23    2    1    2    0    0  0.36600867165E+03  0.16601343811E+04  0.49820343096E+03  0.17740579475E+04  0.95217810757E+02 0.  0.
        254    2    1    2    0    0 -0.36600867165E+03 -0.16601343811E+04  0.17541123054E+03  0.19317598121E+04  0.90051005603E+03 0.  0.
        -24    2    4    4    0    0 -0.50671818288E+03 -0.10160232298E+04  0.43546004174E+03  0.12186483864E+04  0.80074474043E+02 0.  0.
         24    2    4    4    0    0  0.14070951123E+03 -0.64411115123E+03 -0.26004881120E+03  0.71311142569E+03  0.78893469622E+02 0.  0.
         13    1    3    3    0    0  0.17638675313E+03  0.90996870966E+03  0.22867007084E+03  0.95469646513E+03  0.00000000000E+00 0. -1.
        -13    1    3    3    0    0  0.18962191852E+03  0.75016567140E+03  0.26953336013E+03  0.81936148235E+03  0.00000000000E+00 0.  1.
          2    1    6    6  502    0  0.72441248653E+02 -0.22046051324E+03 -0.60188676952E+02  0.23973579048E+03  0.00000000000E+00 0. -1.
          1    1    5    5  503    0 -0.12486248395E+03 -0.24142759281E+03  0.68431507583E+02  0.28028698453E+03  0.00000000000E+00 0. -1.
         -2    1    5    5    0  503 -0.38185569893E+03 -0.77459563702E+03  0.36702853415E+03  0.93836140190E+03  0.00000000000E+00 0.  1.
         -1    1    6    6    0  502  0.68268262577E+02 -0.42365063800E+03 -0.19986013425E+03  0.47337563521E+03  0.00000000000E+00 0.  1.
<mgrwt>
<rscale>  0 0.36440813E+04</rscale>
<asrwt>0</asrwt>
<pdfrwt beam="1">  1        1 0.33687942E+00 0.36440813E+04</pdfrwt>
<pdfrwt beam="2">  1       -1 0.23324639E+00 0.36440813E+04</pdfrwt>
<totfact> 0.16032918E-01</totfact>
</mgrwt>
</event>
<event>
12    1  0.1980523E-007  0.1165084E+04  0.7818608E-02  0.9143979E-01
         -1   -1    0    0    0  501 -0.00000000000E+00  0.00000000000E+00  0.44257329784E+03  0.44257329784E+03  0.00000000000E+00 0.  1.
          1   -1    0    0  501    0  0.00000000000E+00 -0.00000000000E+00 -0.76677752368E+03  0.76677752368E+03  0.00000000000E+00 0. -1.
         23    2    1    2    0    0 -0.19684979254E+03  0.96708147798E+02 -0.41794131018E+02  0.24099077665E+03  0.90705558635E+02 0.  0.
        254    2    1    2    0    0  0.19684979254E+03 -0.96708147798E+02 -0.28241009482E+03  0.96836004488E+03  0.89992411246E+03 0.  0.
        -24    2    4    4    0    0  0.31807337682E+02 -0.24960351954E+03  0.26344887211E+03  0.37263780447E+03  0.78358161103E+02 0.  0.
         24    2    4    4    0    0  0.16504245486E+03  0.15289537174E+03 -0.54585896693E+03  0.59572224040E+03  0.79416429810E+02 0.  0.
         13    1    3    3    0    0 -0.74287466062E+02 -0.90362037575E+01 -0.50954593667E+01  0.75008294864E+02  0.00000000000E+00 0.  1.
        -13    1    3    3    0    0 -0.12256232648E+03  0.10574435156E+03 -0.36698671651E+02  0.16598248178E+03  0.00000000000E+00 0. -1.
          4    1    6    6  502    0  0.12411737987E+03  0.87289656676E+02 -0.27550115458E+03  0.31452423487E+03  0.00000000000E+00 0. -1.
          3    1    5    5  503    0 -0.54002179971E+01 -0.19621233550E+03  0.21749051252E+03  0.29296854096E+03  0.00000000000E+00 0. -1.
         -4    1    5    5    0  503  0.37207555679E+02 -0.53391184041E+02  0.45958359592E+02  0.79669263516E+02  0.00000000000E+00 0.  1.
         -3    1    6    6    0  502  0.40925074985E+02  0.65605715063E+02 -0.27035781236E+03  0.28119800553E+03  0.00000000000E+00 0.  1.
<mgrwt>
<rscale>  0 0.11650841E+04</rscale>
<asrwt>0</asrwt>
<pdfrwt beam="1">  1        1 0.11796577E+00 0.11650841E+04</pdfrwt>
<pdfrwt beam="2">  1       -1 0.68088200E-01 0.11650841E+04</pdfrwt>
<totfact> 0.51268062E+01</totfact>
</mgrwt>
</event>
<event>
12    1  0.2013570E-007  0.2811056E+04  0.7818608E-02  0.8299844E-01
          2   -1    0    0  501    0  0.00000000000E+00  0.00000000000E+00  0.13945727293E+04  0.13945727293E+04  0.00000000000E+00 0. -1.
         -2   -1    0    0    0  501 -0.00000000000E+00 -0.00000000000E+00 -0.14165691114E+04  0.14165691114E+04  0.00000000000E+00 0.  1.
         23    2    1    2    0    0  0.89543257423E+03 -0.14332346764E+03 -0.88350417512E+03  0.12693896141E+04  0.91810966448E+02 0.  0.
        254    2    1    2    0    0 -0.89543257423E+03  0.14332346764E+03  0.86150779302E+03  0.15417522265E+04  0.90136737191E+03 0.  0.
        -24    2    4    4    0    0  0.17510826459E+03  0.97172865709E+01  0.95860178901E+02  0.21631721534E+03  0.82744388129E+02 0.  0.
         24    2    4    4    0    0 -0.10705408388E+04  0.13360618107E+03  0.76564761412E+03  0.13254350112E+04  0.81568380189E+02 0.  0.
         13    1    3    3    0    0  0.51831776055E+03 -0.86983176447E+02 -0.44843562498E+03  0.69087906585E+03  0.00000000000E+00 0. -1.
        -13    1    3    3    0    0  0.37711481369E+03 -0.56340291194E+02 -0.43506855014E+03  0.57851054825E+03  0.00000000000E+00 0.  1.
          4    1    6    6  502    0 -0.32593243756E+03  0.14816400182E+02  0.26511520516E+03  0.42040165506E+03  0.00000000000E+00 0. -1.
          3    1    5    5  503    0  0.82616498114E+02  0.38137038138E+02  0.19509428216E+02  0.93062007435E+02  0.00000000000E+00 0. -1.
         -4    1    5    5    0  503  0.92491766474E+02 -0.28419751567E+02  0.76350750685E+02  0.12325520790E+03  0.00000000000E+00 0.  1.
         -3    1    6    6    0  502 -0.74460840126E+03  0.11878978089E+03  0.50053240896E+03  0.90503335612E+03  0.00000000000E+00 0.  1.
<mgrwt>
<rscale>  0 0.28110558E+04</rscale>
<asrwt>0</asrwt>
<pdfrwt beam="1">  1        2 0.21454965E+00 0.28110558E+04</pdfrwt>
<pdfrwt beam="2">  1       -2 0.21793371E+00 0.28110558E+04</pdfrwt>
<totfact> 0.12908061E+00</totfact>
</mgrwt>
</event>
<event>
12    1  0.1980523E-007  0.1420483E+04  0.7818608E-02  0.8939124E-01
         -2   -1    0    0    0  501 -0.00000000000E+00  0.00000000000E+00  0.62571223250E+03  0.62571223250E+03  0.00000000000E+00 0.  1.
          2   -1    0    0  501    0  0.00000000000E+00 -0.00000000000E+00 -0.80618996636E+03  0.80618996636E+03  0.00000000000E+00 0. -1.
         23    2    1    2    0    0  0.38334082738E+03  0.10153227880E+03 -0.16823150169E+03  0.44035302610E+03  0.91378092853E+02 0.  0.
        254    2    1    2    0    0 -0.38334082738E+03 -0.10153227880E+03 -0.12246232170E+02  0.99154917277E+03  0.90871381537E+03 0.  0.
        -24    2    4    4    0    0 -0.12924485371E+03 -0.21955629940E+03  0.40374919030E+03  0.48375644294E+03  0.78087685346E+02 0.  0.
         24    2    4    4    0    0 -0.25409597368E+03  0.11802402060E+03 -0.41599542247E+03  0.50779272983E+03  0.79415563144E+02 0.  0.
         11    1    3    3    0    0  0.33126409410E+03  0.57572399586E+02 -0.15776725691E+03  0.37140407724E+03  0.00000000000E+00 0.  1.
        -11    1    3    3    0    0  0.52076733278E+02  0.43959879214E+02 -0.10464244778E+02  0.68948948855E+02  0.00000000000E+00 0. -1.
          4    1    6    6  502    0 -0.16769401619E+02  0.34243939949E+02 -0.73084061204E+02  0.82432640720E+02  0.00000000000E+00 0. -1.
          3    1    5    5  503    0 -0.74422190767E+02 -0.81969779797E+02  0.11738837501E+03  0.16136213269E+03  0.00000000000E+00 0. -1.
         -4    1    5    5    0  503 -0.54822662938E+02 -0.13758651961E+03  0.28636081530E+03  0.32239431026E+03  0.00000000000E+00 0.  1.
         -3    1    6    6    0  502 -0.23732657206E+03  0.83780080654E+02 -0.34291136127E+03  0.42536008911E+03  0.00000000000E+00 0.  1.
<mgrwt>
<rscale>  0 0.14204829E+04</rscale>
<asrwt>0</asrwt>
<pdfrwt beam="1">  1        2 0.12402923E+00 0.14204829E+04</pdfrwt>
<pdfrwt beam="2">  1       -2 0.96263421E-01 0.14204829E+04</pdfrwt>
<totfact> 0.29948207E+01</totfact>
</mgrwt>
</event>
<event>
12    1  0.1980523E-007  0.1686559E+04  0.7818608E-02  0.8769067E-01
         -2   -1    0    0    0  501 -0.00000000000E+00  0.00000000000E+00  0.38830093754E+03  0.38830093754E+03  0.00000000000E+00 0.  1.
          2   -1    0    0  501    0  0.00000000000E+00 -0.00000000000E+00 -0.18313644341E+04  0.18313644341E+04  0.00000000000E+00 0. -1.
         23    2    1    2    0    0 -0.79345796276E+02 -0.54916714849E+03 -0.22145502168E+03  0.60439511783E+03  0.91492182507E+02 0.  0.
        254    2    1    2    0    0  0.79345796276E+02  0.54916714849E+03 -0.12216084748E+04  0.16152702538E+04  0.89938335237E+03 0.  0.
        -24    2    4    4    0    0  0.26525355752E+03  0.56239490370E+03 -0.34484300227E+03  0.71544988449E+03  0.79400022100E+02 0.  0.
         24    2    4    4    0    0 -0.18590776125E+03 -0.13227755210E+02 -0.87676547257E+03  0.89982036927E+03  0.78881771465E+02 0.  0.
         11    1    3    3    0    0 -0.17433359005E+02 -0.39607577118E+03 -0.17058572948E+03  0.43160100744E+03  0.00000000000E+00 0.  1.
        -11    1    3    3    0    0 -0.61912437271E+02 -0.15309137732E+03 -0.50869292197E+02  0.17279411039E+03  0.00000000000E+00 0. -1.
          2    1    6    6  502    0 -0.54837511124E+02  0.32101777040E+02 -0.25948082345E+03  0.26714785130E+03  0.00000000000E+00 0. -1.
          3    1    5    5  503    0  0.25399769614E+02  0.32806082691E+02 -0.45364570833E+02  0.61476268956E+02  0.00000000000E+00 0. -1.
         -4    1    5    5    0  503  0.23985378791E+03  0.52958882101E+03 -0.29947843144E+03  0.65397361553E+03  0.00000000000E+00 0.  1.
         -1    1    6    6    0  502 -0.13107025012E+03 -0.45329532250E+02 -0.61728464912E+03  0.63267251798E+03  0.00000000000E+00 0.  1.
<mgrwt>
<rscale>  0 0.16865593E+04</rscale>
<asrwt>0</asrwt>
<pdfrwt beam="1">  1        2 0.28174838E+00 0.16865593E+04</pdfrwt>
<pdfrwt beam="2">  1       -2 0.59738605E-01 0.16865593E+04</pdfrwt>
<totfact> 0.20639555E+01</totfact>
</mgrwt>
</event>
<event>
12    1  0.1980523E-007  0.2340311E+04  0.7818608E-02  0.8462194E-01
          1   -1    0    0  501    0  0.00000000000E+00  0.00000000000E+00  0.95008742308E+03  0.95008742308E+03  0.00000000000E+00 0. -1.
         -1   -1    0    0    0  501 -0.00000000000E+00 -0.00000000000E+00 -0.14411980019E+04  0.14411980019E+04  0.00000000000E+00 0.  1.
         23    2    1    2    0    0  0.48565867528E+03  0.46532146211E+03 -0.96172150103E+03  0.11765583791E+04  0.83623930856E+02 0.  0.
        254    2    1    2    0    0 -0.48565867528E+03 -0.46532146211E+03  0.47061092219E+03  0.12147270459E+04  0.89537631423E+03 0.  0.
        -24    2    4    4    0    0 -0.14201969584E+03 -0.58627207250E+03 -0.69052104398E+01  0.60851186408E+03  0.79714928290E+02 0.  0.
         24    2    4    4    0    0 -0.34363897944E+03  0.12095061039E+03  0.47751613263E+03  0.60621518186E+03  0.82209436550E+02 0.  0.
         13    1    3    3    0    0  0.61732203742E+02  0.40150819685E+02 -0.14799772598E+03  0.16530662478E+03  0.00000000000E+00 0.  1.
        -13    1    3    3    0    0  0.42392647154E+03  0.42517064242E+03 -0.81372377504E+03  0.10112517543E+04  0.00000000000E+00 0. -1.
          2    1    6    6  502    0 -0.11885010180E+03  0.20366846807E+02  0.21331346875E+03  0.24503630567E+03  0.00000000000E+00 0. -1.
          1    1    5    5  503    0 -0.15117777887E+03 -0.53091158797E+03 -0.12189574494E+02  0.55215072289E+03  0.00000000000E+00 0. -1.
         -2    1    5    5    0  503  0.91580830300E+01 -0.55360484527E+02  0.52843640544E+01  0.56361141182E+02  0.00000000000E+00 0.  1.
         -1    1    6    6    0  502 -0.22478887764E+03  0.10058376358E+03  0.26420266388E+03  0.36117887619E+03  0.00000000000E+00 0.  1.
<mgrwt>
<rscale>  0 0.23403112E+04</rscale>
<asrwt>0</asrwt>
<pdfrwt beam="1">  1        1 0.14616730E+00 0.23403112E+04</pdfrwt>
<pdfrwt beam="2">  1       -1 0.22172277E+00 0.23403112E+04</pdfrwt>
<totfact> 0.15995955E+00</totfact>
</mgrwt>
</event>
<event>
12    1  0.1980523E-007  0.3305484E+04  0.7818608E-02  0.8161501E-01
         -1   -1    0    0    0  501 -0.00000000000E+00  0.00000000000E+00  0.22297847642E+04  0.22297847642E+04  0.00000000000E+00 0.  1.
          1   -1    0    0  501    0  0.00000000000E+00 -0.00000000000E+00 -0.12250310891E+04  0.12250310891E+04  0.00000000000E+00 0. -1.
         23    2    1    2    0    0  0.90177526964E+03 -0.39268902083E+03  0.16892443966E+04  0.19568016329E+04  0.90125996993E+02 0.  0.
        254    2    1    2    0    0 -0.90177526964E+03  0.39268902083E+03 -0.68449072144E+03  0.14980142203E+04  0.89895258639E+03 0.  0.
        -24    2    4    4    0    0  0.15381255095E+03 -0.34581734237E+02 -0.21451860451E+02  0.17781526883E+03  0.79397042388E+02 0.  0.
         24    2    4    4    0    0 -0.10555878206E+04  0.42727075507E+03 -0.66303886099E+03  0.13201989515E+04  0.80490963790E+02 0.  0.
         13    1    3    3    0    0  0.35157995099E+03 -0.13443182964E+03  0.56755718402E+03  0.68102976138E+03  0.00000000000E+00 0. -1.
        -13    1    3    3    0    0  0.55019531865E+03 -0.25825719119E+03  0.11216872125E+04  0.12757718715E+04  0.00000000000E+00 0.  1.
          4    1    6    6  502    0 -0.36268614165E+02  0.31793483617E+02 -0.30335216611E+02  0.56977744259E+02  0.00000000000E+00 0. -1.
          1    1    5    5  503    0  0.61035563240E+02 -0.15947206050E+02 -0.48298789455E+02  0.79450779881E+02  0.00000000000E+00 0. -1.
         -2    1    5    5    0  503  0.92776987714E+02 -0.18634528187E+02  0.26846929005E+02  0.98364488953E+02  0.00000000000E+00 0.  1.
         -3    1    6    6    0  502 -0.10193192064E+04  0.39547727145E+03 -0.63270364438E+03  0.12632212072E+04  0.00000000000E+00 0.  1.
<mgrwt>
<rscale>  0 0.33054837E+04</rscale>
<asrwt>0</asrwt>
<pdfrwt beam="1">  1        1 0.18846632E+00 0.33054837E+04</pdfrwt>
<pdfrwt beam="2">  1       -1 0.34304381E+00 0.33054837E+04</pdfrwt>
<totfact> 0.14671582E-01</totfact>
</mgrwt>
</event>
<event>
12    1  0.1980523E-007  0.1197090E+04  0.7818608E-02  0.9115407E-01
          2   -1    0    0  501    0  0.00000000000E+00  0.00000000000E+00  0.14751756736E+04  0.14751756736E+04  0.00000000000E+00 0. -1.
         -2   -1    0    0    0  501 -0.00000000000E+00 -0.00000000000E+00 -0.24285661462E+03  0.24285661462E+03  0.00000000000E+00 0.  1.
         23    2    1    2    0    0  0.46436881890E+02 -0.23188142800E+03  0.33722435385E+03  0.42691540746E+03  0.11229924154E+03 0.  0.
        254    2    1    2    0    0 -0.46436881890E+02  0.23188142800E+03  0.89509470516E+03  0.12911168808E+04  0.89992382345E+03 0.  0.
        -24    2    4    4    0    0 -0.56047226135E+02  0.45687412725E+03  0.93780056067E+03  0.10481863642E+04  0.85729241130E+02 0.  0.
         24    2    4    4    0    0  0.96103442447E+01 -0.22499269925E+03 -0.42705855511E+02  0.24293051660E+03  0.80482124523E+02 0.  0.
         11    1    3    3    0    0 -0.26241926069E+02 -0.10324288723E+03  0.19298075417E+03  0.22042981634E+03  0.00000000000E+00 0. -1.
        -11    1    3    3    0    0  0.72678807959E+02 -0.12863854077E+03  0.14424359967E+03  0.20648559113E+03  0.00000000000E+00 0.  1.
          4    1    6    6  502    0 -0.18248234426E+02 -0.13488377065E+03 -0.56945297489E+02  0.14754455785E+03  0.00000000000E+00 0. -1.
          1    1    5    5  503    0 -0.10441494975E+02  0.34365773773E+03  0.73597816509E+03  0.81232599675E+03  0.00000000000E+00 0. -1.
         -2    1    5    5    0  503 -0.45605731160E+02  0.11321638951E+03  0.20182239558E+03  0.23586036744E+03  0.00000000000E+00 0.  1.
         -3    1    6    6    0  502  0.27858578670E+02 -0.90108928596E+02  0.14239441978E+02  0.95385958747E+02  0.00000000000E+00 0.  1.
<mgrwt>
<rscale>  0 0.11970901E+04</rscale>
<asrwt>0</asrwt>
<pdfrwt beam="1">  1        2 0.22695010E+00 0.11970901E+04</pdfrwt>
<pdfrwt beam="2">  1       -2 0.37362557E-01 0.11970901E+04</pdfrwt>
<totfact> 0.87357477E+01</totfact>
</mgrwt>
</event>
<event>
12    1  0.1980523E-007  0.1981140E+04  0.7818608E-02  0.8615489E-01
         -2   -1    0    0    0  501 -0.00000000000E+00  0.00000000000E+00  0.26869793596E+03  0.26869793596E+03  0.00000000000E+00 0.  1.
          2   -1    0    0  501    0  0.00000000000E+00 -0.00000000000E+00 -0.36517928777E+04  0.36517928777E+04  0.00000000000E+00 0. -1.
         23    2    1    2    0    0  0.45446691503E+03  0.63804680554E+03 -0.14456827898E+04  0.16466214806E+04  0.87861644672E+02 0.  0.
        254    2    1    2    0    0 -0.45446691503E+03 -0.63804680554E+03 -0.19374121519E+04  0.22738693331E+04  0.89625442518E+03 0.  0.
        -24    2    4    4    0    0  0.15336439421E+03 -0.56975289592E+02 -0.25268271651E+02  0.18342361010E+03  0.78986797344E+02 0.  0.
         24    2    4    4    0    0 -0.60783130924E+03 -0.58107151595E+03 -0.19121438803E+04  0.20904457230E+04  0.81031443173E+02 0.  0.
         13    1    3    3    0    0  0.35145487209E+03  0.54603103255E+03 -0.12190562013E+04  0.13812199092E+04  0.00000000000E+00 0.  1.
        -13    1    3    3    0    0  0.10301204294E+03  0.92015772986E+02 -0.22662658851E+03  0.26540157138E+03  0.00000000000E+00 0. -1.
          4    1    6    6  502    0 -0.29256206252E+03 -0.26304187414E+03 -0.99029616768E+03  0.10655843879E+04  0.00000000000E+00 0. -1.
          3    1    5    5  503    0  0.14166188744E+03 -0.60013384441E+02 -0.44988225166E+02  0.16029234875E+03  0.00000000000E+00 0. -1.
         -4    1    5    5    0  503  0.11702506774E+02  0.30380948492E+01  0.19719953514E+02  0.23131261351E+02  0.00000000000E+00 0.  1.
         -3    1    6    6    0  502 -0.31526924672E+03 -0.31802964181E+03 -0.92184771261E+03  0.10248613351E+04  0.00000000000E+00 0.  1.
<mgrwt>
<rscale>  0 0.19811403E+04</rscale>
<asrwt>0</asrwt>
<pdfrwt beam="1">  1        2 0.56181425E+00 0.19811403E+04</pdfrwt>
<pdfrwt beam="2">  1       -2 0.41338147E-01 0.19811403E+04</pdfrwt>
<totfact> 0.32901872E+00</totfact>
</mgrwt>
</event>
<event>
12    1  0.1980523E-007  0.2698305E+04  0.7818608E-02  0.8335555E-01
         -2   -1    0    0    0  501 -0.00000000000E+00  0.00000000000E+00  0.10787435379E+04  0.10787435379E+04  0.00000000000E+00 0.  1.
          2   -1    0    0  501    0  0.00000000000E+00 -0.00000000000E+00 -0.16873450538E+04  0.16873450538E+04  0.00000000000E+00 0. -1.
         23    2    1    2    0    0 -0.11918580476E+04  0.63913068379E+02 -0.17688661700E+03  0.12099871398E+04  0.90385381919E+02 0.  0.
        254    2    1    2    0    0  0.11918580476E+04 -0.63913068379E+02 -0.43171489889E+03  0.15561014519E+04  0.90025745698E+03 0.  0.
        -24    2    4    4    0    0  0.75066695671E+03 -0.43931216518E+03 -0.88661029929E+02  0.87806981733E+03  0.81546106675E+02 0.  0.
         24    2    4    4    0    0  0.44119109090E+03  0.37539909680E+03 -0.34305386897E+03  0.67803163460E+03  0.80416913284E+02 0.  0.
         13    1    3    3    0    0 -0.10867270579E+03 -0.19735379040E+02 -0.11230396358E+02  0.11101965579E+03  0.00000000000E+00 0.  1.
        -13    1    3    3    0    0 -0.10831853418E+04  0.83648447419E+02 -0.16565622064E+03  0.10989674840E+04  0.00000000000E+00 0. -1.
          4    1    6    6  502    0  0.16863872832E+03  0.95962041214E+02 -0.12674993574E+03  0.23176125702E+03  0.00000000000E+00 0. -1.
          3    1    5    5  503    0  0.20216753793E+03 -0.16128055321E+03 -0.29147447880E+02  0.26025507479E+03  0.00000000000E+00 0. -1.
         -4    1    5    5    0  503  0.54849941877E+03 -0.27803161197E+03 -0.59513582049E+02  0.61781474254E+03  0.00000000000E+00 0.  1.
         -3    1    6    6    0  502  0.27255236258E+03  0.27943705559E+03 -0.21630393322E+03  0.44627037759E+03  0.00000000000E+00 0.  1.
<mgrwt>
<rscale>  0 0.26983051E+04</rscale>
<asrwt>0</asrwt>
<pdfrwt beam="1">  1        2 0.25959155E+00 0.26983051E+04</pdfrwt>
<pdfrwt beam="2">  1       -2 0.16596054E+00 0.26983051E+04</pdfrwt>
<totfact> 0.19929049E+00</totfact>
</mgrwt>
</event>
<event>
12    1  0.1980523E-007  0.1851533E+04  0.7818608E-02  0.8679365E-01
         -2   -1    0    0    0  501 -0.00000000000E+00  0.00000000000E+00  0.43363854750E+03  0.43363854750E+03  0.00000000000E+00 0.  1.
          2   -1    0    0  501    0  0.00000000000E+00 -0.00000000000E+00 -0.19764000581E+04  0.19764000581E+04  0.00000000000E+00 0. -1.
         23    2    1    2    0    0 -0.62504703796E+03  0.29766658140E+03 -0.41174253264E+03  0.81069364946E+03  0.91668351935E+02 0.  0.
        254    2    1    2    0    0  0.62504703796E+03 -0.29766658140E+03 -0.11310189779E+04  0.15993449561E+04  0.89409796266E+03 0.  0.
        -24    2    4    4    0    0  0.36032881395E+03 -0.40209191103E+03 -0.11798066388E+04  0.12999416344E+04  0.79936154322E+02 0.  0.
         24    2    4    4    0    0  0.26471822401E+03  0.10442532963E+03  0.48787660860E+02  0.29940332173E+03  0.79257337945E+02 0.  0.
         11    1    3    3    0    0 -0.13385439044E+03  0.57971536937E+02 -0.45599738050E+02  0.15283007899E+03  0.00000000000E+00 0.  1.
        -11    1    3    3    0    0 -0.49119264752E+03  0.23969504446E+03 -0.36614279459E+03  0.65786357047E+03  0.00000000000E+00 0. -1.
          4    1    6    6  502    0  0.26075922249E+02  0.27288362552E+02 -0.15006516696E+02  0.40617779300E+02  0.00000000000E+00 0. -1.
          1    1    5    5  503    0  0.89919599455E+02 -0.12422856862E+03 -0.41587950796E+03  0.44325391907E+03  0.00000000000E+00 0. -1.
         -2    1    5    5    0  503  0.27040921449E+03 -0.27786334242E+03 -0.76392713082E+03  0.85668771530E+03  0.00000000000E+00 0.  1.
         -3    1    6    6    0  502  0.23864230176E+03  0.77136967079E+02  0.63794177556E+02  0.25878554243E+03  0.00000000000E+00 0.  1.
<mgrwt>
<rscale>  0 0.18515326E+04</rscale>
<asrwt>0</asrwt>
<pdfrwt beam="1">  1        2 0.30406155E+00 0.18515326E+04</pdfrwt>
<pdfrwt beam="2">  1       -2 0.66713623E-01 0.18515326E+04</pdfrwt>
<totfact> 0.13361884E+01</totfact>
</mgrwt>
</event>
<event>
12    1  0.1980523E-007  0.2000644E+04  0.7818608E-02  0.8606320E-01
          2   -1    0    0  501    0  0.00000000000E+00  0.00000000000E+00  0.18208493097E+04  0.18208493097E+04  0.00000000000E+00 0. -1.
         -2   -1    0    0    0  501 -0.00000000000E+00 -0.00000000000E+00 -0.54954792289E+03  0.54954792289E+03  0.00000000000E+00 0.  1.
         23    2    1    2    0    0 -0.60740820521E+03 -0.75517661319E+02 -0.86047201336E+02  0.63010071186E+03  0.12237295989E+03 0.  0.
        254    2    1    2    0    0  0.60740820521E+03  0.75517661319E+02  0.13573485882E+04  0.17402965208E+04  0.90088242598E+03 0.  0.
        -24    2    4    4    0    0  0.74385129200E+03  0.11309411353E+03  0.13823964945E+04  0.15759791000E+04  0.81148212537E+02 0.  0.
         24    2    4    4    0    0 -0.13644308679E+03 -0.37576452210E+02 -0.25047906330E+02  0.16431742079E+03  0.79649930763E+02 0.  0.
         13    1    3    3    0    0 -0.38747422742E+03 -0.22880388536E+02 -0.10799521373E+03  0.40289298242E+03  0.00000000000E+00 0.  1.
        -13    1    3    3    0    0 -0.21993397779E+03 -0.52637272783E+02  0.21948012397E+02  0.22720772944E+03  0.00000000000E+00 0. -1.
          4    1    6    6  502    0 -0.12442327035E+03 -0.51035386101E+02 -0.40618319117E+02  0.14048348190E+03  0.00000000000E+00 0. -1.
          1    1    5    5  503    0  0.55291171006E+03  0.83113017939E+02  0.94948053549E+03  0.11018767718E+04  0.00000000000E+00 0. -1.
         -2    1    5    5    0  503  0.19093958194E+03  0.29981095590E+02  0.43291595900E+03  0.47410232820E+03  0.00000000000E+00 0.  1.
         -1    1    6    6    0  502 -0.12019816440E+02  0.13458933890E+02  0.15570412786E+02  0.23833938891E+02  0.00000000000E+00 0.  1.
<mgrwt>
<rscale>  0 0.20006439E+04</rscale>
<asrwt>0</asrwt>
<pdfrwt beam="1">  1        2 0.28013066E+00 0.20006439E+04</pdfrwt>
<pdfrwt beam="2">  1       -2 0.84545835E-01 0.20006439E+04</pdfrwt>
<totfact> 0.95197318E+00</totfact>
</mgrwt>
</event>
<event>
12    1  0.1980523E-007  0.3469993E+04  0.7818608E-02  0.8120938E-01
          1   -1    0    0  501    0  0.00000000000E+00  0.00000000000E+00  0.13106185804E+04  0.13106185804E+04  0.00000000000E+00 0. -1.
         -1   -1    0    0    0  501 -0.00000000000E+00 -0.00000000000E+00 -0.22967880284E+04  0.22967880284E+04  0.00000000000E+00 0.  1.
         23    2    1    2    0    0  0.98428821609E+02 -0.16129602779E+04 -0.52579183271E+03  0.17018147706E+04  0.91582591608E+02 0.  0.
        254    2    1    2    0    0 -0.98428821609E+02  0.16129602779E+04 -0.46037761529E+03  0.19055918383E+04  0.89889021279E+03 0.  0.
        -24    2    4    4    0    0 -0.30777071336E+03  0.15849196845E+04 -0.34867093110E+03  0.16536682521E+04  0.79712305136E+02 0.  0.
         24    2    4    4    0    0  0.20934189175E+03  0.28040593412E+02 -0.11170668419E+03  0.25192358622E+03  0.79854915186E+02 0.  0.
         11    1    3    3    0    0  0.95051016815E+02 -0.80861230653E+03 -0.26036118198E+03  0.85479617638E+03  0.00000000000E+00 0.  1.
        -11    1    3    3    0    0  0.33778047941E+01 -0.80434797134E+03 -0.26543065073E+03  0.84701859419E+03  0.00000000000E+00 0. -1.
          4    1    6    6  502    0  0.17415141170E+03  0.47137895602E+02 -0.11109750309E+03  0.21188051017E+03  0.00000000000E+00 0. -1.
          1    1    5    5  503    0 -0.42554388415E+02  0.11721368230E+03 -0.18218006329E+02  0.12602308934E+03  0.00000000000E+00 0. -1.
         -2    1    5    5    0  503 -0.26521632495E+03  0.14677060022E+04 -0.33045292478E+03  0.15276451628E+04  0.00000000000E+00 0.  1.
         -3    1    6    6    0  502  0.35190480055E+02 -0.19097302190E+02 -0.60918109353E+00  0.40043076044E+02  0.00000000000E+00 0.  1.
<mgrwt>
<rscale>  0 0.34699931E+04</rscale>
<asrwt>0</asrwt>
<pdfrwt beam="1">  1        1 0.20163363E+00 0.34699931E+04</pdfrwt>
<pdfrwt beam="2">  1       -1 0.35335200E+00 0.34699931E+04</pdfrwt>
<totfact> 0.10726754E-01</totfact>
</mgrwt>
</event>
<event>
12    1  0.1980523E-007  0.1704919E+04  0.7818608E-02  0.8758564E-01
          1   -1    0    0  501    0  0.00000000000E+00  0.00000000000E+00  0.31355204653E+04  0.31355204653E+04  0.00000000000E+00 0. -1.
         -1   -1    0    0    0  501 -0.00000000000E+00 -0.00000000000E+00 -0.23175956753E+03  0.23175956753E+03  0.00000000000E+00 0.  1.
         23    2    1    2    0    0 -0.88744040451E+02 -0.41900160620E+03  0.19105320363E+04  0.19599802978E+04  0.89175418918E+02 0.  0.
        254    2    1    2    0    0  0.88744040451E+02  0.41900160620E+03  0.99322886150E+03  0.14072997351E+04  0.90030612697E+03 0.  0.
        -24    2    4    4    0    0  0.42970850685E+03 -0.15525822972E+02  0.39908865858E+03  0.59210044257E+03  0.80129424386E+02 0.  0.
         24    2    4    4    0    0 -0.34096446639E+03  0.43452742918E+03  0.59414020291E+03  0.81519929248E+03  0.80476404607E+02 0.  0.
         13    1    3    3    0    0 -0.71836719908E+02 -0.24130091579E+03  0.93790618848E+03  0.97111001677E+03  0.00000000000E+00 0.  1.
        -13    1    3    3    0    0 -0.16907320543E+02 -0.17770069042E+03  0.97262584781E+03  0.98887028102E+03  0.00000000000E+00 0. -1.
          4    1    6    6  502    0 -0.51433159130E+02  0.59214134651E+02  0.47631799300E+02  0.91763129334E+02  0.00000000000E+00 0. -1.
          3    1    5    5  503    0  0.17284725186E+03  0.32071467540E+02  0.17237425035E+03  0.24620648588E+03  0.00000000000E+00 0. -1.
         -4    1    5    5    0  503  0.25686125499E+03 -0.47597290512E+02  0.22671440823E+03  0.34589395670E+03  0.00000000000E+00 0.  1.
         -3    1    6    6    0  502 -0.28953130726E+03  0.37531329452E+03  0.54650840361E+03  0.72343616315E+03  0.00000000000E+00 0.  1.
<mgrwt>
<rscale>  0 0.17049186E+04</rscale>
<asrwt>0</asrwt>
<pdfrwt beam="1">  1        1 0.48238773E+00 0.17049186E+04</pdfrwt>
<pdfrwt beam="2">  1       -1 0.35655320E-01 0.17049186E+04</pdfrwt>
<totfact> 0.34073285E+00</totfact>
</mgrwt>
</event>
<event>
12    1  0.1980523E-007  0.1293540E+04  0.7818608E-02  0.9034704E-01
          1   -1    0    0  501    0  0.00000000000E+00  0.00000000000E+00  0.17099199474E+04  0.17099199474E+04  0.00000000000E+00 0. -1.
         -1   -1    0    0    0  501 -0.00000000000E+00 -0.00000000000E+00 -0.24463809264E+03  0.24463809264E+03  0.00000000000E+00 0.  1.
         23    2    1    2    0    0 -0.37487432940E+02 -0.31538213759E+03  0.48660319527E+03  0.58757506350E+03  0.87123964884E+02 0.  0.
        254    2    1    2    0    0  0.37487432940E+02  0.31538213759E+03  0.97867865945E+03  0.13669829765E+04  0.89997741043E+03 0.  0.
        -24    2    4    4    0    0 -0.10996882217E+03  0.60265754723E+03  0.57927590954E+03  0.84735538448E+03  0.84624506771E+02 0.  0.
         24    2    4    4    0    0  0.14745625511E+03 -0.28727540964E+03  0.39940274991E+03  0.51962759204E+03  0.78865516031E+02 0.  0.
         11    1    3    3    0    0  0.16721567071E+01 -0.41584646609E+02  0.12865862103E+03  0.13522248226E+03  0.00000000000E+00 0. -1.
        -11    1    3    3    0    0 -0.39159589648E+02 -0.27379749098E+03  0.35794457424E+03  0.45235258124E+03  0.00000000000E+00 0.  1.
          2    1    6    6  502    0  0.68538588265E+02 -0.58656716122E+02  0.98344743772E+02  0.13345350147E+03  0.00000000000E+00 0. -1.
          3    1    5    5  503    0 -0.52303736606E+02  0.33094210380E+03  0.25953464138E+03  0.42381197129E+03  0.00000000000E+00 0. -1.
         -4    1    5    5    0  503 -0.57665085561E+02  0.27171544343E+03  0.31974126816E+03  0.42354341319E+03  0.00000000000E+00 0.  1.
         -1    1    6    6    0  502  0.78917666843E+02 -0.22861869352E+03  0.30105800614E+03  0.38617409057E+03  0.00000000000E+00 0.  1.
<mgrwt>
<rscale>  0 0.12935402E+04</rscale>
<asrwt>0</asrwt>
<pdfrwt beam="1">  1        1 0.26306460E+00 0.12935402E+04</pdfrwt>
<pdfrwt beam="2">  1       -1 0.37636631E-01 0.12935402E+04</pdfrwt>
<totfact> 0.31401589E+01</totfact>
</mgrwt>
</event>
<event>
12    1  0.1980523E-007  0.2507387E+04  0.7818608E-02  0.8400359E-01
          2   -1    0    0  501    0  0.00000000000E+00  0.00000000000E+00  0.17054741105E+04  0.17054741105E+04  0.00000000000E+00 0. -1.
         -2   -1    0    0    0  501 -0.00000000000E+00 -0.00000000000E+00 -0.92158965354E+03  0.92158965354E+03  0.00000000000E+00 0.  1.
         23    2    1    2    0    0  0.98083277759E+03  0.12392224179E+03  0.82173583699E+03  0.12885957541E+04  0.88541358508E+02 0.  0.
        254    2    1    2    0    0 -0.98083277759E+03 -0.12392224179E+03 -0.37851380019E+02  0.13384680099E+04  0.90148445744E+03 0.  0.
        -24    2    4    4    0    0  0.95968237470E+02 -0.17242450273E+03  0.12305528499E+03  0.24563879441E+03  0.79092998487E+02 0.  0.
         24    2    4    4    0    0 -0.10768010151E+04  0.48502260943E+02 -0.16090666501E+03  0.10928292155E+04  0.80819824745E+02 0.  0.
         13    1    3    3    0    0  0.60296464147E+03  0.11499354850E+03  0.53324995803E+03  0.81310847542E+03  0.00000000000E+00 0. -1.
        -13    1    3    3    0    0  0.37786813611E+03  0.89286932952E+01  0.28848587896E+03  0.47548727871E+03  0.00000000000E+00 0.  1.
          2    1    6    6  502    0 -0.63855181196E+03  0.66538035813E+02 -0.83175134294E+02  0.64737456679E+03  0.00000000000E+00 0. -1.
          1    1    5    5  503    0  0.10205729384E+03 -0.17072309365E+03  0.12890926891E+03  0.23702250008E+03  0.00000000000E+00 0. -1.
         -2    1    5    5    0  503 -0.60890563746E+01 -0.17014090866E+01 -0.58539839162E+01  0.86162943371E+01  0.00000000000E+00 0.  1.
         -1    1    6    6    0  502 -0.43824920310E+03 -0.18035774870E+02 -0.77731530719E+02  0.44545464871E+03  0.00000000000E+00 0.  1.
<mgrwt>
<rscale>  0 0.25073869E+04</rscale>
<asrwt>0</asrwt>
<pdfrwt beam="1">  1        2 0.26238063E+00 0.25073869E+04</pdfrwt>
<pdfrwt beam="2">  1       -2 0.14178302E+00 0.25073869E+04</pdfrwt>
<totfact> 0.30168868E+00</totfact>
</mgrwt>
</event>
<event>
12    1  0.1980523E-007  0.3900529E+04  0.7818608E-02  0.8024919E-01
         -2   -1    0    0    0  501 -0.00000000000E+00  0.00000000000E+00  0.15075024172E+04  0.15075024172E+04  0.00000000000E+00 0.  1.
          2   -1    0    0  501    0  0.00000000000E+00 -0.00000000000E+00 -0.25230686267E+04  0.25230686267E+04  0.00000000000E+00 0. -1.
         23    2    1    2    0    0 -0.12900525606E+04  0.12771073385E+04 -0.14076948730E+03  0.18229932812E+04  0.90827812163E+02 0.  0.
        254    2    1    2    0    0  0.12900525606E+04 -0.12771073385E+04 -0.87479672219E+03  0.22075777627E+04  0.90160496339E+03 0.  0.
        -24    2    4    4    0    0  0.12972015982E+04 -0.99710050492E+03 -0.46152372104E+03  0.17019949315E+04  0.82711537860E+02 0.  0.
         24    2    4    4    0    0 -0.71490376055E+01 -0.28000683355E+03 -0.41327300115E+03  0.50558283117E+03  0.79777754512E+02 0.  0.
         11    1    3    3    0    0 -0.12776759032E+04  0.12697590000E+04 -0.13201942414E+03  0.18061485985E+04  0.00000000000E+00 0.  1.
        -11    1    3    3    0    0 -0.12376657404E+02  0.73483385111E+01 -0.87500631660E+01  0.16844682627E+02  0.00000000000E+00 0. -1.
          4    1    6    6  502    0  0.29874244855E+02 -0.20515467384E+03 -0.30651591999E+03  0.37004448370E+03  0.00000000000E+00 0. -1.
          3    1    5    5  503    0  0.10526237065E+04 -0.79924508522E+03 -0.33955060963E+03  0.13645893119E+04  0.00000000000E+00 0. -1.
         -4    1    5    5    0  503  0.24457789173E+03 -0.19785541970E+03 -0.12197311141E+03  0.33740561960E+03  0.00000000000E+00 0.  1.
         -3    1    6    6    0  502 -0.37023282461E+02 -0.74852159709E+02 -0.10675708115E+03  0.13553834747E+03  0.00000000000E+00 0.  1.
<mgrwt>
<rscale>  0 0.39005292E+04</rscale>
<asrwt>0</asrwt>
<pdfrwt beam="1">  1        2 0.38816440E+00 0.39005292E+04</pdfrwt>
<pdfrwt beam="2">  1       -2 0.23192345E+00 0.39005292E+04</pdfrwt>
<totfact> 0.22321852E-01</totfact>
</mgrwt>
</event>
<event>
12    1  0.1980523E-007  0.1593611E+04  0.7818608E-02  0.8824483E-01
         -2   -1    0    0    0  501 -0.00000000000E+00  0.00000000000E+00  0.10015837412E+04  0.10015837412E+04  0.00000000000E+00 0.  1.
          2   -1    0    0  501    0  0.00000000000E+00 -0.00000000000E+00 -0.63389501631E+03  0.63389501631E+03  0.00000000000E+00 0. -1.
         23    2    1    2    0    0 -0.39204748493E+03  0.32769814725E+03  0.29480534516E+03  0.59696978048E+03  0.91517326899E+02 0.  0.
        254    2    1    2    0    0  0.39204748493E+03 -0.32769814725E+03  0.72883379736E+02  0.10385089770E+04  0.90116680042E+03 0.  0.
        -24    2    4    4    0    0 -0.11937336697E+03 -0.42073843395E+03  0.21525937487E+03  0.49369891506E+03  0.78301913844E+02 0.  0.
         24    2    4    4    0    0  0.51142085190E+03  0.93040286699E+02 -0.14237599514E+03  0.54481006198E+03  0.79619701919E+02 0.  0.
         13    1    3    3    0    0 -0.24734636228E+03  0.16382153390E+03  0.13375687138E+03  0.32543604371E+03  0.00000000000E+00 0. -1.
        -13    1    3    3    0    0 -0.14470112264E+03  0.16387661335E+03  0.16104847378E+03  0.27153373677E+03  0.00000000000E+00 0.  1.
          2    1    6    6  502    0  0.85549454993E+02  0.46756087670E+02 -0.27368240401E+02  0.10126135278E+03  0.00000000000E+00 0. -1.
          1    1    5    5  503    0  0.54274573341E+00 -0.14508394793E+02  0.25999697552E+02  0.29778723364E+02  0.00000000000E+00 0. -1.
         -2    1    5    5    0  503 -0.11991611270E+03 -0.40623003916E+03  0.18925967732E+03  0.46392019169E+03  0.00000000000E+00 0.  1.
         -1    1    6    6    0  502  0.42587139690E+03  0.46284199029E+02 -0.11500775473E+03  0.44354870920E+03  0.00000000000E+00 0.  1.
<mgrwt>
<rscale>  0 0.15936109E+04</rscale>
<asrwt>0</asrwt>
<pdfrwt beam="1">  1        2 0.97522310E-01 0.15936109E+04</pdfrwt>
<pdfrwt beam="2">  1       -2 0.15408981E+00 0.15936109E+04</pdfrwt>
<totfact> 0.12400152E+01</totfact>
</mgrwt>
</event>
<event>
12    1  0.1980523E-007  0.1367039E+04  0.7818608E-02  0.8978029E-01
         -2   -1    0    0    0  501 -0.00000000000E+00  0.00000000000E+00  0.10605451584E+03  0.10605451584E+03  0.00000000000E+00 0.  1.
          2   -1    0    0  501    0  0.00000000000E+00 -0.00000000000E+00 -0.44052714716E+04  0.44052714716E+04  0.00000000000E+00 0. -1.
         23    2    1    2    0    0  0.27811242040E+03  0.15264361736E+03 -0.18807219955E+04  0.19095934750E+04  0.93730585913E+02 0.  0.
        254    2    1    2    0    0 -0.27811242040E+03 -0.15264361736E+03 -0.24184949602E+04  0.26017325125E+04  0.90512297601E+03 0.  0.
        -24    2    4    4    0    0 -0.22745144212E+02 -0.33006033140E+03 -0.28813551927E+03  0.44732385463E+03  0.87289114497E+02 0.  0.
         24    2    4    4    0    0 -0.25536727619E+03  0.17741671404E+03 -0.21303594409E+04  0.21544086578E+04  0.79725662725E+02 0.  0.
         11    1    3    3    0    0  0.19957774359E+03  0.14553025853E+03 -0.12695361179E+04  0.12933415197E+04  0.00000000000E+00 0.  1.
        -11    1    3    3    0    0  0.78534676813E+02  0.71133588321E+01 -0.61118587762E+03  0.61625195524E+03  0.00000000000E+00 0. -1.
          4    1    6    6  502    0 -0.24333540894E+03  0.14151077092E+03 -0.19403993768E+04  0.19607108816E+04  0.00000000000E+00 0. -1.
          3    1    5    5  503    0 -0.12682760342E+02 -0.29449016167E+03 -0.21325944071E+03  0.36381986859E+03  0.00000000000E+00 0. -1.
         -4    1    5    5    0  503 -0.10062383870E+02 -0.35570169727E+02 -0.74876078566E+02  0.83503986042E+02  0.00000000000E+00 0.  1.
         -3    1    6    6    0  502 -0.12031867253E+02  0.35905943124E+02 -0.18996006407E+03  0.19369777625E+03  0.00000000000E+00 0.  1.
<mgrwt>
<rscale>  0 0.13670390E+04</rscale>
<asrwt>0</asrwt>
<pdfrwt beam="1">  1        2 0.67773396E+00 0.13670390E+04</pdfrwt>
<pdfrwt beam="2">  1       -2 0.16316082E-01 0.13670390E+04</pdfrwt>
<totfact> 0.46937033E+00</totfact>
</mgrwt>
</event>
<event>
12    1  0.1980523E-007  0.1096018E+04  0.7818608E-02  0.9209081E-01
          2   -1    0    0  501    0  0.00000000000E+00  0.00000000000E+00  0.27957896373E+03  0.27957896373E+03  0.00000000000E+00 0. -1.
         -2   -1    0    0    0  501 -0.00000000000E+00 -0.00000000000E+00 -0.10741651861E+04  0.10741651861E+04  0.00000000000E+00 0.  1.
         23    2    1    2    0    0 -0.10090071501E+03  0.26354328093E+02  0.11033953718E+02  0.14111281583E+03  0.94422316002E+02 0.  0.
        254    2    1    2    0    0  0.10090071501E+03 -0.26354328093E+02 -0.80562017614E+03  0.12126313340E+04  0.90031959837E+03 0.  0.
        -24    2    4    4    0    0  0.26033395628E+03  0.37691217395E+03 -0.43004855794E+03  0.63344965725E+03  0.80499381522E+02 0.  0.
         24    2    4    4    0    0 -0.15943324127E+03 -0.40326650204E+03 -0.37557161819E+03  0.57918167679E+03  0.79715395250E+02 0.  0.
         13    1    3    3    0    0 -0.76022349843E+02 -0.39041686805E+01  0.45714180492E+02  0.88794293211E+02  0.00000000000E+00 0. -1.
        -13    1    3    3    0    0 -0.24878365166E+02  0.30258496774E+02 -0.34680226773E+02  0.52318522623E+02  0.00000000000E+00 0.  1.
          4    1    6    6  502    0 -0.69417746730E+01  0.41636305482E-01 -0.17103134673E+02  0.18458255195E+02  0.00000000000E+00 0. -1.
          1    1    5    5  503    0  0.27564408039E+02  0.87883723919E+01 -0.35262563188E+02  0.45612283898E+02  0.00000000000E+00 0. -1.
         -2    1    5    5    0  503  0.23276954824E+03  0.36812380156E+03 -0.39478599475E+03  0.58783737336E+03  0.00000000000E+00 0.  1.
         -3    1    6    6    0  502 -0.15249146659E+03 -0.40330813835E+03 -0.35846848352E+03  0.56072342159E+03  0.00000000000E+00 0.  1.
<mgrwt>
<rscale>  0 0.10960182E+04</rscale>
<asrwt>0</asrwt>
<pdfrwt beam="1">  1        2 0.43012149E-01 0.10960182E+04</pdfrwt>
<pdfrwt beam="2">  1       -2 0.16525618E+00 0.10960182E+04</pdfrwt>
<totfact> 0.27163403E+01</totfact>
</mgrwt>
</event>
<event>
12    1  0.1980523E-007  0.2989022E+04  0.7818608E-02  0.8246873E-01
         -2   -1    0    0    0  501 -0.00000000000E+00  0.00000000000E+00  0.92589521425E+03  0.92589521425E+03  0.00000000000E+00 0. -1.
          2   -1    0    0  501    0  0.00000000000E+00 -0.00000000000E+00 -0.24123287260E+04  0.24123287260E+04  0.00000000000E+00 0.  1.
         23    2    1    2    0    0 -0.28008024595E+03 -0.10424551438E+04 -0.15979107725E+04  0.19305801441E+04  0.93076233344E+02 0.  0.
        254    2    1    2    0    0  0.28008024595E+03  0.10424551438E+04  0.11147726068E+03  0.14076437961E+04  0.89659143773E+03 0.  0.
        -24    2    4    4    0    0  0.50401664303E+03  0.82080268257E+03  0.32307627231E+03  0.10190482247E+04  0.79568751956E+02 0.  0.
         24    2    4    4    0    0 -0.22393639708E+03  0.22165246121E+03 -0.21159901163E+03  0.38859557148E+03  0.83396960113E+02 0.  0.
         13    1    3    3    0    0 -0.57835783653E+02 -0.23897395282E+03 -0.29827999698E+03  0.38655463339E+03  0.00000000000E+00 0. -1.
        -13    1    3    3    0    0 -0.22224446230E+03 -0.80348119096E+03 -0.12996307755E+04  0.15440255108E+04  0.00000000000E+00 0.  1.
          2    1    6    6  502    0 -0.77205716418E+02  0.13245966535E+03 -0.11427338953E+03  0.19121896649E+03  0.00000000000E+00 0. -1.
          1    1    5    5  503    0  0.31213992346E+03  0.47867332395E+03  0.22923705497E+03  0.61571836927E+03  0.00000000000E+00 0. -1.
         -2    1    5    5    0  503  0.19187671957E+03  0.34212935862E+03  0.93839217346E+02  0.40332985539E+03  0.00000000000E+00 0.  1.
         -1    1    6    6    0  502 -0.14673068066E+03  0.89192795863E+02 -0.97325622105E+02  0.19737660499E+03  0.00000000000E+00 0.  1.
<mgrwt>
<rscale>  0 0.29890223E+04</rscale>
<asrwt>0</asrwt>
<pdfrwt beam="1">  1        2 0.37112749E+00 0.29890223E+04</pdfrwt>
<pdfrwt beam="2">  1       -2 0.14244542E+00 0.29890223E+04</pdfrwt>
<totfact> 0.11502740E+00</totfact>
</mgrwt>
</event>
<event>
12    1  0.1980523E-007  0.4582963E+04  0.7818608E-02  0.7896271E-01
          2   -1    0    0  501    0  0.00000000000E+00  0.00000000000E+00  0.16062593560E+04  0.16062593560E+04  0.00000000000E+00 0. -1.
         -2   -1    0    0    0  501 -0.00000000000E+00 -0.00000000000E+00 -0.32690155872E+04  0.32690155872E+04  0.00000000000E+00 0.  1.
         23    2    1    2    0    0 -0.17323789501E+04 -0.53720953508E+03  0.51978348885E+03  0.18892518405E+04  0.96781869189E+02 0.  0.
        254    2    1    2    0    0  0.17323789501E+04  0.53720953508E+03 -0.21825397201E+04  0.29860231027E+04  0.92904436333E+03 0.  0.
        -24    2    4    4    0    0  0.79628705503E+03  0.19740241079E+03 -0.34298892314E+03  0.89278557284E+03  0.79899260839E+02 0.  0.
         24    2    4    4    0    0  0.93609189503E+03  0.33980712428E+03 -0.18395507970E+04  0.20932375299E+04  0.77196530273E+02 0.  0.
         13    1    3    3    0    0 -0.52743150647E+03 -0.16148328402E+03  0.20463993080E+03  0.58833523293E+03  0.00000000000E+00 0. -1.
        -13    1    3    3    0    0 -0.12049474436E+04 -0.37572625106E+03  0.31514355805E+03  0.13009166075E+04  0.00000000000E+00 0.  1.
          4    1    6    6  502    0  0.71971593817E+03  0.24509599252E+03 -0.13402254181E+04  0.15408657465E+04  0.00000000000E+00 0. -1.
          3    1    5    5  503    0  0.50940170486E+03  0.93339014165E+02 -0.19228859647E+03  0.55242843230E+03  0.00000000000E+00 0. -1.
         -4    1    5    5    0  503  0.28688535017E+03  0.10406339663E+03 -0.15070032667E+03  0.34035714054E+03  0.00000000000E+00 0.  1.
         -3    1    6    6    0  502  0.21637595686E+03  0.94711131759E+02 -0.49932537884E+03  0.55237178344E+03  0.00000000000E+00 0.  1.
<mgrwt>
<rscale>  0 0.45829627E+04</rscale>
<asrwt>0</asrwt>
<pdfrwt beam="1">  1        2 0.24711683E+00 0.45829627E+04</pdfrwt>
<pdfrwt beam="2">  1       -2 0.50292547E+00 0.45829627E+04</pdfrwt>
<totfact> 0.13235124E-02</totfact>
</mgrwt>
</event>
<event>
12    1  0.1980523E-007  0.3521811E+04  0.7818608E-02  0.8108640E-01
          2   -1    0    0  501    0  0.00000000000E+00  0.00000000000E+00  0.17757560068E+04  0.17757560068E+04  0.00000000000E+00 0.  1.
         -2   -1    0    0    0  501 -0.00000000000E+00 -0.00000000000E+00 -0.17461790454E+04  0.17461790454E+04  0.00000000000E+00 0. -1.
         23    2    1    2    0    0  0.16278381012E+04 -0.21290629279E+03  0.10871627558E+03  0.16478612934E+04  0.91878400153E+02 0.  0.
        254    2    1    2    0    0 -0.16278381012E+04  0.21290629279E+03 -0.79139314249E+02  0.18740737588E+04  0.90039072032E+03 0.  0.
        -24    2    4    4    0    0 -0.35417871469E+03  0.43013566637E+03 -0.13320696017E+03  0.57843889452E+03  0.79926259953E+02 0.  0.
         24    2    4    4    0    0 -0.12736593865E+04 -0.21722937358E+03  0.54067645924E+02  0.12956348643E+04  0.79684111922E+02 0.  0.
         13    1    3    3    0    0  0.10367084455E+04 -0.13104051942E+03  0.11321649810E+03  0.10510727825E+04  0.00000000000E+00 0. -1.
        -13    1    3    3    0    0  0.59112965565E+03 -0.81865773375E+02 -0.45002225222E+01  0.59678851082E+03  0.00000000000E+00 0.  1.
          4    1    6    6  502    0 -0.49852246203E+03 -0.76743255246E+02 -0.16914937799E+02  0.50467840007E+03  0.00000000000E+00 0. -1.
          3    1    5    5  503    0 -0.21875205614E+03  0.30509069735E+03 -0.11784657869E+03  0.39347250448E+03  0.00000000000E+00 0. -1.
         -4    1    5    5    0  503 -0.13542665855E+03  0.12504496902E+03 -0.15360381481E+02  0.18496639004E+03  0.00000000000E+00 0.  1.
         -3    1    6    6    0  502 -0.77513692446E+03 -0.14048611833E+03  0.70982583723E+02  0.79095646423E+03  0.00000000000E+00 0.  1.
<mgrwt>
<rscale>  0 0.35218109E+04</rscale>
<asrwt>0</asrwt>
<pdfrwt beam="1">  1        2 0.27319323E+00 0.35218109E+04</pdfrwt>
<pdfrwt beam="2">  1       -2 0.26864293E+00 0.35218109E+04</pdfrwt>
<totfact> 0.36066766E-01</totfact>
</mgrwt>
</event>
<event>
12    1  0.1980523E-007  0.2340167E+04  0.7818608E-02  0.8462250E-01
         -2   -1    0    0    0  501 -0.00000000000E+00  0.00000000000E+00  0.13991224205E+04  0.13991224205E+04  0.00000000000E+00 0.  1.
          2   -1    0    0  501    0  0.00000000000E+00 -0.00000000000E+00 -0.97853878313E+03  0.97853878313E+03  0.00000000000E+00 0. -1.
         23    2    1    2    0    0  0.77969661664E+03 -0.59592423877E+03  0.17676426150E+03  0.10011229397E+04  0.89157298872E+02 0.  0.
        254    2    1    2    0    0 -0.77969661664E+03  0.59592423877E+03  0.24381937587E+03  0.13765382639E+04  0.93400063790E+03 0.  0.
        -24    2    4    4    0    0 -0.69693585601E+03 -0.26862606253E+02  0.24216041000E+03  0.74272544259E+03  0.80982911144E+02 0.  0.
         24    2    4    4    0    0 -0.82760760636E+02  0.62278684502E+03  0.16589658785E+01  0.63381282132E+03  0.83684780384E+02 0.  0.
         11    1    3    3    0    0  0.26205330713E+03 -0.19154602244E+03  0.16649544360E+02  0.32502157131E+03  0.00000000000E+00 0.  1.
        -11    1    3    3    0    0  0.51764330951E+03 -0.40437821633E+03  0.16011471714E+03  0.67610136841E+03  0.00000000000E+00 0. -1.
          2    1    6    6  502    0 -0.31875072469E+02  0.14531586292E+03  0.33805138786E+02  0.15256312683E+03  0.00000000000E+00 0. -1.
          3    1    5    5  503    0 -0.23756916469E+03  0.23948209104E+02  0.62067271091E+02  0.24670827078E+03  0.00000000000E+00 0. -1.
         -4    1    5    5    0  503 -0.45936669132E+03 -0.50810815357E+02  0.18009313891E+03  0.49601717181E+03  0.00000000000E+00 0.  1.
         -3    1    6    6    0  502 -0.50885688167E+02  0.47747098210E+03 -0.32146172908E+02  0.48124969449E+03  0.00000000000E+00 0.  1.
<mgrwt>
<rscale>  0 0.23401671E+04</rscale>
<asrwt>0</asrwt>
<pdfrwt beam="1">  1        2 0.15054443E+00 0.23401671E+04</pdfrwt>
<pdfrwt beam="2">  1       -2 0.21524960E+00 0.23401671E+04</pdfrwt>
<totfact> 0.24895760E+00</totfact>
</mgrwt>
</event>
<event>
12    1  0.1980523E-007  0.2201529E+04  0.7818608E-02  0.8517792E-01
          2   -1    0    0  501    0  0.00000000000E+00  0.00000000000E+00  0.24057268663E+04  0.24057268663E+04  0.00000000000E+00 0.  1.
         -2   -1    0    0    0  501 -0.00000000000E+00 -0.00000000000E+00 -0.50366576970E+03  0.50366576970E+03  0.00000000000E+00 0. -1.
         23    2    1    2    0    0 -0.10625389865E+03 -0.85431344854E+03  0.43416310823E+03  0.96841206661E+03  0.90459752871E+02 0.  0.
        254    2    1    2    0    0  0.10625389865E+03  0.85431344854E+03  0.14678979883E+04  0.19409805693E+04  0.93356291010E+03 0.  0.
        -24    2    4    4    0    0  0.28785761902E+03  0.97438872468E+03  0.13161898983E+04  0.16646452930E+04  0.79954409174E+02 0.  0.
         24    2    4    4    0    0 -0.18160372037E+03 -0.12007527614E+03  0.15170809002E+03  0.27633527633E+03  0.77122351971E+02 0.  0.
         11    1    3    3    0    0 -0.10120878645E+03 -0.47022399212E+03  0.25803660253E+03  0.54583578983E+03  0.00000000000E+00 0.  1.
        -11    1    3    3    0    0 -0.50451122058E+01 -0.38408945642E+03  0.17612650569E+03  0.42257627678E+03  0.00000000000E+00 0. -1.
          2    1    6    6  502    0 -0.10792074479E+03 -0.80815214672E+02  0.13576353429E+03  0.19133667532E+03  0.00000000000E+00 0. -1.
          1    1    5    5  503    0  0.20495527447E+03  0.64207130384E+03  0.81466349756E+03  0.10573262685E+04  0.00000000000E+00 0. -1.
         -2    1    5    5    0  503  0.82902344557E+02  0.33231742084E+03  0.50152640075E+03  0.60731902455E+03  0.00000000000E+00 0.  1.
         -1    1    6    6    0  502 -0.73682975578E+02 -0.39260061469E+02  0.15944555732E+02  0.84998601012E+02  0.00000000000E+00 0.  1.
<mgrwt>
<rscale>  0 0.22015288E+04</rscale>
<asrwt>0</asrwt>
<pdfrwt beam="1">  1        2 0.37011182E+00 0.22015288E+04</pdfrwt>
<pdfrwt beam="2">  1       -2 0.77487043E-01 0.22015288E+04</pdfrwt>
<totfact> 0.53543867E+00</totfact>
</mgrwt>
</event>
<event>
12    1  0.1980523E-007  0.1712945E+04  0.7818608E-02  0.8754016E-01
          2   -1    0    0  501    0  0.00000000000E+00  0.00000000000E+00  0.44868663180E+03  0.44868663180E+03  0.00000000000E+00 0. -1.
         -2   -1    0    0    0  501 -0.00000000000E+00 -0.00000000000E+00 -0.16348718819E+04  0.16348718819E+04  0.00000000000E+00 0.  1.
         23    2    1    2    0    0 -0.53648520498E+03  0.29393590809E+03 -0.34875575091E+03  0.70958508571E+03  0.87554136643E+02 0.  0.
        254    2    1    2    0    0  0.53648520498E+03 -0.29393590809E+03 -0.83742949915E+03  0.13739734279E+04  0.90127693935E+03 0.  0.
        -24    2    4    4    0    0  0.12437439428E+02 -0.47198460444E+03 -0.59667462357E+03  0.76501856135E+03  0.79426922864E+02 0.  0.
         24    2    4    4    0    0  0.52404776556E+03  0.17804869635E+03 -0.24075487558E+03  0.60895486659E+03  0.80843803533E+02 0.  0.
         13    1    3    3    0    0 -0.23886834130E+03  0.13136580788E+03 -0.20577074812E+03  0.34155037804E+03  0.00000000000E+00 0.  1.
        -13    1    3    3    0    0 -0.29761686369E+03  0.16257010021E+03 -0.14298500279E+03  0.36803470768E+03  0.00000000000E+00 0. -1.
          2    1    6    6  502    0  0.52091998032E+03  0.17251016218E+03 -0.24536405661E+03  0.60109974399E+03  0.00000000000E+00 0. -1.
          1    1    5    5  503    0 -0.29500560904E+02 -0.19133376286E+03 -0.27123758668E+03  0.33323973403E+03  0.00000000000E+00 0. -1.
         -2    1    5    5    0  503  0.41938000332E+02 -0.28065084157E+03 -0.32543703688E+03  0.43177882732E+03  0.00000000000E+00 0.  1.
         -1    1    6    6    0  502  0.31277852393E+01  0.55385341677E+01  0.46091810317E+01  0.78551225969E+01  0.00000000000E+00 0.  1.
<mgrwt>
<rscale>  0 0.17129450E+04</rscale>
<asrwt>0</asrwt>
<pdfrwt beam="1">  1        2 0.69028711E-01 0.17129450E+04</pdfrwt>
<pdfrwt beam="2">  1       -2 0.25151876E+00 0.17129450E+04</pdfrwt>
<totfact> 0.41723731E+00</totfact>
</mgrwt>
</event>
<event>
12    1  0.1980523E-007  0.4756666E+04  0.7818608E-02  0.7867181E-01
         -2   -1    0    0    0  501 -0.00000000000E+00  0.00000000000E+00  0.15487972999E+04  0.15487972999E+04  0.00000000000E+00 0.  1.
          2   -1    0    0  501    0  0.00000000000E+00 -0.00000000000E+00 -0.36521673612E+04  0.36521673612E+04  0.00000000000E+00 0. -1.
         23    2    1    2    0    0  0.19916751912E+04 -0.10818386679E+04 -0.64003587695E+03  0.23568992390E+04  0.90460643776E+02 0.  0.
        254    2    1    2    0    0 -0.19916751912E+04  0.10818386679E+04 -0.14633341844E+04  0.28440654222E+04  0.90012011394E+03 0.  0.
        -24    2    4    4    0    0 -0.73837121631E+03  0.74303572871E+03 -0.28444124148E+03  0.10885381278E+04  0.81940762880E+02 0.  0.
         24    2    4    4    0    0 -0.12533039749E+04  0.33880293923E+03 -0.11788929429E+04  0.17555272943E+04  0.80803621254E+02 0.  0.
         11    1    3    3    0    0  0.15507511664E+04 -0.81219877933E+03 -0.52224390152E+03  0.18268099873E+04  0.00000000000E+00 0. -1.
        -11    1    3    3    0    0  0.44092402484E+03 -0.26963988861E+03 -0.11779197544E+03  0.53008925162E+03  0.00000000000E+00 0.  1.
          2    1    6    6  502    0 -0.77141767747E+03  0.21856174136E+03 -0.67608943844E+03  0.10487856772E+04  0.00000000000E+00 0. -1.
          1    1    5    5  503    0 -0.34837116090E+03  0.39420122551E+03 -0.17064799325E+03  0.55306221128E+03  0.00000000000E+00 0. -1.
         -2    1    5    5    0  503 -0.39000005541E+03  0.34883450319E+03 -0.11379324822E+03  0.53547591653E+03  0.00000000000E+00 0.  1.
         -1    1    6    6    0  502 -0.48188629745E+03  0.12024119787E+03 -0.50280350446E+03  0.70674161716E+03  0.00000000000E+00 0.  1.
<mgrwt>
<rscale>  0 0.47566656E+04</rscale>
<asrwt>0</asrwt>
<pdfrwt beam="1">  1        2 0.56187190E+00 0.47566656E+04</pdfrwt>
<pdfrwt beam="2">  1       -2 0.23827651E+00 0.47566656E+04</pdfrwt>
<totfact> 0.35569685E-02</totfact>
</mgrwt>
</event>
<event>
12    1  0.1980523E-007  0.2593585E+04  0.7818608E-02  0.8370384E-01
          1   -1    0    0  501    0  0.00000000000E+00  0.00000000000E+00  0.22101616208E+04  0.22101616208E+04  0.00000000000E+00 0. -1.
         -1   -1    0    0    0  501 -0.00000000000E+00 -0.00000000000E+00 -0.76088128719E+03  0.76088128719E+03  0.00000000000E+00 0.  1.
         23    2    1    2    0    0 -0.57728932469E+03  0.83135628896E+03  0.12354509503E+04  0.15997056750E+04  0.91120536514E+02 0.  0.
        254    2    1    2    0    0  0.57728932469E+03 -0.83135628896E+03  0.21382938328E+03  0.13713372330E+04  0.90023694546E+03 0.  0.
        -24    2    4    4    0    0  0.72729316547E+03 -0.54994028435E+03 -0.95274751320E+02  0.92031272918E+03  0.80675748290E+02 0.  0.
         24    2    4    4    0    0 -0.15000384078E+03 -0.28141600462E+03  0.30910413460E+03  0.45102450387E+03  0.78623260900E+02 0.  0.
         11    1    3    3    0    0 -0.25298803787E+03  0.41672418547E+03  0.54007579071E+03  0.72756020628E+03  0.00000000000E+00 0. -1.
        -11    1    3    3    0    0 -0.32430128683E+03  0.41463210349E+03  0.69537515964E+03  0.87214546867E+03  0.00000000000E+00 0.  1.
          2    1    6    6  502    0 -0.10428941372E+03 -0.12115226536E+03  0.17580676089E+03  0.23761769797E+03  0.00000000000E+00 0. -1.
          1    1    5    5  503    0  0.24035271518E+03 -0.21014348939E+03 -0.21197601662E+01  0.31927136923E+03  0.00000000000E+00 0. -1.
         -2    1    5    5    0  503  0.48694045029E+03 -0.33979679496E+03 -0.93154991154E+02  0.60104135995E+03  0.00000000000E+00 0.  1.
         -1    1    6    6    0  502 -0.45714427060E+02 -0.16026373926E+03  0.13329737372E+03  0.21340680590E+03  0.00000000000E+00 0.  1.
<mgrwt>
<rscale>  0 0.25935849E+04</rscale>
<asrwt>0</asrwt>
<pdfrwt beam="1">  1        1 0.34002486E+00 0.25935849E+04</pdfrwt>
<pdfrwt beam="2">  1       -1 0.11705866E+00 0.25935849E+04</pdfrwt>
<totfact> 0.12422477E+00</totfact>
</mgrwt>
</event>
<event>
12    1  0.1980523E-007  0.2899271E+04  0.7818608E-02  0.8273094E-01
         -1   -1    0    0    0  501 -0.00000000000E+00  0.00000000000E+00  0.17582153727E+04  0.17582153727E+04  0.00000000000E+00 0.  1.
          1   -1    0    0  501    0  0.00000000000E+00 -0.00000000000E+00 -0.11952137511E+04  0.11952137511E+04  0.00000000000E+00 0. -1.
         23    2    1    2    0    0 -0.93352755395E+01  0.10331092879E+04 -0.56411896604E+03  0.11805441653E+04  0.89735000588E+02 0.  0.
        254    2    1    2    0    0  0.93352755395E+01 -0.10331092879E+04  0.11271205877E+04  0.17728849585E+04  0.89739529120E+03 0.  0.
        -24    2    4    4    0    0  0.35936970907E+03 -0.46615195599E+03  0.87363369238E+03  0.10564691654E+04  0.80293430898E+02 0.  0.
         24    2    4    4    0    0 -0.35003443353E+03 -0.56695733189E+03  0.25348689534E+03  0.71641579311E+03  0.70931387056E+02 0.  0.
         11    1    3    3    0    0 -0.90873608301E+01  0.77809530430E+03 -0.46785085402E+03  0.90796437392E+03  0.00000000000E+00 0. -1.
        -11    1    3    3    0    0 -0.24791470938E+00  0.25501398358E+03 -0.96268112021E+02  0.27257979139E+03  0.00000000000E+00 0.  1.
          2    1    6    6  502    0 -0.11602706074E+03 -0.25446681431E+03  0.10456520202E+03  0.29857916853E+03  0.00000000000E+00 0. -1.
          3    1    5    5  503    0  0.64779867644E+02 -0.11622237078E+03  0.24817348444E+03  0.28159216804E+03  0.00000000000E+00 0. -1.
         -4    1    5    5    0  503  0.29458984142E+03 -0.34992958522E+03  0.62546020794E+03  0.77487699733E+03  0.00000000000E+00 0.  1.
         -1    1    6    6    0  502 -0.23400737279E+03 -0.31249051759E+03  0.14892169332E+03  0.41783662458E+03  0.00000000000E+00 0.  1.
<mgrwt>
<rscale>  0 0.28992711E+04</rscale>
<asrwt>0</asrwt>
<pdfrwt beam="1">  1        1 0.18387904E+00 0.28992711E+04</pdfrwt>
<pdfrwt beam="2">  1       -1 0.27049467E+00 0.28992711E+04</pdfrwt>
<totfact> 0.47423968E-01</totfact>
</mgrwt>
</event>
<event>
12    1  0.2650189E-007  0.3163882E+04  0.7818608E-02  0.8198421E-01
          2   -1    0    0  501    0  0.00000000000E+00  0.00000000000E+00  0.27645452590E+04  0.27645452590E+04  0.00000000000E+00 0. -1.
         -2   -1    0    0    0  501 -0.00000000000E+00 -0.00000000000E+00 -0.90522580590E+03  0.90522580590E+03  0.00000000000E+00 0.  1.
         23    2    1    2    0    0 -0.10359104534E+03 -0.14484117617E+04  0.88755678905E+03  0.17046415929E+04  0.97047259154E+02 0.  0.
        254    2    1    2    0    0  0.10359104534E+03  0.14484117617E+04  0.97176266402E+03  0.19651294719E+04  0.89932387388E+03 0.  0.
        -24    2    4    4    0    0  0.20397632247E+03  0.83771753194E+03  0.10215955114E+04  0.13390892694E+04  0.78266718247E+02 0.  0.
         24    2    4    4    0    0 -0.10038527713E+03  0.61069422976E+03 -0.49832847383E+02  0.62604020248E+03  0.80114769635E+02 0.  0.
         11    1    3    3    0    0 -0.38809369854E+02 -0.78588706234E+03  0.42778694533E+03  0.89561504707E+03  0.00000000000E+00 0.  1.
        -11    1    3    3    0    0 -0.64781675485E+02 -0.66252469936E+03  0.45976984372E+03  0.80902654588E+03  0.00000000000E+00 0. -1.
          4    1    6    6  502    0 -0.10602576107E+03  0.50764164148E+03 -0.61265703281E+02  0.52220205340E+03  0.00000000000E+00 0. -1.
          1    1    5    5  503    0  0.15641216840E+03  0.69035337817E+03  0.79281563374E+03  0.10628307402E+04  0.00000000000E+00 0. -1.
         -2    1    5    5    0  503  0.47564154069E+02  0.14736415377E+03  0.22877987766E+03  0.27625852927E+03  0.00000000000E+00 0.  1.
         -3    1    6    6    0  502  0.56404839397E+01  0.10305258828E+03  0.11432855899E+02  0.10383814907E+03  0.00000000000E+00 0.  1.
<mgrwt>
<rscale>  0 0.31638822E+04</rscale>
<asrwt>0</asrwt>
<pdfrwt beam="1">  1        2 0.42531465E+00 0.31638822E+04</pdfrwt>
<pdfrwt beam="2">  1       -2 0.13926551E+00 0.31638822E+04</pdfrwt>
<totfact> 0.74669870E-01</totfact>
</mgrwt>
</event>
<event>
12    1  0.1980523E-007  0.3004760E+04  0.7818608E-02  0.8242373E-01
         -2   -1    0    0    0  501 -0.00000000000E+00  0.00000000000E+00  0.10594855976E+04  0.10594855976E+04  0.00000000000E+00 0.  1.
          2   -1    0    0  501    0  0.00000000000E+00 -0.00000000000E+00 -0.21304162914E+04  0.21304162914E+04  0.00000000000E+00 0. -1.
         23    2    1    2    0    0 -0.49197582381E+03  0.12739205029E+04 -0.48578110864E+03  0.14525670420E+04  0.95152861253E+02 0.  0.
        254    2    1    2    0    0  0.49197582381E+03 -0.12739205029E+04 -0.58514958515E+03  0.17373348470E+04  0.90056575241E+03 0.  0.
        -24    2    4    4    0    0  0.25559547091E+03 -0.48294100649E+03  0.20770426526E+03  0.59002184795E+03  0.80147730822E+02 0.  0.
         24    2    4    4    0    0  0.23638035290E+03 -0.79097949646E+03 -0.79285385041E+03  0.11473129990E+04  0.78648932136E+02 0.  0.
         13    1    3    3    0    0 -0.17712565161E+03  0.35768566524E+03 -0.16670390345E+03  0.43255372268E+03  0.00000000000E+00 0.  1.
        -13    1    3    3    0    0 -0.31485017220E+03  0.91623483771E+03 -0.31907720519E+03  0.10200133193E+04  0.00000000000E+00 0. -1.
          2    1    6    6  502    0  0.21908781696E+03 -0.73413315529E+03 -0.76120019780E+03  0.10799892140E+04  0.00000000000E+00 0. -1.
          3    1    5    5  503    0  0.23882702761E+03 -0.41052452262E+03  0.15771052650E+03  0.50044114835E+03  0.00000000000E+00 0. -1.
         -4    1    5    5    0  503  0.16768443298E+02 -0.72416483867E+02  0.49993738759E+02  0.89580699603E+02  0.00000000000E+00 0.  1.
         -1    1    6    6    0  502  0.17292535938E+02 -0.56846341165E+02 -0.31653652607E+02  0.67323784997E+02  0.00000000000E+00 0.  1.
<mgrwt>
<rscale>  0 0.30047598E+04</rscale>
<asrwt>0</asrwt>
<pdfrwt beam="1">  1        2 0.32775635E+00 0.30047598E+04</pdfrwt>
<pdfrwt beam="2">  1       -2 0.16299779E+00 0.30047598E+04</pdfrwt>
<totfact> 0.11575399E+00</totfact>
</mgrwt>
</event>
<event>
12    1  0.1980523E-007  0.2003563E+04  0.7818608E-02  0.8604957E-01
         -2   -1    0    0    0  501 -0.00000000000E+00  0.00000000000E+00  0.17532024613E+04  0.17532024613E+04  0.00000000000E+00 0. -1.
          2   -1    0    0  501    0  0.00000000000E+00 -0.00000000000E+00 -0.57241881859E+03  0.57241881859E+03  0.00000000000E+00 0.  1.
         23    2    1    2    0    0 -0.38912629501E+03  0.64139987267E+03  0.15761038828E+03  0.77200160766E+03  0.91281857993E+02 0.  0.
        254    2    1    2    0    0  0.38912629501E+03 -0.64139987267E+03  0.10231732544E+04  0.15536196722E+04  0.89668138557E+03 0.  0.
        -24    2    4    4    0    0  0.18400491001E+03 -0.84099301133E+03  0.81969708457E+03  0.11913976186E+04  0.79987018713E+02 0.  0.
         24    2    4    4    0    0  0.20512138500E+03  0.19959313865E+03  0.20347616982E+03  0.36222205360E+03  0.88826014461E+02 0.  0.
         13    1    3    3    0    0 -0.22093728222E+03  0.43713893837E+03  0.12424261908E+03  0.50531174785E+03  0.00000000000E+00 0. -1.
        -13    1    3    3    0    0 -0.16818901279E+03  0.20426093430E+03  0.33367769199E+02  0.26668985981E+03  0.00000000000E+00 0.  1.
          2    1    6    6  502    0  0.14817134453E+03  0.17589959423E+03  0.12296472865E+03  0.26079827278E+03  0.00000000000E+00 0. -1.
          1    1    5    5  503    0  0.18966429343E+03 -0.76702064311E+03  0.75768084650E+03  0.10947024602E+04  0.00000000000E+00 0. -1.
         -2    1    5    5    0  503 -0.56593834161E+01 -0.73972368213E+02  0.62016238077E+02  0.96695158436E+02  0.00000000000E+00 0.  1.
         -1    1    6    6    0  502  0.56950040464E+02  0.23693544422E+02  0.80511441171E+02  0.10142378082E+03  0.00000000000E+00 0.  1.
<mgrwt>
<rscale>  0 0.20035629E+04</rscale>
<asrwt>0</asrwt>
<pdfrwt beam="1">  1        2 0.88064434E-01 0.20035629E+04</pdfrwt>
<pdfrwt beam="2">  1       -2 0.26972345E+00 0.20035629E+04</pdfrwt>
<totfact> 0.23726137E+00</totfact>
</mgrwt>
</event>
<event>
12    1  0.1980523E-007  0.1223285E+04  0.7818608E-02  0.9092716E-01
          2   -1    0    0  501    0  0.00000000000E+00  0.00000000000E+00  0.17998729744E+04  0.17998729744E+04  0.00000000000E+00 0. -1.
         -2   -1    0    0    0  501 -0.00000000000E+00 -0.00000000000E+00 -0.20785170985E+03  0.20785170985E+03  0.00000000000E+00 0.  1.
         23    2    1    2    0    0 -0.21309858023E+03  0.98753555459E+02  0.57953445395E+03  0.63209283532E+03  0.92292467396E+02 0.  0.
        254    2    1    2    0    0  0.21309858023E+03 -0.98753555459E+02  0.10124868106E+04  0.13756318489E+04  0.90114936196E+03 0.  0.
        -24    2    4    4    0    0 -0.19824062146E+03 -0.48785955824E+02 -0.56989415433E+02  0.22588624714E+03  0.78085784176E+02 0.  0.
         24    2    4    4    0    0  0.41133920169E+03 -0.49967599635E+02  0.10694762260E+04  0.11497456018E+04  0.80242450980E+02 0.  0.
         11    1    3    3    0    0 -0.14954446068E+03  0.10242351307E+03  0.35344787238E+03  0.39721470295E+03  0.00000000000E+00 0.  1.
        -11    1    3    3    0    0 -0.63554119554E+02 -0.36699576104E+01  0.22608658157E+03  0.23487813237E+03  0.00000000000E+00 0. -1.
          4    1    6    6  502    0  0.78636656790E+02 -0.43793126579E+01  0.30036469071E+03  0.31051867834E+03  0.00000000000E+00 0. -1.
          1    1    5    5  503    0 -0.73867931287E+02 -0.57769886268E+02 -0.20969543474E+02  0.96091377270E+02  0.00000000000E+00 0. -1.
         -2    1    5    5    0  503 -0.12437269018E+03  0.89839304445E+01 -0.36019871959E+02  0.12979486987E+03  0.00000000000E+00 0.  1.
         -3    1    6    6    0  502  0.33270254490E+03 -0.45588286977E+02  0.76911153533E+03  0.83922692347E+03  0.00000000000E+00 0.  1.
<mgrwt>
<rscale>  0 0.12232852E+04</rscale>
<asrwt>0</asrwt>
<pdfrwt beam="1">  1        2 0.27690353E+00 0.12232852E+04</pdfrwt>
<pdfrwt beam="2">  1       -2 0.31977187E-01 0.12232852E+04</pdfrwt>
<totfact> 0.77358726E+01</totfact>
</mgrwt>
</event>
<event>
12    1  0.1980523E-007  0.1897151E+04  0.7818608E-02  0.8656276E-01
          1   -1    0    0  501    0  0.00000000000E+00  0.00000000000E+00  0.16164488876E+04  0.16164488876E+04  0.00000000000E+00 0. -1.
         -1   -1    0    0    0  501 -0.00000000000E+00 -0.00000000000E+00 -0.55664958232E+03  0.55664958232E+03  0.00000000000E+00 0.  1.
         23    2    1    2    0    0  0.45479523505E+03 -0.45412678574E+03  0.11029501421E+02  0.64917075390E+03  0.90725820256E+02 0.  0.
        254    2    1    2    0    0 -0.45479523505E+03  0.45412678574E+03  0.10487698039E+04  0.15239277161E+04  0.89964867526E+03 0.  0.
        -24    2    4    4    0    0 -0.70178707339E+02  0.49708838715E+03  0.10061989563E+04  0.11272383021E+04  0.78790446501E+02 0.  0.
         24    2    4    4    0    0 -0.38461652771E+03 -0.42961601407E+02  0.42570847584E+02  0.39668941396E+03  0.75991061984E+02 0.  0.
         13    1    3    3    0    0  0.37763317968E+03 -0.40184916713E+03 -0.17430847312E+02  0.55171859309E+03  0.00000000000E+00 0.  1.
        -13    1    3    3    0    0  0.77162055371E+02 -0.52277618608E+02  0.28460348733E+02  0.97452160809E+02  0.00000000000E+00 0. -1.
          4    1    6    6  502    0 -0.36763557267E+03 -0.43040344395E+02  0.56869992007E+02  0.37448976158E+03  0.00000000000E+00 0. -1.
          3    1    5    5  503    0 -0.46279447902E+02  0.46817366661E+03  0.92339784564E+03  0.10363358291E+04  0.00000000000E+00 0. -1.
         -4    1    5    5    0  503 -0.23899259438E+02  0.28914720539E+02  0.82801110686E+02  0.90902472994E+02  0.00000000000E+00 0.  1.
         -3    1    6    6    0  502 -0.16980955035E+02  0.78742988219E-01 -0.14299144423E+02  0.22199652375E+02  0.00000000000E+00 0.  1.
<mgrwt>
<rscale>  0 0.18971511E+04</rscale>
<asrwt>0</asrwt>
<pdfrwt beam="1">  1        1 0.24868444E+00 0.18971511E+04</pdfrwt>
<pdfrwt beam="2">  1       -1 0.85638398E-01 0.18971511E+04</pdfrwt>
<totfact> 0.68529931E+00</totfact>
</mgrwt>
</event>
<event>
12    1  0.1980523E-007  0.1714322E+04  0.7818608E-02  0.8753238E-01
          2   -1    0    0  501    0  0.00000000000E+00  0.00000000000E+00  0.13249512748E+04  0.13249512748E+04  0.00000000000E+00 0. -1.
         -2   -1    0    0    0  501 -0.00000000000E+00 -0.00000000000E+00 -0.55453002472E+03  0.55453002472E+03  0.00000000000E+00 0.  1.
         23    2    1    2    0    0 -0.38460763742E+03 -0.41217597915E+03  0.15296859317E+02  0.57173710010E+03  0.94006623043E+02 0.  0.
        254    2    1    2    0    0  0.38460763742E+03  0.41217597915E+03  0.75512439080E+03  0.13077441994E+04  0.90673588936E+03 0.  0.
        -24    2    4    4    0    0  0.17979449373E+03  0.52030964081E+03  0.46710962788E+02  0.55810778681E+03  0.79083534029E+02 0.  0.
         24    2    4    4    0    0  0.20481314369E+03 -0.10813366166E+03  0.70841342801E+03  0.74963641264E+03  0.80398094230E+02 0.  0.
         11    1    3    3    0    0 -0.13793781553E+03 -0.98230699659E+02  0.31069311875E+02  0.17216681867E+03  0.00000000000E+00 0. -1.
        -11    1    3    3    0    0 -0.24666982188E+03 -0.31394527949E+03 -0.15772452558E+02  0.39957028143E+03  0.00000000000E+00 0.  1.
          2    1    6    6  502    0  0.97621070990E+01  0.98116440005E+01  0.79390366007E+02  0.80587823570E+02  0.00000000000E+00 0. -1.
          3    1    5    5  503    0  0.35014113566E+01  0.39636010313E+01 -0.81808673690E+01  0.97414888766E+01  0.00000000000E+00 0. -1.
         -4    1    5    5    0  503  0.17629308237E+03  0.51634603978E+03  0.54891830158E+02  0.54836629793E+03  0.00000000000E+00 0.  1.
         -1    1    6    6    0  502  0.19505103659E+03 -0.11794530566E+03  0.62902306200E+03  0.66904858907E+03  0.00000000000E+00 0.  1.
<mgrwt>
<rscale>  0 0.17143223E+04</rscale>
<asrwt>0</asrwt>
<pdfrwt beam="1">  1        2 0.20383866E+00 0.17143223E+04</pdfrwt>
<pdfrwt beam="2">  1       -2 0.85312312E-01 0.17143223E+04</pdfrwt>
<totfact> 0.18158715E+01</totfact>
</mgrwt>
</event>
<event>
12    1  0.1980523E-007  0.2337133E+04  0.7818608E-02  0.8463422E-01
          2   -1    0    0  501    0  0.00000000000E+00  0.00000000000E+00  0.41646818294E+04  0.41646818294E+04  0.00000000000E+00 0. -1.
         -2   -1    0    0    0  501 -0.00000000000E+00 -0.00000000000E+00 -0.32788758917E+03  0.32788758917E+03  0.00000000000E+00 0.  1.
         23    2    1    2    0    0  0.66306838732E+03 -0.38758883582E+03  0.28449037636E+04  0.29482335834E+04  0.93375834370E+02 0.  0.
        254    2    1    2    0    0 -0.66306838732E+03  0.38758883582E+03  0.99189047667E+03  0.15443358352E+04  0.90068954817E+03 0.  0.
        -24    2    4    4    0    0 -0.73411786839E+03  0.18771821503E+02  0.87213772593E+03  0.11431342049E+04  0.82765761975E+02 0.  0.
         24    2    4    4    0    0  0.71049481074E+02  0.36881701431E+03  0.11975275075E+03  0.40120163032E+03  0.74484951856E+02 0.  0.
         13    1    3    3    0    0  0.53969947146E+03 -0.31334218825E+03  0.21593113896E+04  0.22476842580E+04  0.00000000000E+00 0.  1.
        -13    1    3    3    0    0  0.12336891586E+03 -0.74246647567E+02  0.68559237394E+03  0.70054932537E+03  0.00000000000E+00 0. -1.
          2    1    6    6  502    0  0.26002949658E+02  0.73819027242E+02 -0.34758126391E+01  0.78342092437E+02  0.00000000000E+00 0. -1.
          1    1    5    5  503    0 -0.29164368428E+03  0.12030126699E+02  0.41000467788E+03  0.50329374963E+03  0.00000000000E+00 0. -1.
         -2    1    5    5    0  503 -0.44247418411E+03  0.67416948046E+01  0.46213304805E+03  0.63984045523E+03  0.00000000000E+00 0.  1.
         -1    1    6    6    0  502  0.45046531416E+02  0.29499798707E+03  0.12322856338E+03  0.32285953788E+03  0.00000000000E+00 0.  1.
<mgrwt>
<rscale>  0 0.23371328E+04</rscale>
<asrwt>0</asrwt>
<pdfrwt beam="1">  1        2 0.64072024E+00 0.23371328E+04</pdfrwt>
<pdfrwt beam="2">  1       -2 0.50444248E-01 0.23371328E+04</pdfrwt>
<totfact> 0.84331208E-01</totfact>
</mgrwt>
</event>
<event>
12    1  0.1980523E-007  0.3434713E+04  0.7818608E-02  0.8129439E-01
          1   -1    0    0  501    0  0.00000000000E+00  0.00000000000E+00  0.22002864854E+04  0.22002864854E+04  0.00000000000E+00 0. -1.
         -1   -1    0    0    0  501 -0.00000000000E+00 -0.00000000000E+00 -0.13404221997E+04  0.13404221997E+04  0.00000000000E+00 0.  1.
         23    2    1    2    0    0 -0.26165066350E+03  0.12668318863E+04  0.13676080168E+04  0.18845828256E+04  0.89312043680E+02 0.  0.
        254    2    1    2    0    0  0.26165066350E+03 -0.12668318863E+04 -0.50774373110E+03  0.16561258595E+04  0.90090236328E+03 0.  0.
        -24    2    4    4    0    0  0.33788270367E+03 -0.73179511087E+03  0.12569043072E+03  0.81965329410E+03  0.79653200871E+02 0.  0.
         24    2    4    4    0    0 -0.76232040171E+02 -0.53503677541E+03 -0.63343416182E+03  0.83647256538E+03  0.79823807822E+02 0.  0.
         11    1    3    3    0    0 -0.14234590565E+03  0.47788916507E+03  0.51467065825E+03  0.71660749187E+03  0.00000000000E+00 0. -1.
        -11    1    3    3    0    0 -0.11930475786E+03  0.78894272121E+03  0.85293735854E+03  0.11679753337E+04  0.00000000000E+00 0.  1.
          2    1    6    6  502    0  0.22645829581E+01 -0.17017074916E+02 -0.47228274827E+02  0.50251558362E+02  0.00000000000E+00 0. -1.
          1    1    5    5  503    0  0.70554623921E+02 -0.21524524965E+03  0.60031170211E+02  0.23433355255E+03  0.00000000000E+00 0. -1.
         -2    1    5    5    0  503  0.26732807975E+03 -0.51654986122E+03  0.65659260504E+02  0.58531974155E+03  0.00000000000E+00 0.  1.
         -1    1    6    6    0  502 -0.78496623129E+02 -0.51801970049E+03 -0.58620588699E+03  0.78622100702E+03  0.00000000000E+00 0.  1.
<mgrwt>
<rscale>  0 0.34347127E+04</rscale>
<asrwt>0</asrwt>
<pdfrwt beam="1">  1        1 0.33850561E+00 0.34347127E+04</pdfrwt>
<pdfrwt beam="2">  1       -1 0.20621880E+00 0.34347127E+04</pdfrwt>
<totfact> 0.24367157E-01</totfact>
</mgrwt>
</event>
<event>
12    1  0.1980523E-007  0.2362757E+04  0.7818608E-02  0.8453580E-01
          1   -1    0    0  501    0  0.00000000000E+00  0.00000000000E+00  0.85573821686E+03  0.85573821686E+03  0.00000000000E+00 0. -1.
         -1   -1    0    0    0  501 -0.00000000000E+00 -0.00000000000E+00 -0.16309376882E+04  0.16309376882E+04  0.00000000000E+00 0.  1.
         23    2    1    2    0    0  0.37029046977E+03 -0.93391218147E+03 -0.24660463255E+03  0.10384395105E+04  0.90751184230E+02 0.  0.
        254    2    1    2    0    0 -0.37029046977E+03  0.93391218147E+03 -0.52859483878E+03  0.14482363946E+04  0.89926033844E+03 0.  0.
        -24    2    4    4    0    0  0.73391316449E+02  0.16025557990E+03  0.21134270422E+03  0.28657141283E+03  0.79933095803E+02 0.  0.
         24    2    4    4    0    0 -0.44368178622E+03  0.77365660156E+03 -0.73993754300E+03  0.11616649817E+04  0.80993195398E+02 0.  0.
         13    1    3    3    0    0  0.20468368611E+03 -0.52161933061E+03 -0.91071214131E+02  0.56769367045E+03  0.00000000000E+00 0.  1.
        -13    1    3    3    0    0  0.16560678366E+03 -0.41229285086E+03 -0.15553341842E+03  0.47074584003E+03  0.00000000000E+00 0. -1.
          4    1    6    6  502    0 -0.14692119061E+03  0.31022848454E+03 -0.32197499444E+03  0.47063302680E+03  0.00000000000E+00 0. -1.
          1    1    5    5  503    0 -0.92018363602E+01 -0.35625782797E+01  0.13947984432E+02  0.17085433156E+02  0.00000000000E+00 0. -1.
         -2    1    5    5    0  503  0.82593152810E+02  0.16381815818E+03  0.19739471979E+03  0.26948597968E+03  0.00000000000E+00 0.  1.
         -3    1    6    6    0  502 -0.29676059560E+03  0.46342811702E+03 -0.41796254857E+03  0.69103195494E+03  0.00000000000E+00 0.  1.
<mgrwt>
<rscale>  0 0.23627575E+04</rscale>
<asrwt>0</asrwt>
<pdfrwt beam="1">  1        1 0.13165203E+00 0.23627575E+04</pdfrwt>
<pdfrwt beam="2">  1       -1 0.25091349E+00 0.23627575E+04</pdfrwt>
<totfact> 0.12243799E+00</totfact>
</mgrwt>
</event>
<event>
12    1  0.1980523E-007  0.1619449E+04  0.7818608E-02  0.8808688E-01
          2   -1    0    0  501    0  0.00000000000E+00  0.00000000000E+00  0.18268850304E+04  0.18268850304E+04  0.00000000000E+00 0. -1.
         -2   -1    0    0    0  501 -0.00000000000E+00 -0.00000000000E+00 -0.35889169117E+03  0.35889169117E+03  0.00000000000E+00 0.  1.
         23    2    1    2    0    0  0.53132952666E+03  0.64236418196E+02  0.71583788209E+03  0.89837804127E+03  0.90674408095E+02 0.  0.
        254    2    1    2    0    0 -0.53132952666E+03 -0.64236418196E+02  0.75215545713E+03  0.12873986803E+04  0.89734059698E+03 0.  0.
        -24    2    4    4    0    0 -0.42496591226E+03  0.36697065444E+03  0.27372485136E+03  0.62968501253E+03  0.79463406386E+02 0.  0.
         24    2    4    4    0    0 -0.10636361440E+03 -0.43120707264E+03  0.47843060576E+03  0.65771366775E+03  0.80241300176E+02 0.  0.
         11    1    3    3    0    0  0.93039893839E+02  0.46383853962E+02  0.14718499508E+03  0.18019796483E+03  0.00000000000E+00 0.  1.
        -11    1    3    3    0    0  0.43828963282E+03  0.17852564234E+02  0.56865288701E+03  0.71818007644E+03  0.00000000000E+00 0. -1.
          4    1    6    6  502    0 -0.57940199695E+02 -0.27068605775E+03  0.24085554291E+03  0.36693242042E+03  0.00000000000E+00 0. -1.
          1    1    5    5  503    0 -0.12756533016E+02  0.11055072303E+02  0.26903942834E+02  0.31761075206E+02  0.00000000000E+00 0. -1.
         -2    1    5    5    0  503 -0.41220937924E+03  0.35591558214E+03  0.24682090853E+03  0.59792393733E+03  0.00000000000E+00 0.  1.
         -3    1    6    6    0  502 -0.48423414709E+02 -0.16052101488E+03  0.23757506285E+03  0.29078124733E+03  0.00000000000E+00 0.  1.
<mgrwt>
<rscale>  0 0.16194491E+04</rscale>
<asrwt>0</asrwt>
<pdfrwt beam="1">  1        2 0.28105923E+00 0.16194491E+04</pdfrwt>
<pdfrwt beam="2">  1       -2 0.55214107E-01 0.16194491E+04</pdfrwt>
<totfact> 0.24617929E+01</totfact>
</mgrwt>
</event>
<event>
12    1  0.1980523E-007  0.3188924E+04  0.7818608E-02  0.8191748E-01
         -2   -1    0    0    0  501 -0.00000000000E+00  0.00000000000E+00  0.10639384207E+04  0.10639384207E+04  0.00000000000E+00 0.  1.
          2   -1    0    0  501    0  0.00000000000E+00 -0.00000000000E+00 -0.23895263207E+04  0.23895263207E+04  0.00000000000E+00 0. -1.
         23    2    1    2    0    0 -0.10081600625E+04  0.12483319490E+01  0.54361894731E+03  0.11467533614E+04  0.55977156443E+02 0.  0.
        254    2    1    2    0    0  0.10081600625E+04 -0.12483319490E+01 -0.18692068473E+04  0.23067113799E+04  0.90033042953E+03 0.  0.
        -24    2    4    4    0    0  0.64315259044E+03  0.39834035190E+03 -0.78917092226E+03  0.10960210005E+04  0.78428300743E+02 0.  0.
         24    2    4    4    0    0  0.36500747206E+03 -0.39958868385E+03 -0.10800359251E+04  0.12106903795E+04  0.79950138493E+02 0.  0.
         13    1    3    3    0    0 -0.69161189501E+03  0.12082503072E+01  0.40212979465E+03  0.80002302775E+03  0.00000000000E+00 0. -1.
        -13    1    3    3    0    0 -0.31654816749E+03  0.40081641780E-01  0.14148915266E+03  0.34673033364E+03  0.00000000000E+00 0.  1.
          4    1    6    6  502    0  0.47314162606E+01 -0.31939879937E+02 -0.60289464665E+02  0.68391240520E+02  0.00000000000E+00 0. -1.
          1    1    5    5  503    0  0.10247916036E+03  0.49681998097E+02 -0.84265619719E+02  0.14167206468E+03  0.00000000000E+00 0. -1.
         -2    1    5    5    0  503  0.54067343007E+03  0.34865835380E+03 -0.70490530255E+03  0.95434893578E+03  0.00000000000E+00 0.  1.
         -3    1    6    6    0  502  0.36027605580E+03 -0.36764880391E+03 -0.10197464604E+04  0.11422991390E+04  0.00000000000E+00 0.  1.
<mgrwt>
<rscale>  0 0.31889239E+04</rscale>
<asrwt>0</asrwt>
<pdfrwt beam="1">  1        2 0.36761943E+00 0.31889239E+04</pdfrwt>
<pdfrwt beam="2">  1       -2 0.16368284E+00 0.31889239E+04</pdfrwt>
<totfact> 0.80398922E-01</totfact>
</mgrwt>
</event>
<event>
12    1  0.1980523E-007  0.1864247E+04  0.7818608E-02  0.8672861E-01
          1   -1    0    0  501    0  0.00000000000E+00  0.00000000000E+00  0.98559042770E+03  0.98559042770E+03  0.00000000000E+00 0. -1.
         -1   -1    0    0    0  501 -0.00000000000E+00 -0.00000000000E+00 -0.88155698889E+03  0.88155698889E+03  0.00000000000E+00 0.  1.
         23    2    1    2    0    0  0.64298088411E+02 -0.69325628646E+03  0.18419104871E+03  0.72594073263E+03  0.91241887241E+02 0.  0.
        254    2    1    2    0    0 -0.64298088411E+02  0.69325628646E+03 -0.80157609892E+02  0.11412066840E+04  0.90066027457E+03 0.  0.
        -24    2    4    4    0    0  0.24210114635E+03  0.38022156576E+03 -0.38745020909E+03  0.60009969307E+03  0.82586760197E+02 0.  0.
         24    2    4    4    0    0 -0.30639923477E+03  0.31303472070E+03  0.30729259920E+03  0.54110699088E+03  0.80602770611E+02 0.  0.
         11    1    3    3    0    0 -0.10580022304E+02 -0.11462284863E+03  0.35727688169E+01  0.11516552859E+03  0.00000000000E+00 0.  1.
        -11    1    3    3    0    0  0.74878110715E+02 -0.57863343783E+03  0.18061827989E+03  0.61077520404E+03  0.00000000000E+00 0. -1.
          4    1    6    6  502    0 -0.30921437886E+03  0.29908763740E+03  0.30318835574E+03  0.52629851415E+03  0.00000000000E+00 0. -1.
          1    1    5    5  503    0  0.58110247676E+02  0.13905304996E+03 -0.16807054282E+03  0.22574379051E+03  0.00000000000E+00 0. -1.
         -2    1    5    5    0  503  0.18399089868E+03  0.24116851580E+03 -0.21937966627E+03  0.37435590256E+03  0.00000000000E+00 0.  1.
         -3    1    6    6    0  502  0.28151440948E+01  0.13947083294E+02  0.41042434606E+01  0.14808476730E+02  0.00000000000E+00 0.  1.
<mgrwt>
<rscale>  0 0.18642469E+04</rscale>
<asrwt>0</asrwt>
<pdfrwt beam="1">  1        1 0.15162930E+00 0.18642469E+04</pdfrwt>
<pdfrwt beam="2">  1       -1 0.13562415E+00 0.18642469E+04</pdfrwt>
<totfact> 0.66354659E+00</totfact>
</mgrwt>
</event>
<event>
12    1  0.1980523E-007  0.2456471E+04  0.7818608E-02  0.8418659E-01
          2   -1    0    0  501    0  0.00000000000E+00  0.00000000000E+00  0.14126151420E+04  0.14126151420E+04  0.00000000000E+00 0. -1.
         -2   -1    0    0    0  501 -0.00000000000E+00 -0.00000000000E+00 -0.10679218435E+04  0.10679218435E+04  0.00000000000E+00 0.  1.
         23    2    1    2    0    0  0.27287004798E+03 -0.38593207324E+03 -0.80920478928E+03  0.94124129378E+03  0.87870096714E+02 0.  0.
        254    2    1    2    0    0 -0.27287004798E+03  0.38593207324E+03  0.11538980877E+04  0.15392956917E+04  0.90252357392E+03 0.  0.
        -24    2    4    4    0    0  0.97585661799E+02  0.27647975324E+03 -0.16692135491E+02  0.30431933618E+03  0.79797341096E+02 0.  0.
         24    2    4    4    0    0 -0.37045570978E+03  0.10945232000E+03  0.11705902232E+04  0.12349763555E+04  0.75285355919E+02 0.  0.
         13    1    3    3    0    0  0.89267474705E+02 -0.13110982264E+03 -0.19474780292E+03  0.25116762207E+03  0.00000000000E+00 0. -1.
        -13    1    3    3    0    0  0.18360257328E+03 -0.25482225060E+03 -0.61445698635E+03  0.69007367172E+03  0.00000000000E+00 0.  1.
          2    1    6    6  502    0 -0.41497877682E+02  0.43229820292E+01  0.70162239353E+02  0.81630275369E+02  0.00000000000E+00 0. -1.
          1    1    5    5  503    0  0.25042593541E+01  0.28346776551E+01 -0.14116831829E+02  0.14614775168E+02  0.00000000000E+00 0. -1.
         -2    1    5    5    0  503  0.95081402445E+02  0.27364507559E+03 -0.25753036616E+01  0.28970456102E+03  0.00000000000E+00 0.  1.
         -3    1    6    6    0  502 -0.32895783210E+03  0.10512933797E+03  0.11004279838E+04  0.11533460802E+04  0.00000000000E+00 0.  1.
<mgrwt>
<rscale>  0 0.24564711E+04</rscale>
<asrwt>0</asrwt>
<pdfrwt beam="1">  1        2 0.21732541E+00 0.24564711E+04</pdfrwt>
<pdfrwt beam="2">  1       -2 0.16429567E+00 0.24564711E+04</pdfrwt>
<totfact> 0.29846037E+00</totfact>
</mgrwt>
</event>
<event>
12    1  0.1980523E-007  0.1711014E+04  0.7818608E-02  0.8755108E-01
          2   -1    0    0  501    0  0.00000000000E+00  0.00000000000E+00  0.82470899596E+03  0.82470899596E+03  0.00000000000E+00 0. -1.
         -2   -1    0    0    0  501 -0.00000000000E+00 -0.00000000000E+00 -0.88745473965E+03  0.88745473965E+03  0.00000000000E+00 0.  1.
         23    2    1    2    0    0 -0.58791445506E+03  0.11688985811E+03 -0.15698967469E+03  0.62647735230E+03  0.92311806322E+02 0.  0.
        254    2    1    2    0    0  0.58791445506E+03 -0.11688985811E+03  0.94243931001E+02  0.10856863833E+04  0.90029237417E+03 0.  0.
        -24    2    4    4    0    0  0.50597376526E+03  0.21121325830E+03  0.34922379997E+03  0.65500657859E+03  0.80348390941E+02 0.  0.
         24    2    4    4    0    0  0.81940689801E+02 -0.32810311642E+03 -0.25497986896E+03  0.43067980472E+03  0.78130845204E+02 0.  0.
         11    1    3    3    0    0 -0.56309422059E+02  0.40557944682E+02 -0.20140741118E+02  0.72258891094E+02  0.00000000000E+00 0. -1.
        -11    1    3    3    0    0 -0.53160503300E+03  0.76331913430E+02 -0.13684893357E+03  0.55421846120E+03  0.00000000000E+00 0.  1.
          4    1    6    6  502    0 -0.27280755121E+01 -0.68500150872E+02 -0.22781273385E+02  0.72240566737E+02  0.00000000000E+00 0. -1.
          3    1    5    5  503    0  0.14049055440E+03  0.30645952985E+02  0.63501771886E+02  0.15719174706E+03  0.00000000000E+00 0. -1.
         -4    1    5    5    0  503  0.36548321086E+03  0.18056730532E+03  0.28572202808E+03  0.49781483154E+03  0.00000000000E+00 0.  1.
         -3    1    6    6    0  502  0.84668765313E+02 -0.25960296555E+03 -0.23219859558E+03  0.35843923799E+03  0.00000000000E+00 0.  1.
<mgrwt>
<rscale>  0 0.17110136E+04</rscale>
<asrwt>0</asrwt>
<pdfrwt beam="1">  1        2 0.12687831E+00 0.17110136E+04</pdfrwt>
<pdfrwt beam="2">  1       -2 0.13653150E+00 0.17110136E+04</pdfrwt>
<totfact> 0.12047164E+01</totfact>
</mgrwt>
</event>
<event>
12    1  0.1980523E-007  0.1278197E+04  0.7818608E-02  0.9047036E-01
          3   -1    0    0  501    0  0.00000000000E+00  0.00000000000E+00  0.45936031630E+03  0.45936031630E+03  0.00000000000E+00 0. -1.
         -3   -1    0    0    0  501 -0.00000000000E+00 -0.00000000000E+00 -0.88916476445E+03  0.88916476445E+03  0.00000000000E+00 0.  1.
         23    2    1    2    0    0  0.11225545975E+03 -0.19221492024E+03 -0.34191088153E+03  0.41796975793E+03  0.90817420289E+02 0.  0.
        254    2    1    2    0    0 -0.11225545975E+03  0.19221492024E+03 -0.87893566622E+02  0.93055532282E+03  0.89925528409E+03 0.  0.
        -24    2    4    4    0    0 -0.29651783788E+03  0.41754451156E+03 -0.26350988886E+03  0.58113829744E+03  0.77575846114E+02 0.  0.
         24    2    4    4    0    0  0.18426237813E+03 -0.22532959132E+03  0.17561632224E+03  0.34941702538E+03  0.80778191780E+02 0.  0.
         13    1    3    3    0    0  0.50701274228E+01 -0.58729262840E+02 -0.14797514315E+03  0.15928426004E+03  0.00000000000E+00 0.  1.
        -13    1    3    3    0    0  0.10718533232E+03 -0.13348565740E+03 -0.19393573838E+03  0.25868549789E+03  0.00000000000E+00 0. -1.
          2    1    6    6  502    0  0.96329298881E+02 -0.56410941878E+02  0.63448915142E+02  0.12840285440E+03  0.00000000000E+00 0. -1.
          1    1    5    5  503    0 -0.20537486627E+03  0.22344460535E+03 -0.15785979404E+03  0.34209069255E+03  0.00000000000E+00 0. -1.
         -2    1    5    5    0  503 -0.91142971616E+02  0.19409990621E+03 -0.10565009482E+03  0.23904760489E+03  0.00000000000E+00 0.  1.
         -1    1    6    6    0  502  0.87933079253E+02 -0.16891864944E+03  0.11216740710E+03  0.22101417098E+03  0.00000000000E+00 0.  1.
<mgrwt>
<rscale>  0 0.12781972E+04</rscale>
<asrwt>0</asrwt>
<pdfrwt beam="1">  1        3 0.70670818E-01 0.12781972E+04</pdfrwt>
<pdfrwt beam="2">  1       -3 0.13679458E+00 0.12781972E+04</pdfrwt>
<totfact> 0.20091808E+00</totfact>
</mgrwt>
</event>
<event>
12    1  0.1980523E-007  0.2638239E+04  0.7818608E-02  0.8355327E-01
         -2   -1    0    0    0  501 -0.00000000000E+00  0.00000000000E+00  0.26690702898E+04  0.26690702898E+04  0.00000000000E+00 0.  1.
          2   -1    0    0  501    0  0.00000000000E+00 -0.00000000000E+00 -0.65194074138E+03  0.65194074138E+03  0.00000000000E+00 0. -1.
         23    2    1    2    0    0 -0.72013746940E+03 -0.78737061880E+03  0.30917232483E+03  0.11150854088E+04  0.96319656972E+02 0.  0.
        254    2    1    2    0    0  0.72013746940E+03  0.78737061880E+03  0.17079572236E+04  0.22059256224E+04  0.90024413780E+03 0.  0.
        -24    2    4    4    0    0  0.92167978135E+03  0.70546798228E+03  0.14552937664E+04  0.18632021945E+04  0.80397621843E+02 0.  0.
         24    2    4    4    0    0 -0.20154231195E+03  0.81902636519E+02  0.25266345718E+03  0.34272342789E+03  0.79329566085E+02 0.  0.
         11    1    3    3    0    0 -0.57037539741E+03 -0.57831344724E+03  0.26320411378E+03  0.85384480015E+03  0.00000000000E+00 0. -1.
        -11    1    3    3    0    0 -0.14976207199E+03 -0.20905717156E+03  0.45968211044E+02  0.26124060866E+03  0.00000000000E+00 0.  1.
          2    1    6    6  502    0 -0.73078385427E+02  0.32870752460E+02  0.15362146032E+03  0.17326421978E+03  0.00000000000E+00 0. -1.
          1    1    5    5  503    0  0.49071670383E+03  0.39777142335E+03  0.73381271400E+03  0.96824898032E+03  0.00000000000E+00 0. -1.
         -2    1    5    5    0  503  0.43096307751E+03  0.30769655893E+03  0.72148105239E+03  0.89495321415E+03  0.00000000000E+00 0.  1.
         -1    1    6    6    0  502 -0.12846392652E+03  0.49031884059E+02  0.99041996859E+02  0.16945920811E+03  0.00000000000E+00 0.  1.
<mgrwt>
<rscale>  0 0.26382386E+04</rscale>
<asrwt>0</asrwt>
<pdfrwt beam="1">  1        2 0.10029858E+00 0.26382386E+04</pdfrwt>
<pdfrwt beam="2">  1       -2 0.41062619E+00 0.26382386E+04</pdfrwt>
<totfact> 0.24964247E-01</totfact>
</mgrwt>
</event>
<event>
12    1  0.1980523E-007  0.1796489E+04  0.7818608E-02  0.8708169E-01
         -2   -1    0    0    0  501 -0.00000000000E+00  0.00000000000E+00  0.16785937412E+04  0.16785937412E+04  0.00000000000E+00 0.  1.
          2   -1    0    0  501    0  0.00000000000E+00 -0.00000000000E+00 -0.48066595524E+03  0.48066595524E+03  0.00000000000E+00 0. -1.
         23    2    1    2    0    0  0.17878076387E+03  0.61212824397E+03  0.20772338782E+03  0.67684490941E+03  0.91139875775E+02 0.  0.
        254    2    1    2    0    0 -0.17878076387E+03 -0.61212824397E+03  0.99020439816E+03  0.14824147870E+04  0.90021403129E+03 0.  0.
        -24    2    4    4    0    0  0.22107019644E+03 -0.57316199548E+03  0.31875989031E+03  0.69590396839E+03  0.72716990712E+02 0.  0.
         24    2    4    4    0    0 -0.39985096031E+03 -0.38966248490E+02  0.67144450785E+03  0.78651081866E+03  0.79764539469E+02 0.  0.
         13    1    3    3    0    0  0.35298208107E+02  0.27922715305E+03  0.99701214065E+02  0.29858683592E+03  0.00000000000E+00 0.  1.
        -13    1    3    3    0    0  0.14348255576E+03  0.33290109092E+03  0.10802217376E+03  0.37825807350E+03  0.00000000000E+00 0. -1.
          4    1    6    6  502    0 -0.30009842780E+02  0.16838064624E+02  0.74584343623E+02  0.82139730932E+02  0.00000000000E+00 0. -1.
          1    1    5    5  503    0  0.37383763788E+02 -0.18570994522E+03  0.86464144653E+02  0.20823491028E+03  0.00000000000E+00 0. -1.
         -2    1    5    5    0  503  0.18368643265E+03 -0.38745205026E+03  0.23229574566E+03  0.48766905811E+03  0.00000000000E+00 0.  1.
         -3    1    6    6    0  502 -0.36984111753E+03 -0.55804313114E+02  0.59686016423E+03  0.70437108772E+03  0.00000000000E+00 0.  1.
<mgrwt>
<rscale>  0 0.17964886E+04</rscale>
<asrwt>0</asrwt>
<pdfrwt beam="1">  1        2 0.73948609E-01 0.17964886E+04</pdfrwt>
<pdfrwt beam="2">  1       -2 0.25824519E+00 0.17964886E+04</pdfrwt>
<totfact> 0.34821548E+00</totfact>
</mgrwt>
</event>
<event>
12    1  0.1980523E-007  0.1791494E+04  0.7818608E-02  0.8710836E-01
         -2   -1    0    0    0  501 -0.00000000000E+00  0.00000000000E+00  0.27980658312E+03  0.27980658312E+03  0.00000000000E+00 0. -1.
          2   -1    0    0  501    0  0.00000000000E+00 -0.00000000000E+00 -0.28675608299E+04  0.28675608299E+04  0.00000000000E+00 0.  1.
         23    2    1    2    0    0 -0.50412310241E+03  0.43340536535E+03 -0.98974424974E+03  0.11959016768E+04  0.92772989129E+02 0.  0.
        254    2    1    2    0    0  0.50412310241E+03 -0.43340536535E+03 -0.15980099971E+04  0.19514657363E+04  0.90144453852E+03 0.  0.
        -24    2    4    4    0    0  0.12002043882E+03 -0.55386064238E+03 -0.43682392753E+03  0.71985838461E+03  0.78831677185E+02 0.  0.
         24    2    4    4    0    0  0.38410266359E+03  0.12045527703E+03 -0.11611860696E+04  0.12316073517E+04  0.80369463262E+02 0.  0.
         11    1    3    3    0    0 -0.14453279754E+03  0.18234876704E+03 -0.34707773365E+03  0.41785614223E+03  0.00000000000E+00 0.  1.
        -11    1    3    3    0    0 -0.35959030488E+03  0.25105659832E+03 -0.64266651608E+03  0.77804553454E+03  0.00000000000E+00 0. -1.
          4    1    6    6  502    0  0.11643798561E+03  0.40830788356E+02 -0.25350376203E+03  0.28193814062E+03  0.00000000000E+00 0. -1.
          3    1    5    5  503    0  0.52268558205E+02 -0.33838520818E+03 -0.30365064273E+03  0.45764644009E+03  0.00000000000E+00 0. -1.
         -4    1    5    5    0  503  0.67751880613E+02 -0.21547543420E+03 -0.13317328479E+03  0.26221194452E+03  0.00000000000E+00 0.  1.
         -3    1    6    6    0  502  0.26766467798E+03  0.79624488670E+02 -0.90768230753E+03  0.94966921106E+03  0.00000000000E+00 0.  1.
<mgrwt>
<rscale>  0 0.17914937E+04</rscale>
<asrwt>0</asrwt>
<pdfrwt beam="1">  1        2 0.44116322E+00 0.17914937E+04</pdfrwt>
<pdfrwt beam="2">  1       -2 0.43047165E-01 0.17914937E+04</pdfrwt>
<totfact> 0.10198193E+01</totfact>
</mgrwt>
</event>
<event>
12    1  0.1980523E-007  0.2074670E+04  0.7818608E-02  0.8572484E-01
          2   -1    0    0  501    0  0.00000000000E+00  0.00000000000E+00  0.19864902501E+04  0.19864902501E+04  0.00000000000E+00 0. -1.
         -2   -1    0    0    0  501 -0.00000000000E+00 -0.00000000000E+00 -0.54169119144E+03  0.54169119144E+03  0.00000000000E+00 0.  1.
         23    2    1    2    0    0 -0.24093035575E+03 -0.56371155584E+03 -0.10963380214E+03  0.62921110003E+03  0.89826963215E+02 0.  0.
        254    2    1    2    0    0  0.24093035575E+03  0.56371155584E+03  0.15544328608E+04  0.18989703415E+04  0.90222429846E+03 0.  0.
        -24    2    4    4    0    0  0.25228382689E+03 -0.16347242595E+03  0.23322166845E+03  0.38879134365E+03  0.79974989259E+02 0.  0.
         24    2    4    4    0    0 -0.11353471140E+02  0.72718398179E+03  0.13212111924E+04  0.15101789979E+04  0.78205793411E+02 0.  0.
         13    1    3    3    0    0 -0.13612893688E+03 -0.21308085797E+03 -0.29352084895E+02  0.25455075010E+03  0.00000000000E+00 0. -1.
        -13    1    3    3    0    0 -0.10480141887E+03 -0.35063069786E+03 -0.80281717242E+02  0.37466034992E+03  0.00000000000E+00 0.  1.
          2    1    6    6  502    0 -0.17713908899E+02  0.14245869642E+03  0.20802775075E+03  0.25275246356E+03  0.00000000000E+00 0. -1.
          1    1    5    5  503    0  0.56367190542E+02 -0.73225508998E+01  0.68259250650E+02  0.88826827145E+02  0.00000000000E+00 0. -1.
         -2    1    5    5    0  503  0.19591663635E+03 -0.15614987505E+03  0.16496241780E+03  0.29996451651E+03  0.00000000000E+00 0.  1.
         -1    1    6    6    0  502  0.63604377584E+01  0.58472528537E+03  0.11131834416E+04  0.12574265343E+04  0.00000000000E+00 0.  1.
<mgrwt>
<rscale>  0 0.20746704E+04</rscale>
<asrwt>0</asrwt>
<pdfrwt beam="1">  1        2 0.30561388E+00 0.20746704E+04</pdfrwt>
<pdfrwt beam="2">  1       -2 0.83337107E-01 0.20746704E+04</pdfrwt>
<totfact> 0.79107901E+00</totfact>
</mgrwt>
</event>
<event>
12    1  0.1980523E-007  0.1998816E+04  0.7818608E-02  0.8607174E-01
          2   -1    0    0  501    0  0.00000000000E+00  0.00000000000E+00  0.33377107047E+04  0.33377107047E+04  0.00000000000E+00 0. -1.
         -2   -1    0    0    0  501 -0.00000000000E+00 -0.00000000000E+00 -0.29925195445E+03  0.29925195445E+03  0.00000000000E+00 0.  1.
         23    2    1    2    0    0 -0.78978202945E+03  0.18961925980E+01  0.13875624359E+04  0.15991894143E+04  0.91203178107E+02 0.  0.
        254    2    1    2    0    0  0.78978202945E+03 -0.18961925980E+01  0.16508963143E+04  0.20377732448E+04  0.89627111251E+03 0.  0.
        -24    2    4    4    0    0  0.53338257404E+02 -0.35297742119E+03  0.40245672833E+03  0.54427965954E+03  0.82649259147E+02 0.  0.
         24    2    4    4    0    0  0.73644377204E+03  0.35108122859E+03  0.12484395860E+04  0.14934935853E+04  0.79462135536E+02 0.  0.
         13    1    3    3    0    0 -0.46486594137E+03 -0.14321552683E+01  0.72494241162E+03  0.86118749102E+03  0.00000000000E+00 0.  1.
        -13    1    3    3    0    0 -0.32491608808E+03  0.33283478663E+01  0.66262002433E+03  0.73800192332E+03  0.00000000000E+00 0. -1.
          4    1    6    6  502    0  0.23806567647E+02  0.26666335840E+02  0.70658555348E+02  0.79186347145E+02  0.00000000000E+00 0. -1.
          3    1    5    5  503    0  0.22036442467E+02 -0.23188368385E+02  0.58893336768E+02  0.67020372579E+02  0.00000000000E+00 0. -1.
         -4    1    5    5    0  503  0.31301814936E+02 -0.32978905281E+03  0.34356339156E+03  0.47725928696E+03  0.00000000000E+00 0.  1.
         -3    1    6    6    0  502  0.71263720440E+03  0.32441489275E+03  0.11777810306E+04  0.14143072381E+04  0.00000000000E+00 0.  1.
<mgrwt>
<rscale>  0 0.19988161E+04</rscale>
<asrwt>0</asrwt>
<pdfrwt beam="1">  1        2 0.51349393E+00 0.19988161E+04</pdfrwt>
<pdfrwt beam="2">  1       -2 0.46038764E-01 0.19988161E+04</pdfrwt>
<totfact> 0.43873013E+00</totfact>
</mgrwt>
</event>
<event>
12    1  0.1980523E-007  0.1780264E+04  0.7818608E-02  0.8716866E-01
          2   -1    0    0  501    0  0.00000000000E+00  0.00000000000E+00  0.19083966046E+04  0.19083966046E+04  0.00000000000E+00 0.  1.
         -2   -1    0    0    0  501 -0.00000000000E+00 -0.00000000000E+00 -0.41518337556E+03  0.41518337556E+03  0.00000000000E+00 0. -1.
         23    2    1    2    0    0 -0.12924825348E+03  0.56325577044E+03  0.97349215636E+03  0.11356392225E+04  0.89595151465E+02 0.  0.
        254    2    1    2    0    0  0.12924825348E+03 -0.56325577044E+03  0.51972107271E+03  0.11879407577E+04  0.89840473978E+03 0.  0.
        -24    2    4    4    0    0 -0.29502944406E+03 -0.50177891445E+03  0.12685507954E+03  0.60176287731E+03  0.84863993839E+02 0.  0.
         24    2    4    4    0    0  0.42427769754E+03 -0.61476855997E+02  0.39286599317E+03  0.58617788041E+03  0.73958437276E+02 0.  0.
         11    1    3    3    0    0 -0.29090927233E+02  0.25039013929E+03  0.35609712195E+03  0.43628736420E+03  0.00000000000E+00 0. -1.
        -11    1    3    3    0    0 -0.10015732624E+03  0.31286563116E+03  0.61739503441E+03  0.69935185828E+03  0.00000000000E+00 0.  1.
          2    1    6    6  502    0  0.24569021943E+03 -0.23903142937E+02  0.17836720432E+03  0.30454868862E+03  0.00000000000E+00 0. -1.
          3    1    5    5  503    0 -0.14199353683E+03 -0.31395367937E+03  0.94801944385E+02  0.35737443382E+03  0.00000000000E+00 0. -1.
         -4    1    5    5    0  503 -0.15303590723E+03 -0.18782523508E+03  0.32053135159E+02  0.24438844349E+03  0.00000000000E+00 0.  1.
         -1    1    6    6    0  502  0.17858747811E+03 -0.37573713060E+02  0.21449878884E+03  0.28162919179E+03  0.00000000000E+00 0.  1.
<mgrwt>
<rscale>  0 0.17802635E+04</rscale>
<asrwt>0</asrwt>
<pdfrwt beam="1">  1        2 0.29359947E+00 0.17802635E+04</pdfrwt>
<pdfrwt beam="2">  1       -2 0.63874367E-01 0.17802635E+04</pdfrwt>
<totfact> 0.16099768E+01</totfact>
</mgrwt>
</event>
<event>
12    1  0.1980523E-007  0.2061932E+04  0.7818608E-02  0.8578201E-01
          2   -1    0    0  501    0  0.00000000000E+00  0.00000000000E+00  0.70665003544E+03  0.70665003544E+03  0.00000000000E+00 0. -1.
         -2   -1    0    0    0  501 -0.00000000000E+00 -0.00000000000E+00 -0.15041260804E+04  0.15041260804E+04  0.00000000000E+00 0.  1.
         23    2    1    2    0    0 -0.60404321607E+03 -0.55294251158E+03 -0.18058615950E+03  0.84372802963E+03  0.93016122189E+02 0.  0.
        254    2    1    2    0    0  0.60404321607E+03  0.55294251158E+03 -0.61688988545E+03  0.13670480862E+04  0.90424206451E+03 0.  0.
        -24    2    4    4    0    0  0.29517431616E+03  0.30533620780E+03 -0.81100578433E+03  0.91896875520E+03  0.80094407423E+02 0.  0.
         24    2    4    4    0    0  0.30886889991E+03  0.24760630377E+03  0.19411589887E+03  0.44807933101E+03  0.79907607135E+02 0.  0.
         11    1    3    3    0    0 -0.25216107741E+03 -0.17600036145E+03 -0.47351663727E+02  0.31113263450E+03  0.00000000000E+00 0. -1.
        -11    1    3    3    0    0 -0.35188213866E+03 -0.37694215013E+03 -0.13323449577E+03  0.53259539513E+03  0.00000000000E+00 0.  1.
          2    1    6    6  502    0  0.30051470152E+03  0.21422450731E+03  0.18287016973E+03  0.41187707431E+03  0.00000000000E+00 0. -1.
          3    1    5    5  503    0  0.14723546488E+03  0.15954562174E+03 -0.49863112987E+03  0.54384381141E+03  0.00000000000E+00 0. -1.
         -4    1    5    5    0  503  0.14793885128E+03  0.14579058607E+03 -0.31237465446E+03  0.37512494379E+03  0.00000000000E+00 0.  1.
         -1    1    6    6    0  502  0.83541983870E+01  0.33381796466E+02  0.11245729139E+02  0.36202256695E+02  0.00000000000E+00 0.  1.
<mgrwt>
<rscale>  0 0.20619319E+04</rscale>
<asrwt>0</asrwt>
<pdfrwt beam="1">  1        2 0.10871539E+00 0.20619319E+04</pdfrwt>
<pdfrwt beam="2">  1       -2 0.23140401E+00 0.20619319E+04</pdfrwt>
<totfact> 0.31342763E+00</totfact>
</mgrwt>
</event>
<event>
12    1  0.1980523E-007  0.1100565E+04  0.7818608E-02  0.9204641E-01
         -1   -1    0    0    0  501 -0.00000000000E+00  0.00000000000E+00  0.55678110647E+03  0.55678110647E+03  0.00000000000E+00 0.  1.
          1   -1    0    0  501    0  0.00000000000E+00 -0.00000000000E+00 -0.54385961180E+03  0.54385961180E+03  0.00000000000E+00 0. -1.
         23    2    1    2    0    0  0.22665622758E+01  0.18368897518E+03  0.23594956592E+02  0.20497211455E+03  0.87806997792E+02 0.  0.
        254    2    1    2    0    0 -0.22665622758E+01 -0.18368897518E+03 -0.10673461917E+02  0.89566860371E+03  0.87656234689E+03 0.  0.
        -24    2    4    4    0    0  0.16504031918E+03 -0.40004036710E+03  0.25261926567E+03  0.50737014872E+03  0.79607613651E+02 0.  0.
         24    2    4    4    0    0 -0.16730688145E+03  0.21635139193E+03 -0.26329272759E+03  0.38829845500E+03  0.81566613153E+02 0.  0.
         13    1    3    3    0    0  0.54210251762E+01  0.12759764749E+03 -0.25651458934E+02  0.13026336594E+03  0.00000000000E+00 0. -1.
        -13    1    3    3    0    0 -0.31544629004E+01  0.56091327684E+02  0.49246415526E+02  0.74708748615E+02  0.00000000000E+00 0.  1.
          4    1    6    6  502    0 -0.14733514613E+03  0.13678905296E+03 -0.16362394666E+03  0.25921359189E+03  0.00000000000E+00 0. -1.
          1    1    5    5  503    0  0.16452599391E+03 -0.32305351692E+03  0.21724369780E+03  0.42264311387E+03  0.00000000000E+00 0. -1.
         -2    1    5    5    0  503  0.51432526992E+00 -0.76986850183E+02  0.35375567870E+02  0.84727034845E+02  0.00000000000E+00 0.  1.
         -3    1    6    6    0  502 -0.19971735320E+02  0.79562338964E+02 -0.99668780926E+02  0.12908486311E+03  0.00000000000E+00 0.  1.
<mgrwt>
<rscale>  0 0.11005649E+04</rscale>
<asrwt>0</asrwt>
<pdfrwt beam="1">  1        1 0.83670709E-01 0.11005649E+04</pdfrwt>
<pdfrwt beam="2">  1       -1 0.85658633E-01 0.11005649E+04</pdfrwt>
<totfact> 0.52902205E+01</totfact>
</mgrwt>
</event>
<event>
12    1  0.1980523E-007  0.1366416E+04  0.7818608E-02  0.8978494E-01
          2   -1    0    0  501    0  0.00000000000E+00  0.00000000000E+00  0.11813496403E+04  0.11813496403E+04  0.00000000000E+00 0. -1.
         -2   -1    0    0    0  501 -0.00000000000E+00 -0.00000000000E+00 -0.39511854613E+03  0.39511854613E+03  0.00000000000E+00 0.  1.
         23    2    1    2    0    0  0.23798605795E+03 -0.27246599753E+03  0.93516306518E+02  0.38456932868E+03  0.90957052423E+02 0.  0.
        254    2    1    2    0    0 -0.23798605795E+03  0.27246599753E+03  0.69271478763E+03  0.11918988577E+04  0.89994112390E+03 0.  0.
        -24    2    4    4    0    0  0.31476175098E+03 -0.38937219325E+02  0.18933375191E+03  0.37798346968E+03  0.80207024704E+02 0.  0.
         24    2    4    4    0    0 -0.55274780892E+03  0.31140321686E+03  0.50338103572E+03  0.81391538806E+03  0.81016591263E+02 0.  0.
         13    1    3    3    0    0  0.23795330383E+03 -0.23149604621E+03  0.80838611651E+02  0.34168271152E+03  0.00000000000E+00 0. -1.
        -13    1    3    3    0    0  0.32754111813E-01 -0.40969951320E+02  0.12677694867E+02  0.42886617156E+02  0.00000000000E+00 0.  1.
          2    1    6    6  502    0 -0.21012061012E+03  0.16089687072E+03  0.22747747349E+03  0.34897632405E+03  0.00000000000E+00 0. -1.
          3    1    5    5  503    0  0.31317581564E+03 -0.48630016504E+02  0.18662711585E+03  0.36779566389E+03  0.00000000000E+00 0. -1.
         -4    1    5    5    0  503  0.15859353413E+01  0.96927971798E+01  0.27066360581E+01  0.10187805791E+02  0.00000000000E+00 0.  1.
         -1    1    6    6    0  502 -0.34262719881E+03  0.15050634614E+03  0.27590356224E+03  0.46493906401E+03  0.00000000000E+00 0.  1.
<mgrwt>
<rscale>  0 0.13664160E+04</rscale>
<asrwt>0</asrwt>
<pdfrwt beam="1">  1        2 0.18174610E+00 0.13664160E+04</pdfrwt>
<pdfrwt beam="2">  1       -2 0.60787469E-01 0.13664160E+04</pdfrwt>
<totfact> 0.47771917E+01</totfact>
</mgrwt>
</event>
<event>
12    1  0.1980523E-007  0.2277040E+04  0.7818608E-02  0.8487029E-01
         -1   -1    0    0    0  501 -0.00000000000E+00  0.00000000000E+00  0.55559215477E+03  0.55559215477E+03  0.00000000000E+00 0. -1.
          1   -1    0    0  501    0  0.00000000000E+00 -0.00000000000E+00 -0.23330557087E+04  0.23330557087E+04  0.00000000000E+00 0.  1.
         23    2    1    2    0    0 -0.48069779399E+03 -0.51869921085E+03  0.68232806356E+02  0.71711051293E+03  0.97326930577E+02 0.  0.
        254    2    1    2    0    0  0.48069779399E+03  0.51869921085E+03 -0.18456963603E+04  0.21715373506E+04  0.89936653815E+03 0.  0.
        -24    2    4    4    0    0  0.42277902034E+03  0.75790041649E+03 -0.12694063720E+04  0.15397427438E+04  0.79120404493E+02 0.  0.
         24    2    4    4    0    0  0.57918773648E+02 -0.23920120564E+03 -0.57628998836E+03  0.63179460682E+03  0.80513808756E+02 0.  0.
         13    1    3    3    0    0 -0.10760938716E+03 -0.17945078575E+03  0.30222530115E+02  0.21141373191E+03  0.00000000000E+00 0. -1.
        -13    1    3    3    0    0 -0.37308840683E+03 -0.33924842509E+03  0.38010276241E+02  0.50569678102E+03  0.00000000000E+00 0.  1.
          2    1    6    6  502    0 -0.29780214013E+01 -0.12110652501E+02 -0.40102872610E+01  0.13100340430E+02  0.00000000000E+00 0. -1.
          1    1    5    5  503    0  0.24180206170E+03  0.35322933682E+03 -0.61293421840E+03  0.74761457818E+03  0.00000000000E+00 0. -1.
         -2    1    5    5    0  503  0.18097695864E+03  0.40467107967E+03 -0.65647215357E+03  0.79212816558E+03  0.00000000000E+00 0.  1.
         -1    1    6    6    0  502  0.60896795050E+02 -0.22709055314E+03 -0.57227970110E+03  0.61869426639E+03  0.00000000000E+00 0.  1.
<mgrwt>
<rscale>  0 0.22770397E+04</rscale>
<asrwt>0</asrwt>
<pdfrwt beam="1">  1        1 0.35893165E+00 0.22770397E+04</pdfrwt>
<pdfrwt beam="2">  1       -1 0.85475716E-01 0.22770397E+04</pdfrwt>
<totfact> 0.21635419E+00</totfact>
</mgrwt>
</event>
<event>
12    1  0.2076683E-007  0.2955865E+04  0.7818608E-02  0.8256447E-01
          1   -1    0    0  501    0  0.00000000000E+00  0.00000000000E+00  0.19617264628E+04  0.19617264628E+04  0.00000000000E+00 0. -1.
         -1   -1    0    0    0  501 -0.00000000000E+00 -0.00000000000E+00 -0.11134497822E+04  0.11134497822E+04  0.00000000000E+00 0.  1.
         23    2    1    2    0    0  0.17553974512E+03  0.84052776519E+03  0.14541509855E+04  0.16912386608E+04  0.91825885035E+02 0.  0.
        254    2    1    2    0    0 -0.17553974512E+03 -0.84052776519E+03 -0.60587430497E+03  0.13839375841E+04  0.90049899344E+03 0.  0.
        -24    2    4    4    0    0 -0.43564138241E+03 -0.11201913257E+03 -0.31125552301E+03  0.55230792189E+03  0.76369757373E+02 0.  0.
         24    2    4    4    0    0  0.26010163730E+03 -0.72850863262E+03 -0.29461878196E+03  0.83162966225E+03  0.80187149370E+02 0.  0.
         11    1    3    3    0    0  0.80373953575E+02  0.19294186857E+03  0.35419117134E+03  0.41126381182E+03  0.00000000000E+00 0.  1.
        -11    1    3    3    0    0  0.95165791544E+02  0.64758589662E+03  0.10999598141E+04  0.12799748490E+04  0.00000000000E+00 0. -1.
          4    1    6    6  502    0  0.24312208350E+03 -0.70134313774E+03 -0.26550770568E+03  0.78834312714E+03  0.00000000000E+00 0. -1.
          3    1    5    5  503    0 -0.40559086329E+03 -0.12210865393E+03 -0.29826310247E+03  0.51804956331E+03  0.00000000000E+00 0. -1.
         -4    1    5    5    0  503 -0.30050519125E+02  0.10089521363E+02 -0.12992420543E+02  0.34258358580E+02  0.00000000000E+00 0.  1.
         -3    1    6    6    0  502  0.16979553799E+02 -0.27165494881E+02 -0.29111076282E+02  0.43286535108E+02  0.00000000000E+00 0.  1.
<mgrwt>
<rscale>  0 0.29558646E+04</rscale>
<asrwt>0</asrwt>
<pdfrwt beam="1">  1        1 0.30180407E+00 0.29558646E+04</pdfrwt>
<pdfrwt beam="2">  1       -1 0.17129997E+00 0.29558646E+04</pdfrwt>
<totfact> 0.65055154E-01</totfact>
</mgrwt>
</event>
<event>
12    1  0.1980523E-007  0.2652122E+04  0.7818608E-02  0.8350709E-01
         -2   -1    0    0    0  501 -0.00000000000E+00  0.00000000000E+00  0.60453601793E+03  0.60453601793E+03  0.00000000000E+00 0.  1.
          2   -1    0    0  501    0  0.00000000000E+00 -0.00000000000E+00 -0.29087385863E+04  0.29087385863E+04  0.00000000000E+00 0. -1.
         23    2    1    2    0    0  0.85714687880E+03 -0.59247155201E+03 -0.31285365340E+03  0.10917152527E+04  0.90782557458E+02 0.  0.
        254    2    1    2    0    0 -0.85714687880E+03  0.59247155201E+03 -0.19913489150E+04  0.24215593516E+04  0.90152974443E+03 0.  0.
        -24    2    4    4    0    0 -0.67848888869E+03  0.29054674203E+03 -0.19148284687E+04  0.20537505103E+04  0.80984642598E+02 0.  0.
         24    2    4    4    0    0 -0.17865799011E+03  0.30192480998E+03 -0.76520446274E+02  0.36780884131E+03  0.79691258862E+02 0.  0.
         13    1    3    3    0    0  0.43307720406E+03 -0.35354929051E+03 -0.15898783590E+03  0.58123153515E+03  0.00000000000E+00 0. -1.
        -13    1    3    3    0    0  0.42406967474E+03 -0.23892226150E+03 -0.15386581750E+03  0.51048371754E+03  0.00000000000E+00 0.  1.
          2    1    6    6  502    0 -0.26982152734E+02  0.98413047219E+02  0.21902648392E+01  0.10206841671E+03  0.00000000000E+00 0. -1.
          1    1    5    5  503    0 -0.43973478899E+03  0.19725437898E+03 -0.11424266564E+04  0.12399252558E+04  0.00000000000E+00 0. -1.
         -2    1    5    5    0  503 -0.23875409970E+03  0.93292363051E+02 -0.77240181234E+03  0.81382525449E+03  0.00000000000E+00 0.  1.
         -1    1    6    6    0  502 -0.15167583738E+03  0.20351176276E+03 -0.78710711113E+02  0.26574042460E+03  0.00000000000E+00 0.  1.
<mgrwt>
<rscale>  0 0.26521216E+04</rscale>
<asrwt>0</asrwt>
<pdfrwt beam="1">  1        2 0.44749824E+00 0.26521216E+04</pdfrwt>
<pdfrwt beam="2">  1       -2 0.93005542E-01 0.26521216E+04</pdfrwt>
<totfact> 0.17111218E+00</totfact>
</mgrwt>
</event>
<event>
12    1  0.1980523E-007  0.4250539E+04  0.7818608E-02  0.7955828E-01
          2   -1    0    0  501    0  0.00000000000E+00  0.00000000000E+00  0.38634591662E+04  0.38634591662E+04  0.00000000000E+00 0. -1.
         -2   -1    0    0    0  501 -0.00000000000E+00 -0.00000000000E+00 -0.11691001509E+04  0.11691001509E+04  0.00000000000E+00 0.  1.
         23    2    1    2    0    0 -0.67415648656E+02  0.20271859884E+04  0.12239154513E+04  0.23708251402E+04  0.93887763678E+02 0.  0.
        254    2    1    2    0    0  0.67415648656E+02 -0.20271859884E+04  0.14704435639E+04  0.26617341769E+04  0.89922002454E+03 0.  0.
        -24    2    4    4    0    0  0.84719630342E+02 -0.20531985345E+04  0.12069370556E+04  0.23845635756E+04  0.81515349928E+02 0.  0.
         24    2    4    4    0    0 -0.17303981686E+02  0.26012546078E+02  0.26350650835E+03  0.27717060129E+03  0.80073603264E+02 0.  0.
         13    1    3    3    0    0  0.62999291009E+01  0.99013693044E+03  0.56692436827E+03  0.11409706699E+04  0.00000000000E+00 0.  1.
        -13    1    3    3    0    0 -0.73715577756E+02  0.10370490579E+04  0.65699108305E+03  0.12298544703E+04  0.00000000000E+00 0. -1.
          4    1    6    6  502    0 -0.12756952279E+02  0.28076452255E+02  0.28130071841E+02  0.41741202000E+02  0.00000000000E+00 0. -1.
          3    1    5    5  503    0 -0.12934111504E+02 -0.30965812388E+03  0.19804748091E+03  0.36780191628E+03  0.00000000000E+00 0. -1.
         -4    1    5    5    0  503  0.97653741846E+02 -0.17435404106E+04  0.10088895747E+04  0.20167616593E+04  0.00000000000E+00 0.  1.
         -3    1    6    6    0  502 -0.45470294078E+01 -0.20639061771E+01  0.23537643651E+03  0.23542939929E+03  0.00000000000E+00 0.  1.
<mgrwt>
<rscale>  0 0.42505391E+04</rscale>
<asrwt>0</asrwt>
<pdfrwt beam="1">  1        2 0.59437833E+00 0.42505391E+04</pdfrwt>
<pdfrwt beam="2">  1       -2 0.17986156E+00 0.42505391E+04</pdfrwt>
<totfact> 0.61470011E-02</totfact>
</mgrwt>
</event>
<event>
12    1  0.1980523E-007  0.1216244E+04  0.7818608E-02  0.9098756E-01
          2   -1    0    0  501    0  0.00000000000E+00  0.00000000000E+00  0.10068840753E+04  0.10068840753E+04  0.00000000000E+00 0. -1.
         -2   -1    0    0    0  501 -0.00000000000E+00 -0.00000000000E+00 -0.36728403296E+03  0.36728403296E+03  0.00000000000E+00 0.  1.
         23    2    1    2    0    0  0.14549033798E+03  0.21662626100E+03  0.19375739916E+03  0.33669028175E+03  0.87886521694E+02 0.  0.
        254    2    1    2    0    0 -0.14549033798E+03 -0.21662626100E+03  0.44584264323E+03  0.10374778266E+04  0.89971673468E+03 0.  0.
        -24    2    4    4    0    0  0.20184088127E+02  0.21400030547E+03 -0.15475876920E+03  0.27624888547E+03  0.78483386316E+02 0.  0.
         24    2    4    4    0    0 -0.16567442611E+03 -0.43062656646E+03  0.60060141242E+03  0.76122894108E+03  0.76551870800E+02 0.  0.
         11    1    3    3    0    0  0.10318175176E+03  0.90777705128E+02  0.66081793975E+02  0.15249219370E+03  0.00000000000E+00 0.  1.
        -11    1    3    3    0    0  0.42308586228E+02  0.12584855587E+03  0.12767560519E+03  0.18419808805E+03  0.00000000000E+00 0. -1.
          2    1    6    6  502    0 -0.25594154193E+01 -0.43517553504E+01  0.30586692413E+02  0.31000550554E+02  0.00000000000E+00 0. -1.
          3    1    5    5  503    0  0.40943636132E+02  0.13054420894E+03 -0.12478978681E+03  0.18517738177E+03  0.00000000000E+00 0. -1.
         -2    1    5    5    0  503 -0.20759548005E+02  0.83456096526E+02 -0.29968982384E+02  0.91071503699E+02  0.00000000000E+00 0.  1.
         -1    1    6    6    0  502 -0.16311501069E+03 -0.42627481111E+03  0.57001472001E+03  0.73022839053E+03  0.00000000000E+00 0.  1.
<mgrwt>
<rscale>  0 0.12162441E+04</rscale>
<asrwt>0</asrwt>
<pdfrwt beam="1">  1        2 0.15490524E+00 0.12162441E+04</pdfrwt>
<pdfrwt beam="2">  1       -2 0.56505236E-01 0.12162441E+04</pdfrwt>
<totfact> 0.72223670E+01</totfact>
</mgrwt>
</event>
<event>
12    1  0.1980523E-007  0.2400722E+04  0.7818608E-02  0.8439233E-01
          2   -1    0    0  501    0  0.00000000000E+00  0.00000000000E+00  0.17096958190E+04  0.17096958190E+04  0.00000000000E+00 0.  1.
         -2   -1    0    0    0  501 -0.00000000000E+00 -0.00000000000E+00 -0.84276215026E+03  0.84276215026E+03  0.00000000000E+00 0. -1.
         23    2    1    2    0    0  0.75066597741E+03 -0.44403401789E+03  0.95559324577E+03  0.12969355233E+04  0.90651429162E+02 0.  0.
        254    2    1    2    0    0 -0.75066597741E+03  0.44403401789E+03 -0.88659577000E+02  0.12555224460E+04  0.89878277301E+03 0.  0.
        -24    2    4    4    0    0 -0.67582691823E+02  0.50247586530E+03 -0.21048819515E+03  0.55476324199E+03  0.80047229319E+02 0.  0.
         24    2    4    4    0    0 -0.68308328558E+03 -0.58441847412E+02  0.12182861815E+03  0.70075920398E+03  0.78759286370E+02 0.  0.
         11    1    3    3    0    0  0.12309314446E+03 -0.11298609105E+03  0.17041847537E+03  0.23866343610E+03  0.00000000000E+00 0.  1.
        -11    1    3    3    0    0  0.62757283294E+03 -0.33104792684E+03  0.78517477040E+03  0.10582720872E+04  0.00000000000E+00 0. -1.
          2    1    6    6  502    0 -0.29051153896E+03 -0.48159607164E+01  0.17714483857E+02  0.29109096634E+03  0.00000000000E+00 0. -1.
          1    1    5    5  503    0  0.57587260791E+01  0.94932149967E+02 -0.13001771432E+02  0.95991260456E+02  0.00000000000E+00 0. -1.
         -2    1    5    5    0  503 -0.73341417902E+02  0.40754371533E+03 -0.19748642372E+03  0.45877198153E+03  0.00000000000E+00 0.  1.
         -1    1    6    6    0  502 -0.39257174663E+03 -0.53625886695E+02  0.10411413430E+03  0.40966823764E+03  0.00000000000E+00 0.  1.
<mgrwt>
<rscale>  0 0.24007223E+04</rscale>
<asrwt>0</asrwt>
<pdfrwt beam="1">  1        2 0.26303012E+00 0.24007223E+04</pdfrwt>
<pdfrwt beam="2">  1       -2 0.12965572E+00 0.24007223E+04</pdfrwt>
<totfact> 0.38084460E+00</totfact>
</mgrwt>
</event>
<event>
12    1  0.1980523E-007  0.1673188E+04  0.7818608E-02  0.8776806E-01
          2   -1    0    0  501    0  0.00000000000E+00  0.00000000000E+00  0.81612853632E+03  0.81612853632E+03  0.00000000000E+00 0. -1.
         -2   -1    0    0    0  501 -0.00000000000E+00 -0.00000000000E+00 -0.85757224935E+03  0.85757224935E+03  0.00000000000E+00 0.  1.
         23    2    1    2    0    0  0.33259477685E+03 -0.48705055502E+03  0.21815742003E+02  0.59736149116E+03  0.92343358129E+02 0.  0.
        254    2    1    2    0    0 -0.33259477685E+03  0.48705055502E+03 -0.63259455037E+02  0.10763392945E+04  0.89814641875E+03 0.  0.
        -24    2    4    4    0    0 -0.10374779254E+03  0.65680911927E+03  0.17920009814E+03  0.69304064869E+03  0.77658495719E+02 0.  0.
         24    2    4    4    0    0 -0.22884698431E+03 -0.16975856425E+03 -0.24245955318E+03  0.38329864581E+03  0.83320493214E+02 0.  0.
         13    1    3    3    0    0  0.66706428964E+02 -0.85912380612E+02 -0.31297732986E+02  0.11318229940E+03  0.00000000000E+00 0.  1.
        -13    1    3    3    0    0  0.26588834789E+03 -0.40113817441E+03  0.53113474989E+02  0.48417919176E+03  0.00000000000E+00 0. -1.
          2    1    6    6  502    0 -0.56470757711E+02 -0.28781549684E+02 -0.15315154157E+02  0.65206426260E+02  0.00000000000E+00 0. -1.
          3    1    5    5  503    0  0.84592097947E+01  0.42455467010E+02 -0.11767585750E+00  0.43290169288E+02  0.00000000000E+00 0. -1.
         -2    1    5    5    0  503 -0.11220700234E+03  0.61435365226E+03  0.17931777400E+03  0.64975047941E+03  0.00000000000E+00 0.  1.
         -1    1    6    6    0  502 -0.17237622660E+03 -0.14097701456E+03 -0.22714439902E+03  0.31809221955E+03  0.00000000000E+00 0.  1.
<mgrwt>
<rscale>  0 0.16731876E+04</rscale>
<asrwt>0</asrwt>
<pdfrwt beam="1">  1        2 0.12555824E+00 0.16731876E+04</pdfrwt>
<pdfrwt beam="2">  1       -2 0.13193419E+00 0.16731876E+04</pdfrwt>
<totfact> 0.13375125E+01</totfact>
</mgrwt>
</event>
<event>
12    1  0.2905390E-007  0.2147327E+04  0.7818608E-02  0.8540677E-01
          2   -1    0    0  501    0  0.00000000000E+00  0.00000000000E+00  0.12269569471E+04  0.12269569471E+04  0.00000000000E+00 0.  1.
         -2   -1    0    0    0  501 -0.00000000000E+00 -0.00000000000E+00 -0.93952230512E+03  0.93952230512E+03  0.00000000000E+00 0. -1.
         23    2    1    2    0    0  0.22488249470E+03  0.83489720222E+03  0.30172793533E+03  0.92023595345E+03  0.90382456051E+02 0.  0.
        254    2    1    2    0    0 -0.22488249470E+03 -0.83489720222E+03 -0.14293293321E+02  0.12462432988E+04  0.89738095972E+03 0.  0.
        -24    2    4    4    0    0 -0.48413239478E+03 -0.38893667314E+03 -0.24858954276E+03  0.67427627761E+03  0.84828216938E+02 0.  0.
         24    2    4    4    0    0  0.25924990008E+03 -0.44596052908E+03  0.23429624944E+03  0.57196702119E+03  0.78487175005E+02 0.  0.
         11    1    3    3    0    0  0.70895222391E+02  0.13739188172E+03  0.42353914959E+02  0.16030132823E+03  0.00000000000E+00 0.  1.
        -11    1    3    3    0    0  0.15398727231E+03  0.69750532050E+03  0.25937402037E+03  0.75993462522E+03  0.00000000000E+00 0. -1.
          4    1    6    6  502    0 -0.13172700906E+01 -0.92690754385E+01 -0.42408666645E+01  0.10277933160E+02  0.00000000000E+00 0. -1.
          3    1    5    5  503    0 -0.32790969631E+02 -0.29952949973E+02  0.41975384912E+01  0.44609934216E+02  0.00000000000E+00 0. -1.
         -4    1    5    5    0  503 -0.45134142515E+03 -0.35898372317E+03 -0.25278708125E+03  0.62966634339E+03  0.00000000000E+00 0.  1.
         -3    1    6    6    0  502  0.26056717017E+03 -0.43669145364E+03  0.23853711610E+03  0.56168908803E+03  0.00000000000E+00 0.  1.
<mgrwt>
<rscale>  0 0.21473271E+04</rscale>
<asrwt>0</asrwt>
<pdfrwt beam="1">  1        2 0.18876261E+00 0.21473271E+04</pdfrwt>
<pdfrwt beam="2">  1       -2 0.14454189E+00 0.21473271E+04</pdfrwt>
<totfact> 0.55369195E+00</totfact>
</mgrwt>
</event>
<event>
12    1  0.1980523E-007  0.1895736E+04  0.7818608E-02  0.8656982E-01
          2   -1    0    0  501    0  0.00000000000E+00  0.00000000000E+00  0.10846993889E+04  0.10846993889E+04  0.00000000000E+00 0. -1.
         -2   -1    0    0    0  501 -0.00000000000E+00 -0.00000000000E+00 -0.82829711978E+03  0.82829711978E+03  0.00000000000E+00 0.  1.
         23    2    1    2    0    0  0.72043293070E+03  0.11580197904E+03  0.55743487830E+02  0.73762888262E+03  0.92495005565E+02 0.  0.
        254    2    1    2    0    0 -0.72043293070E+03 -0.11580197904E+03  0.20065878124E+03  0.11753676260E+04  0.89932830703E+03 0.  0.
        -24    2    4    4    0    0 -0.40974174329E+03 -0.40504396709E+03  0.39367150930E+03  0.70229273472E+03  0.79302689364E+02 0.  0.
         24    2    4    4    0    0 -0.31069118741E+03  0.28924198805E+03 -0.19301272806E+03  0.47307489130E+03  0.79724513153E+02 0.  0.
         13    1    3    3    0    0  0.39190297461E+03  0.25555945173E+02  0.57515879834E+02  0.39692458261E+03  0.00000000000E+00 0. -1.
        -13    1    3    3    0    0  0.32852995609E+03  0.90246033863E+02 -0.17723920033E+01  0.34070430001E+03  0.00000000000E+00 0.  1.
          2    1    6    6  502    0 -0.14304527808E+03  0.10822307395E+03 -0.43454209546E+02  0.18456016267E+03  0.00000000000E+00 0. -1.
          1    1    5    5  503    0 -0.13157430895E+03 -0.13035780145E+03  0.17264595043E+03  0.25320264488E+03  0.00000000000E+00 0. -1.
         -2    1    5    5    0  503 -0.27816743434E+03 -0.27468616564E+03  0.22102555887E+03  0.44909008984E+03  0.00000000000E+00 0.  1.
         -1    1    6    6    0  502 -0.16764590933E+03  0.18101891410E+03 -0.14955851851E+03  0.28851472863E+03  0.00000000000E+00 0.  1.
<mgrwt>
<rscale>  0 0.18957356E+04</rscale>
<asrwt>0</asrwt>
<pdfrwt beam="1">  1        2 0.16687683E+00 0.18957356E+04</pdfrwt>
<pdfrwt beam="2">  1       -2 0.12743033E+00 0.18957356E+04</pdfrwt>
<totfact> 0.95302105E+00</totfact>
</mgrwt>
</event>
<event>
12    1  0.1980523E-007  0.2668816E+04  0.7818608E-02  0.8345194E-01
         -1   -1    0    0    0  501 -0.00000000000E+00  0.00000000000E+00  0.95851763058E+03  0.95851763058E+03  0.00000000000E+00 0.  1.
          1   -1    0    0  501    0  0.00000000000E+00 -0.00000000000E+00 -0.18577071684E+04  0.18577071684E+04  0.00000000000E+00 0. -1.
         23    2    1    2    0    0  0.11793891748E+04 -0.50573458862E+02 -0.41826563262E+03  0.12556637760E+04  0.90713166562E+02 0.  0.
        254    2    1    2    0    0 -0.11793891748E+04  0.50573458862E+02 -0.48092390520E+03  0.15605610230E+04  0.90030350636E+03 0.  0.
        -24    2    4    4    0    0 -0.25061143881E+03  0.31010501612E+03 -0.42899078749E+03  0.59142369617E+03  0.82326656422E+02 0.  0.
         24    2    4    4    0    0 -0.92877773596E+03 -0.25953155725E+03 -0.51933117705E+02  0.96913732681E+03  0.80903630855E+02 0.  0.
         11    1    3    3    0    0  0.64577790410E+03 -0.54481360694E+02 -0.19075454635E+03  0.67556244496E+03  0.00000000000E+00 0.  1.
        -11    1    3    3    0    0  0.53361127067E+03  0.39079018314E+01 -0.22751108628E+03  0.58010133103E+03  0.00000000000E+00 0. -1.
          2    1    6    6  502    0 -0.48120256197E+03 -0.16223713176E+03 -0.57617634907E+02  0.51107395200E+03  0.00000000000E+00 0. -1.
          3    1    5    5  503    0 -0.15260349666E+03  0.20128700509E+03 -0.21271570572E+03  0.33023061196E+03  0.00000000000E+00 0. -1.
         -4    1    5    5    0  503 -0.98007942149E+02  0.10881801102E+03 -0.21627508177E+03  0.26119308421E+03  0.00000000000E+00 0.  1.
         -1    1    6    6    0  502 -0.44757517399E+03 -0.97294425497E+02  0.56845172019E+01  0.45806337481E+03  0.00000000000E+00 0.  1.
<mgrwt>
<rscale>  0 0.26688163E+04</rscale>
<asrwt>0</asrwt>
<pdfrwt beam="1">  1        1 0.28580110E+00 0.26688163E+04</pdfrwt>
<pdfrwt beam="2">  1       -1 0.14746425E+00 0.26688163E+04</pdfrwt>
<totfact> 0.11902946E+00</totfact>
</mgrwt>
</event>
<event>
12    1  0.1980523E-007  0.2228111E+04  0.7818608E-02  0.8506818E-01
         -2   -1    0    0    0  501 -0.00000000000E+00  0.00000000000E+00  0.85461152455E+03  0.85461152455E+03  0.00000000000E+00 0.  1.
          2   -1    0    0  501    0  0.00000000000E+00 -0.00000000000E+00 -0.14522613400E+04  0.14522613400E+04  0.00000000000E+00 0. -1.
         23    2    1    2    0    0 -0.26647133661E+03  0.81417009504E+03  0.11957968733E+03  0.86966885949E+03  0.90248028478E+02 0.  0.
        254    2    1    2    0    0  0.26647133661E+03 -0.81417009504E+03 -0.71722950276E+03  0.14372040050E+04  0.90402282912E+03 0.  0.
        -24    2    4    4    0    0 -0.12136605889E+03 -0.64520330105E+03 -0.76578088572E+02  0.66572699555E+03  0.79443118098E+02 0.  0.
         24    2    4    4    0    0  0.38783739550E+03 -0.16896679399E+03 -0.64065141419E+03  0.77147700949E+03  0.75992886840E+02 0.  0.
         13    1    3    3    0    0 -0.40282215780E+02  0.24963673764E+03  0.46934613400E+02  0.25718478886E+03  0.00000000000E+00 0.  1.
        -13    1    3    3    0    0 -0.22618912083E+03  0.56453335740E+03  0.72645073932E+02  0.61248407062E+03  0.00000000000E+00 0. -1.
          2    1    6    6  502    0  0.38484914137E+03 -0.15785542906E+03 -0.60649102064E+03  0.73543086433E+03  0.00000000000E+00 0. -1.
          1    1    5    5  503    0 -0.28930281602E+02 -0.32594264793E+03 -0.61920190433E+02  0.33303105098E+03  0.00000000000E+00 0. -1.
         -2    1    5    5    0  503 -0.92435777286E+02 -0.31926065313E+03 -0.14657898139E+02  0.33269594457E+03  0.00000000000E+00 0.  1.
         -1    1    6    6    0  502  0.29882541308E+01 -0.11111364931E+02 -0.34160393542E+02  0.36046145152E+02  0.00000000000E+00 0.  1.
<mgrwt>
<rscale>  0 0.22281107E+04</rscale>
<asrwt>0</asrwt>
<pdfrwt beam="1">  1        2 0.22342482E+00 0.22281107E+04</pdfrwt>
<pdfrwt beam="2">  1       -2 0.13147870E+00 0.22281107E+04</pdfrwt>
<totfact> 0.52002624E+00</totfact>
</mgrwt>
</event>
<event>
12    1  0.1980523E-007  0.1454682E+04  0.7818608E-02  0.8915161E-01
         -1   -1    0    0    0  501 -0.00000000000E+00  0.00000000000E+00  0.17801667496E+03  0.17801667496E+03  0.00000000000E+00 0.  1.
          1   -1    0    0  501    0  0.00000000000E+00 -0.00000000000E+00 -0.29717717741E+04  0.29717717741E+04  0.00000000000E+00 0. -1.
         23    2    1    2    0    0  0.29537504361E+03  0.95062510945E+02 -0.18401943859E+03  0.37157647612E+03  0.89009136864E+02 0.  0.
        254    2    1    2    0    0 -0.29537504361E+03 -0.95062510945E+02 -0.26097356605E+04  0.27782119729E+04  0.90080977531E+03 0.  0.
        -24    2    4    4    0    0  0.61777173819E+01 -0.35133783085E+02  0.49436458761E+02  0.10016551673E+03  0.79477168925E+02 0.  0.
         24    2    4    4    0    0 -0.30155276099E+03 -0.59928727860E+02 -0.26591721193E+04  0.26780464562E+04  0.78809526500E+02 0.  0.
         13    1    3    3    0    0  0.19915645842E+03  0.81758307124E+02 -0.81089332920E+02  0.23005041975E+03  0.00000000000E+00 0.  1.
        -13    1    3    3    0    0  0.96218585190E+02  0.13304203821E+02 -0.10293010567E+03  0.14152605636E+03  0.00000000000E+00 0. -1.
          4    1    6    6  502    0 -0.12214377267E+03 -0.59175396702E+02 -0.13057329477E+04  0.13127678239E+04  0.00000000000E+00 0. -1.
          3    1    5    5  503    0 -0.56799506510E+01 -0.35212387733E+02 -0.11971606047E+02  0.37623044010E+02  0.00000000000E+00 0. -1.
         -4    1    5    5    0  503  0.11857668033E+02  0.78604648164E-01  0.61408064808E+02  0.62542472716E+02  0.00000000000E+00 0.  1.
         -3    1    6    6    0  502 -0.17940898832E+03 -0.75333115820E+00 -0.13534391716E+04  0.13652786323E+04  0.00000000000E+00 0.  1.
<mgrwt>
<rscale>  0 0.14546820E+04</rscale>
<asrwt>0</asrwt>
<pdfrwt beam="1">  1        1 0.45719565E+00 0.14546820E+04</pdfrwt>
<pdfrwt beam="2">  1       -1 0.27387181E-01 0.14546820E+04</pdfrwt>
<totfact> 0.73297708E+00</totfact>
</mgrwt>
</event>
<event>
12    1  0.1980523E-007  0.1746423E+04  0.7818608E-02  0.8735322E-01
          2   -1    0    0  501    0  0.00000000000E+00  0.00000000000E+00  0.12844383612E+04  0.12844383612E+04  0.00000000000E+00 0. -1.
         -2   -1    0    0    0  501 -0.00000000000E+00 -0.00000000000E+00 -0.59364359418E+03  0.59364359418E+03  0.00000000000E+00 0.  1.
         23    2    1    2    0    0 -0.29576635220E+03 -0.56348552751E+03  0.18840264194E+03  0.67010871134E+03  0.92501106589E+02 0.  0.
        254    2    1    2    0    0  0.29576635220E+03  0.56348552751E+03  0.50239212505E+03  0.12079732440E+04  0.89543723181E+03 0.  0.
        -24    2    4    4    0    0  0.42191517447E+03  0.39672295301E+03  0.69724585259E+03  0.91039174879E+03  0.85204703080E+02 0.  0.
         24    2    4    4    0    0 -0.12614882227E+03  0.16676257450E+03 -0.19485372755E+03  0.29758149521E+03  0.82846179988E+02 0.  0.
         11    1    3    3    0    0 -0.20436407029E+03 -0.34728806308E+03  0.16044929531E+03  0.43372531439E+03  0.00000000000E+00 0. -1.
        -11    1    3    3    0    0 -0.91402281915E+02 -0.21619746443E+03  0.27953346636E+02  0.23638339695E+03  0.00000000000E+00 0.  1.
          4    1    6    6  502    0  0.10686774281E+02  0.41215657230E+01 -0.46701150482E+01  0.12369495669E+02  0.00000000000E+00 0. -1.
          3    1    5    5  503    0  0.57166383999E+02  0.31030235507E+02  0.48433617893E+02  0.81096771313E+02  0.00000000000E+00 0. -1.
         -4    1    5    5    0  503  0.36474879047E+03  0.36569271750E+03  0.64881223470E+03  0.82929497748E+03  0.00000000000E+00 0.  1.
         -3    1    6    6    0  502 -0.13683559655E+03  0.16264100878E+03 -0.19018361250E+03  0.28521199954E+03  0.00000000000E+00 0.  1.
<mgrwt>
<rscale>  0 0.17464233E+04</rscale>
<asrwt>0</asrwt>
<pdfrwt beam="1">  1        2 0.19760590E+00 0.17464233E+04</pdfrwt>
<pdfrwt beam="2">  1       -2 0.91329784E-01 0.17464233E+04</pdfrwt>
<totfact> 0.16352281E+01</totfact>
</mgrwt>
</event>
<event>
12    1  0.1980523E-007  0.2072328E+04  0.7818608E-02  0.8573532E-01
          1   -1    0    0  501    0  0.00000000000E+00  0.00000000000E+00  0.96004249277E+03  0.96004249277E+03  0.00000000000E+00 0. -1.
         -1   -1    0    0    0  501 -0.00000000000E+00 -0.00000000000E+00 -0.11183216995E+04  0.11183216995E+04  0.00000000000E+00 0.  1.
         23    2    1    2    0    0 -0.14936236028E+03  0.52672393171E+03 -0.69678251650E+03  0.89080690006E+03  0.91015619550E+02 0.  0.
        254    2    1    2    0    0  0.14936236028E+03 -0.52672393171E+03  0.53850330979E+03  0.11875572922E+04  0.90584727889E+03 0.  0.
        -24    2    4    4    0    0  0.11724592999E+03 -0.16269497971E+03 -0.24102231065E+03  0.32299014405E+03  0.77553945117E+02 0.  0.
         24    2    4    4    0    0  0.32116430285E+02 -0.36402895200E+03  0.77952562044E+03  0.86456714814E+03  0.79168287464E+02 0.  0.
         11    1    3    3    0    0 -0.13871961761E+03  0.32980951852E+03 -0.44685505805E+03  0.57244815811E+03  0.00000000000E+00 0.  1.
        -11    1    3    3    0    0 -0.10642742663E+02  0.19691441319E+03 -0.24992745844E+03  0.31835874195E+03  0.00000000000E+00 0. -1.
          2    1    6    6  502    0 -0.13017946226E+02 -0.26162166597E+03  0.55335683781E+03  0.61222475691E+03  0.00000000000E+00 0. -1.
          1    1    5    5  503    0  0.12849982025E+03 -0.15323917980E+03 -0.22872973019E+03  0.30382847053E+03  0.00000000000E+00 0. -1.
         -2    1    5    5    0  503 -0.11253890261E+02 -0.94557999124E+01 -0.12292580455E+02  0.19161673524E+02  0.00000000000E+00 0.  1.
         -1    1    6    6    0  502  0.45134376510E+02 -0.10240728603E+03  0.22616878262E+03  0.25234239123E+03  0.00000000000E+00 0.  1.
<mgrwt>
<rscale>  0 0.20723285E+04</rscale>
<asrwt>0</asrwt>
<pdfrwt beam="1">  1        1 0.14769885E+00 0.20723285E+04</pdfrwt>
<pdfrwt beam="2">  1       -1 0.17204949E+00 0.20723285E+04</pdfrwt>
<totfact> 0.35654470E+00</totfact>
</mgrwt>
</event>
<event>
12    1  0.1980523E-007  0.1418748E+04  0.7818608E-02  0.8940358E-01
         -1   -1    0    0    0  501 -0.00000000000E+00  0.00000000000E+00  0.17504498569E+03  0.17504498569E+03  0.00000000000E+00 0.  1.
          1   -1    0    0  501    0  0.00000000000E+00 -0.00000000000E+00 -0.28747570075E+04  0.28747570075E+04  0.00000000000E+00 0. -1.
         23    2    1    2    0    0 -0.38861462447E+03 -0.14774554123E+03 -0.81770060272E+03  0.92186738710E+03  0.91406413296E+02 0.  0.
        254    2    1    2    0    0  0.38861462447E+03  0.14774554123E+03 -0.18820114190E+04  0.21279346061E+04  0.90182516871E+03 0.  0.
        -24    2    4    4    0    0  0.19031822758E+03 -0.36559858947E+03 -0.62094573547E+03  0.74954246156E+03  0.79730413986E+02 0.  0.
         24    2    4    4    0    0  0.19829639690E+03  0.51334413070E+03 -0.12610656836E+04  0.13783921445E+04  0.82671568108E+02 0.  0.
         13    1    3    3    0    0 -0.17316250182E+03 -0.92978550929E+02 -0.46660856186E+03  0.50631394704E+03  0.00000000000E+00 0. -1.
        -13    1    3    3    0    0 -0.21545212266E+03 -0.54766990303E+02 -0.35109204086E+03  0.41555344006E+03  0.00000000000E+00 0.  1.
          2    1    6    6  502    0 -0.42943579545E+01  0.35164811078E+02 -0.57092868865E+02  0.67190781538E+02  0.00000000000E+00 0. -1.
          3    1    5    5  503    0  0.15499119948E+03 -0.23804173300E+03 -0.46612521400E+03  0.54585607416E+03  0.00000000000E+00 0. -1.
         -4    1    5    5    0  503  0.35327028097E+02 -0.12755685646E+03 -0.15482052147E+03  0.20368638740E+03  0.00000000000E+00 0.  1.
         -1    1    6    6    0  502  0.20259075485E+03  0.47817931962E+03 -0.12039728147E+04  0.13112013630E+04  0.00000000000E+00 0.  1.
<mgrwt>
<rscale>  0 0.14187485E+04</rscale>
<asrwt>0</asrwt>
<pdfrwt beam="1">  1        1 0.44227027E+00 0.14187485E+04</pdfrwt>
<pdfrwt beam="2">  1       -1 0.26930000E-01 0.14187485E+04</pdfrwt>
<totfact> 0.88931700E+00</totfact>
</mgrwt>
</event>
<event>
12    1  0.1980523E-007  0.4117550E+04  0.7818608E-02  0.7981244E-01
         -1   -1    0    0    0  501 -0.00000000000E+00  0.00000000000E+00  0.10894064312E+04  0.10894064312E+04  0.00000000000E+00 0.  1.
          1   -1    0    0  501    0  0.00000000000E+00 -0.00000000000E+00 -0.38907004938E+04  0.38907004938E+04  0.00000000000E+00 0. -1.
         23    2    1    2    0    0 -0.13770203099E+04 -0.98968425415E+03 -0.14789910696E+03  0.17047204801E+04  0.92400825889E+02 0.  0.
        254    2    1    2    0    0  0.13770203099E+04  0.98968425415E+03 -0.26533949557E+04  0.32753864450E+04  0.90110582968E+03 0.  0.
        -24    2    4    4    0    0  0.11686787475E+04  0.10414541770E+04 -0.26072067950E+04  0.30420697723E+04  0.78894929872E+02 0.  0.
         24    2    4    4    0    0  0.20834156239E+03 -0.51769922805E+02 -0.46188160624E+02  0.23331667264E+03  0.78847904386E+02 0.  0.
         13    1    3    3    0    0 -0.91270154307E+03 -0.67526562127E+03 -0.13964382197E+03  0.11439004166E+04  0.00000000000E+00 0. -1.
        -13    1    3    3    0    0 -0.46431876684E+03 -0.31441863289E+03 -0.82552849898E+01  0.56082006355E+03  0.00000000000E+00 0.  1.
          4    1    6    6  502    0  0.91338025942E+02  0.11210258097E+02 -0.39870655750E+02  0.10028945139E+03  0.00000000000E+00 0. -1.
          3    1    5    5  503    0  0.74927145758E+03  0.71566056174E+03 -0.17030551976E+04  0.19934830731E+04  0.00000000000E+00 0. -1.
         -4    1    5    5    0  503  0.41940728995E+03  0.32579361522E+03 -0.90415159747E+03  0.10485866992E+04  0.00000000000E+00 0.  1.
         -3    1    6    6    0  502  0.11700353644E+03 -0.62980180902E+02 -0.63175048745E+01  0.13302722125E+03  0.00000000000E+00 0.  1.
<mgrwt>
<rscale>  0 0.41175498E+04</rscale>
<asrwt>0</asrwt>
<pdfrwt beam="1">  1        1 0.59856930E+00 0.41175498E+04</pdfrwt>
<pdfrwt beam="2">  1       -1 0.16760099E+00 0.41175498E+04</pdfrwt>
<totfact> 0.23653965E-02</totfact>
</mgrwt>
</event>
<event>
12    1  0.1980523E-007  0.1459323E+04  0.7818608E-02  0.8911963E-01
          2   -1    0    0  501    0  0.00000000000E+00  0.00000000000E+00  0.19795750837E+04  0.19795750837E+04  0.00000000000E+00 0. -1.
         -2   -1    0    0    0  501 -0.00000000000E+00 -0.00000000000E+00 -0.26894958681E+03  0.26894958681E+03  0.00000000000E+00 0.  1.
         23    2    1    2    0    0  0.24792831037E+03 -0.19066276237E+03  0.43555729800E+02  0.32792697432E+03  0.88420941239E+02 0.  0.
        254    2    1    2    0    0 -0.24792831037E+03  0.19066276237E+03  0.16670697671E+04  0.19205976962E+04  0.90097345482E+03 0.  0.
        -24    2    4    4    0    0 -0.33260097646E+03  0.29552979681E+03  0.17010915835E+04  0.17601211209E+04  0.79702662997E+02 0.  0.
         24    2    4    4    0    0  0.84672666088E+02 -0.10486703444E+03 -0.34021816392E+02  0.16047657531E+03  0.80179124067E+02 0.  0.
         13    1    3    3    0    0  0.92705965523E+02 -0.12690704556E+03  0.18074629548E+02  0.15819761847E+03  0.00000000000E+00 0. -1.
        -13    1    3    3    0    0  0.15522234485E+03 -0.63755716803E+02  0.25481100252E+02  0.16972935584E+03  0.00000000000E+00 0.  1.
          2    1    6    6  502    0 -0.14133626270E+01  0.10306809314E+02  0.49168304258E+01  0.11506656055E+02  0.00000000000E+00 0. -1.
          1    1    5    5  503    0 -0.41928489519E+00 -0.39359598880E+00 -0.83323442100E+00  0.10124214666E+01  0.00000000000E+00 0. -1.
         -2    1    5    5    0  503 -0.33218169156E+03  0.29592339280E+03  0.17019248179E+04  0.17591086995E+04  0.00000000000E+00 0.  1.
         -1    1    6    6    0  502  0.86086028714E+02 -0.11517384376E+03 -0.38938646818E+02  0.14896991925E+03  0.00000000000E+00 0.  1.
<mgrwt>
<rscale>  0 0.14593230E+04</rscale>
<asrwt>0</asrwt>
<pdfrwt beam="1">  1        2 0.30455000E+00 0.14593230E+04</pdfrwt>
<pdfrwt beam="2">  1       -2 0.41376861E-01 0.14593230E+04</pdfrwt>
<totfact> 0.36793344E+01</totfact>
</mgrwt>
</event>
<event>
12    1  0.1980523E-007  0.1150780E+04  0.7818608E-02  0.9157064E-01
         -2   -1    0    0    0  501 -0.00000000000E+00  0.00000000000E+00  0.28120641777E+03  0.28120641777E+03  0.00000000000E+00 0. -1.
          2   -1    0    0  501    0  0.00000000000E+00 -0.00000000000E+00 -0.11773338478E+04  0.11773338478E+04  0.00000000000E+00 0.  1.
         23    2    1    2    0    0 -0.10475608516E+03  0.89616971650E+02 -0.36736796051E+03  0.40296521933E+03  0.91742632354E+02 0.  0.
        254    2    1    2    0    0  0.10475608516E+03 -0.89616971650E+02 -0.52875946948E+03  0.10555750462E+04  0.90313180800E+03 0.  0.
        -24    2    4    4    0    0 -0.28533610942E+03 -0.68054599049E+02  0.92038689078E+02  0.31771061066E+03  0.80129819975E+02 0.  0.
         24    2    4    4    0    0  0.39009219459E+03 -0.21562372600E+02 -0.62079815856E+03  0.73786443554E+03  0.80104402974E+02 0.  0.
         11    1    3    3    0    0 -0.18197974028E+02  0.38179632996E+02 -0.32650239431E+02  0.53431159161E+02  0.00000000000E+00 0. -1.
        -11    1    3    3    0    0 -0.86558111137E+02  0.51437338654E+02 -0.33471772108E+03  0.34953406017E+03  0.00000000000E+00 0.  1.
          4    1    6    6  502    0  0.27835824955E+03 -0.40603347075E+02 -0.48799859693E+03  0.56327131783E+03  0.00000000000E+00 0. -1.
          1    1    5    5  503    0 -0.21020262934E+03 -0.37403004390E+02  0.30074795380E+02  0.21561220614E+03  0.00000000000E+00 0. -1.
         -2    1    5    5    0  503 -0.75133480084E+02 -0.30651594659E+02  0.61963893698E+02  0.10209840453E+03  0.00000000000E+00 0.  1.
         -3    1    6    6    0  502  0.11173394504E+03  0.19040974475E+02 -0.13279956163E+03  0.17459311771E+03  0.00000000000E+00 0.  1.
<mgrwt>
<rscale>  0 0.11507803E+04</rscale>
<asrwt>0</asrwt>
<pdfrwt beam="1">  1        2 0.18112828E+00 0.11507803E+04</pdfrwt>
<pdfrwt beam="2">  1       -2 0.43262526E-01 0.11507803E+04</pdfrwt>
<totfact> 0.97945839E+01</totfact>
</mgrwt>
</event>
<event>
12    1  0.1980523E-007  0.2650888E+04  0.7818608E-02  0.8351118E-01
          2   -1    0    0  501    0  0.00000000000E+00  0.00000000000E+00  0.15491632330E+04  0.15491632330E+04  0.00000000000E+00 0. -1.
         -2   -1    0    0    0  501 -0.00000000000E+00 -0.00000000000E+00 -0.11340325018E+04  0.11340325018E+04  0.00000000000E+00 0.  1.
         23    2    1    2    0    0  0.11494136395E+04  0.17913922910E+03  0.57446125085E+02  0.11683798615E+04  0.92568165784E+02 0.  0.
        254    2    1    2    0    0 -0.11494136395E+04 -0.17913922910E+03  0.35768460614E+03  0.15148158734E+04  0.90193473966E+03 0.  0.
        -24    2    4    4    0    0  0.11883579465E+03 -0.14140152813E+03  0.48657399999E+02  0.20657293089E+03  0.78666987693E+02 0.  0.
         24    2    4    4    0    0 -0.12682494342E+04 -0.37737700961E+02  0.30902720614E+03  0.13082429425E+04  0.78236954582E+02 0.  0.
         11    1    3    3    0    0  0.20339204859E+03  0.15316640278E+02 -0.21178335141E+02  0.20506449420E+03  0.00000000000E+00 0.  1.
        -11    1    3    3    0    0  0.94602159092E+03  0.16382258882E+03  0.78624460226E+02  0.96331536728E+03  0.00000000000E+00 0. -1.
          2    1    6    6  502    0 -0.11361051491E+04 -0.10509407679E+02  0.27007782125E+03  0.11678130788E+04  0.00000000000E+00 0. -1.
          3    1    5    5  503    0  0.83090743006E+02 -0.13564446852E+03  0.19848834412E+02  0.16030430325E+03  0.00000000000E+00 0. -1.
         -4    1    5    5    0  503  0.35745051642E+02 -0.57570596163E+01  0.28808565588E+02  0.46268627639E+02  0.00000000000E+00 0.  1.
         -1    1    6    6    0  502 -0.13214428502E+03 -0.27228293282E+02  0.38949384892E+02  0.14042986364E+03  0.00000000000E+00 0.  1.
<mgrwt>
<rscale>  0 0.26508877E+04</rscale>
<asrwt>0</asrwt>
<pdfrwt beam="1">  1        2 0.23833280E+00 0.26508877E+04</pdfrwt>
<pdfrwt beam="2">  1       -2 0.17446654E+00 0.26508877E+04</pdfrwt>
<totfact> 0.20792803E+00</totfact>
</mgrwt>
</event>
<event>
12    1  0.1980523E-007  0.2859300E+04  0.7818608E-02  0.8285091E-01
         -2   -1    0    0    0  501 -0.00000000000E+00  0.00000000000E+00  0.85906904485E+03  0.85906904485E+03  0.00000000000E+00 0.  1.
          2   -1    0    0  501    0  0.00000000000E+00 -0.00000000000E+00 -0.23792018032E+04  0.23792018032E+04  0.00000000000E+00 0. -1.
         23    2    1    2    0    0 -0.68276306117E+03 -0.89808600774E+03  0.18318105917E+02  0.11320142402E+04  0.91634120792E+02 0.  0.
        254    2    1    2    0    0  0.68276306117E+03  0.89808600774E+03 -0.15384508643E+04  0.21062566078E+04  0.89261523693E+03 0.  0.
        -24    2    4    4    0    0 -0.21053142043E+03  0.21541515378E+03 -0.33974764249E+03  0.46089215715E+03  0.79157769508E+02 0.  0.
         24    2    4    4    0    0  0.89329448160E+03  0.68267085396E+03 -0.11987032218E+04  0.16453644507E+04  0.79499911474E+02 0.  0.
         13    1    3    3    0    0 -0.59731871095E+03 -0.72938533106E+03  0.16256027614E+02  0.94289811860E+03  0.00000000000E+00 0.  1.
        -13    1    3    3    0    0 -0.85444350216E+02 -0.16870067668E+03  0.20620783033E+01  0.18911612164E+03  0.00000000000E+00 0. -1.
          2    1    6    6  502    0  0.49363872441E+03  0.41133144380E+03 -0.72572557877E+03  0.96930406095E+03  0.00000000000E+00 0. -1.
          3    1    5    5  503    0 -0.17372377849E+02  0.22633305942E+02 -0.49454855212E+01  0.28957276754E+02  0.00000000000E+00 0. -1.
         -4    1    5    5    0  503 -0.19315904258E+03  0.19278184784E+03 -0.33480215697E+03  0.43193488039E+03  0.00000000000E+00 0.  1.
         -1    1    6    6    0  502  0.39965575719E+03  0.27133941016E+03 -0.47297764301E+03  0.67606038973E+03  0.00000000000E+00 0.  1.
<mgrwt>
<rscale>  0 0.28592996E+04</rscale>
<asrwt>0</asrwt>
<pdfrwt beam="1">  1        2 0.36603104E+00 0.28592996E+04</pdfrwt>
<pdfrwt beam="2">  1       -2 0.13216447E+00 0.28592996E+04</pdfrwt>
<totfact> 0.14733637E+00</totfact>
</mgrwt>
</event>
<event>
12    1  0.1980523E-007  0.1531686E+04  0.7818608E-02  0.8863652E-01
         -1   -1    0    0    0  501 -0.00000000000E+00  0.00000000000E+00  0.47307797109E+03  0.47307797109E+03  0.00000000000E+00 0.  1.
          1   -1    0    0  501    0  0.00000000000E+00 -0.00000000000E+00 -0.12397854417E+04  0.12397854417E+04  0.00000000000E+00 0. -1.
         23    2    1    2    0    0  0.34639572822E+03 -0.34522722167E+03 -0.16928992365E+03  0.52577244595E+03  0.92767190130E+02 0.  0.
        254    2    1    2    0    0 -0.34639572822E+03  0.34522722167E+03 -0.59741754700E+03  0.11870909669E+04  0.90172357352E+03 0.  0.
        -24    2    4    4    0    0  0.29776769692E+03  0.73481664401E+02 -0.23910978573E+03  0.39759188150E+03  0.82708272085E+02 0.  0.
         24    2    4    4    0    0 -0.64416342514E+03  0.27174555726E+03 -0.35830776127E+03  0.78949908536E+03  0.78308287056E+02 0.  0.
         13    1    3    3    0    0  0.22516971102E+03 -0.25948220090E+03 -0.15402236077E+03  0.37650404907E+03  0.00000000000E+00 0. -1.
        -13    1    3    3    0    0  0.12122601720E+03 -0.85745020764E+02 -0.15267562871E+02  0.14926839688E+03  0.00000000000E+00 0.  1.
          4    1    6    6  502    0 -0.48386532662E+03  0.16909093508E+03 -0.24667040856E+03  0.56882658965E+03  0.00000000000E+00 0. -1.
          3    1    5    5  503    0  0.43308833159E+02  0.29951057593E+02 -0.75178597803E+02  0.91785306276E+02  0.00000000000E+00 0. -1.
         -4    1    5    5    0  503  0.25445886376E+03  0.43530606807E+02 -0.16393118793E+03  0.30580657522E+03  0.00000000000E+00 0.  1.
         -3    1    6    6    0  502 -0.16029809852E+03  0.10265462219E+03 -0.11163735271E+03  0.22067249572E+03  0.00000000000E+00 0.  1.
<mgrwt>
<rscale>  0 0.15316856E+04</rscale>
<asrwt>0</asrwt>
<pdfrwt beam="1">  1        1 0.19073622E+00 0.15316856E+04</pdfrwt>
<pdfrwt beam="2">  1       -1 0.72781227E-01 0.15316856E+04</pdfrwt>
<totfact> 0.18359383E+01</totfact>
</mgrwt>
</event>
<event>
12    1  0.1980523E-007  0.1125909E+04  0.7818608E-02  0.9180301E-01
         -2   -1    0    0    0  501 -0.00000000000E+00  0.00000000000E+00  0.14237509685E+03  0.14237509685E+03  0.00000000000E+00 0.  1.
          2   -1    0    0  501    0  0.00000000000E+00 -0.00000000000E+00 -0.22259336805E+04  0.22259336805E+04  0.00000000000E+00 0. -1.
         23    2    1    2    0    0 -0.11075576473E+03 -0.24437926679E+01 -0.69208429275E+03  0.70699398217E+03  0.92666126487E+02 0.  0.
        254    2    1    2    0    0  0.11075576473E+03  0.24437926679E+01 -0.13914742909E+04  0.16613147952E+04  0.90082924849E+03 0.  0.
        -24    2    4    4    0    0  0.27999666289E+03  0.26823571519E+03 -0.23561833860E+03  0.46058670140E+03  0.79218545106E+02 0.  0.
         24    2    4    4    0    0 -0.16924089816E+03 -0.26579192252E+03 -0.11558559523E+04  0.12007280938E+04  0.80356362821E+02 0.  0.
         11    1    3    3    0    0  0.12843510823E+02 -0.15268712188E+02 -0.83179176441E+02  0.85538673917E+02  0.00000000000E+00 0. -1.
        -11    1    3    3    0    0 -0.12359927555E+03  0.12824919520E+02 -0.60890511631E+03  0.62145530825E+03  0.00000000000E+00 0.  1.
          2    1    6    6  502    0 -0.10123883717E+03 -0.19937791833E+03 -0.91171512611E+03  0.93873602661E+03  0.00000000000E+00 0. -1.
          3    1    5    5  503    0  0.11546332061E+03  0.15127807726E+03 -0.83492203278E+02  0.20781670548E+03  0.00000000000E+00 0. -1.
         -4    1    5    5    0  503  0.16453334228E+03  0.11695763793E+03 -0.15212613532E+03  0.25276999592E+03  0.00000000000E+00 0.  1.
         -1    1    6    6    0  502 -0.68002060993E+02 -0.66414004195E+02 -0.24414082621E+03  0.26199206720E+03  0.00000000000E+00 0.  1.
<mgrwt>
<rscale>  0 0.11259086E+04</rscale>
<asrwt>0</asrwt>
<pdfrwt beam="1">  1        2 0.34245130E+00 0.11259086E+04</pdfrwt>
<pdfrwt beam="2">  1       -2 0.21903863E-01 0.11259086E+04</pdfrwt>
<totfact> 0.90454567E+01</totfact>
</mgrwt>
</event>
<event>
12    1  0.1980523E-007  0.2752597E+04  0.7818608E-02  0.8318138E-01
          2   -1    0    0  501    0  0.00000000000E+00  0.00000000000E+00  0.19811634860E+04  0.19811634860E+04  0.00000000000E+00 0. -1.
         -2   -1    0    0    0  501 -0.00000000000E+00 -0.00000000000E+00 -0.95610380838E+03  0.95610380838E+03  0.00000000000E+00 0.  1.
         23    2    1    2    0    0 -0.15568346704E+03  0.12069287445E+04  0.59217761467E+03  0.13568025598E+04  0.96563568541E+02 0.  0.
        254    2    1    2    0    0  0.15568346704E+03 -0.12069287445E+04  0.43288206299E+03  0.15804647346E+04  0.91080599503E+03 0.  0.
        -24    2    4    4    0    0 -0.11326222371E+02 -0.13044290461E+04  0.33112108721E+03  0.13481059147E+04  0.78006174234E+02 0.  0.
         24    2    4    4    0    0  0.16700968941E+03  0.97500301562E+02  0.10176097579E+03  0.23235881992E+03  0.78973285594E+02 0.  0.
         13    1    3    3    0    0 -0.92596528688E+02  0.37461607931E+03  0.17693846828E+03  0.42452154900E+03  0.00000000000E+00 0. -1.
        -13    1    3    3    0    0 -0.63086938353E+02  0.83231266522E+03  0.41523914639E+03  0.93228101084E+03  0.00000000000E+00 0.  1.
          2    1    6    6  502    0  0.16106666293E+03  0.88216532368E+02  0.66332777466E+02  0.19525538112E+03  0.00000000000E+00 0. -1.
          3    1    5    5  503    0 -0.28615673019E+02 -0.29339891771E+03  0.95062286145E+02  0.30973960015E+03  0.00000000000E+00 0. -1.
         -4    1    5    5    0  503  0.17289450648E+02 -0.10110301284E+04  0.23605880106E+03  0.10383663145E+04  0.00000000000E+00 0.  1.
         -1    1    6    6    0  502  0.59430264823E+01  0.92837691940E+01  0.35428198319E+02  0.37103438794E+02  0.00000000000E+00 0.  1.
<mgrwt>
<rscale>  0 0.27525973E+04</rscale>
<asrwt>0</asrwt>
<pdfrwt beam="1">  1        2 0.30479438E+00 0.27525973E+04</pdfrwt>
<pdfrwt beam="2">  1       -2 0.14709289E+00 0.27525973E+04</pdfrwt>
<totfact> 0.18867255E+00</totfact>
</mgrwt>
</event>
<event>
12    1  0.1980523E-007  0.1892411E+04  0.7818608E-02  0.8658643E-01
         -1   -1    0    0    0  501 -0.00000000000E+00  0.00000000000E+00  0.16096555886E+04  0.16096555886E+04  0.00000000000E+00 0.  1.
          1   -1    0    0  501    0  0.00000000000E+00 -0.00000000000E+00 -0.55620868295E+03  0.55620868295E+03  0.00000000000E+00 0. -1.
         23    2    1    2    0    0  0.67910177419E+03 -0.31440063400E+02  0.70888553918E+03  0.98655288753E+03  0.92737235967E+02 0.  0.
        254    2    1    2    0    0 -0.67910177419E+03  0.31440063400E+02  0.34456136651E+03  0.11793113841E+04  0.89993616885E+03 0.  0.
        -24    2    4    4    0    0 -0.83056073887E+03  0.19319439355E+03  0.14040365202E+03  0.86784378534E+03  0.79274432124E+02 0.  0.
         24    2    4    4    0    0  0.15145896469E+03 -0.16175433015E+03  0.20415771449E+03  0.31146759873E+03  0.78913949149E+02 0.  0.
         13    1    3    3    0    0  0.56828493146E+02 -0.26185845541E+02  0.48556076565E+02  0.79201443872E+02  0.00000000000E+00 0. -1.
        -13    1    3    3    0    0  0.62227328104E+03 -0.52542178591E+01  0.66032946261E+03  0.90735144365E+03  0.00000000000E+00 0.  1.
          2    1    6    6  502    0  0.12099893872E+03 -0.92403866606E+02  0.17049957610E+03  0.22858110855E+03  0.00000000000E+00 0. -1.
          1    1    5    5  503    0 -0.20891558763E+03  0.15040343364E+02  0.24748760124E+02  0.21091333720E+03  0.00000000000E+00 0. -1.
         -2    1    5    5    0  503 -0.62164515124E+03  0.17815405018E+03  0.11565489190E+03  0.65693044813E+03  0.00000000000E+00 0.  1.
         -1    1    6    6    0  502  0.30460025963E+02 -0.69350463540E+02  0.33658138387E+02  0.82886490181E+02  0.00000000000E+00 0.  1.
<mgrwt>
<rscale>  0 0.18924105E+04</rscale>
<asrwt>0</asrwt>
<pdfrwt beam="1">  1        1 0.85570567E-01 0.18924105E+04</pdfrwt>
<pdfrwt beam="2">  1       -1 0.24763932E+00 0.18924105E+04</pdfrwt>
<totfact> 0.25822778E+00</totfact>
</mgrwt>
</event>
<event>
12    1  0.1980523E-007  0.1780203E+04  0.7818608E-02  0.8716899E-01
         -2   -1    0    0    0  501 -0.00000000000E+00  0.00000000000E+00  0.28733891612E+03  0.28733891612E+03  0.00000000000E+00 0.  1.
          2   -1    0    0  501    0  0.00000000000E+00 -0.00000000000E+00 -0.27573033752E+04  0.27573033752E+04  0.00000000000E+00 0. -1.
         23    2    1    2    0    0  0.14197889109E+03  0.64201450892E+03 -0.95733263106E+03  0.11651123263E+04  0.93060900130E+02 0.  0.
        254    2    1    2    0    0 -0.14197889109E+03 -0.64201450892E+03 -0.15126318280E+04  0.18795299651E+04  0.90124203587E+03 0.  0.
        -24    2    4    4    0    0 -0.27316433588E+03 -0.84241067862E+02 -0.11697921039E+04  0.12071522096E+04  0.84187759244E+02 0.  0.
         24    2    4    4    0    0  0.13118544479E+03 -0.55777344106E+03 -0.34283972413E+03  0.67237775549E+03  0.78942619447E+02 0.  0.
         11    1    3    3    0    0  0.16064636416E+02  0.27874590533E+03 -0.42277222805E+03  0.50664949333E+03  0.00000000000E+00 0. -1.
        -11    1    3    3    0    0  0.12591425467E+03  0.36326860359E+03 -0.53456040301E+03  0.65846283294E+03  0.00000000000E+00 0.  1.
          4    1    6    6  502    0  0.91162494688E+02 -0.33173783410E+03 -0.16262087042E+03  0.38053401754E+03  0.00000000000E+00 0. -1.
          1    1    5    5  503    0 -0.21211404495E+03 -0.56563816870E+02 -0.73040922401E+03  0.76268569409E+03  0.00000000000E+00 0. -1.
         -2    1    5    5    0  503 -0.61050290934E+02 -0.27677250992E+02 -0.43938287988E+03  0.44446651548E+03  0.00000000000E+00 0.  1.
         -3    1    6    6    0  502  0.40022950103E+02 -0.22603560696E+03 -0.18021885371E+03  0.29184373795E+03  0.00000000000E+00 0.  1.
<mgrwt>
<rscale>  0 0.17802029E+04</rscale>
<asrwt>0</asrwt>
<pdfrwt beam="1">  1        2 0.42420054E+00 0.17802029E+04</pdfrwt>
<pdfrwt beam="2">  1       -2 0.44205985E-01 0.17802029E+04</pdfrwt>
<totfact> 0.11287743E+01</totfact>
</mgrwt>
</event>
<event>
12    1  0.1980523E-007  0.3111061E+04  0.7818608E-02  0.8212709E-01
          1   -1    0    0  501    0  0.00000000000E+00  0.00000000000E+00  0.37798767755E+04  0.37798767755E+04  0.00000000000E+00 0. -1.
         -1   -1    0    0    0  501 -0.00000000000E+00 -0.00000000000E+00 -0.64014636902E+03  0.64014636902E+03  0.00000000000E+00 0.  1.
         23    2    1    2    0    0  0.54448914670E+03 -0.72014478605E+03  0.30029002572E+04  0.31370362636E+04  0.92247604088E+02 0.  0.
        254    2    1    2    0    0 -0.54448914670E+03  0.72014478605E+03  0.13683014925E+03  0.12829868809E+04  0.90125240812E+03 0.  0.
        -24    2    4    4    0    0 -0.39890000895E+03  0.44689265955E+03  0.51052030906E+03  0.79117557121E+03  0.80582456056E+02 0.  0.
         24    2    4    4    0    0 -0.14558913775E+03  0.27325212651E+03 -0.37369015981E+03  0.49181130971E+03  0.79819215438E+02 0.  0.
         13    1    3    3    0    0  0.30151134129E+03 -0.34942268786E+03  0.16533333813E+04  0.17165420396E+04  0.00000000000E+00 0. -1.
        -13    1    3    3    0    0  0.24297780541E+03 -0.37072209820E+03  0.13495668759E+04  0.14204942240E+04  0.00000000000E+00 0.  1.
          4    1    6    6  502    0 -0.35744200019E+01 -0.55519800209E+01 -0.10779375169E+02  0.12641039891E+02  0.00000000000E+00 0. -1.
          3    1    5    5  503    0 -0.49798814473E+01  0.29719210764E+02  0.33074785691E+02  0.44743403494E+02  0.00000000000E+00 0. -1.
         -4    1    5    5    0  503 -0.39392012750E+03  0.41717344878E+03  0.47744552337E+03  0.74643216772E+03  0.00000000000E+00 0.  1.
         -1    1    6    6    0  502 -0.14201471775E+03  0.27880410653E+03 -0.36291078464E+03  0.47917026982E+03  0.00000000000E+00 0.  1.
<mgrwt>
<rscale>  0 0.31110605E+04</rscale>
<asrwt>0</asrwt>
<pdfrwt beam="1">  1        1 0.58151949E+00 0.31110605E+04</pdfrwt>
<pdfrwt beam="2">  1       -1 0.98484059E-01 0.31110605E+04</pdfrwt>
<totfact> 0.12312645E-01</totfact>
</mgrwt>
</event>
<event>
12    1  0.1980523E-007  0.1643765E+04  0.7818608E-02  0.8794104E-01
         -1   -1    0    0    0  501 -0.00000000000E+00  0.00000000000E+00  0.45477126965E+03  0.45477126965E+03  0.00000000000E+00 0.  1.
          1   -1    0    0  501    0  0.00000000000E+00 -0.00000000000E+00 -0.14853411066E+04  0.14853411066E+04  0.00000000000E+00 0. -1.
         23    2    1    2    0    0 -0.18590648777E+03  0.27731890291E+03 -0.91015238276E+03  0.97375862777E+03  0.91441288319E+02 0.  0.
        254    2    1    2    0    0  0.18590648777E+03 -0.27731890291E+03 -0.12041745415E+03  0.96635374844E+03  0.89881711585E+03 0.  0.
        -24    2    4    4    0    0 -0.28809775759E+03 -0.26984545026E+03  0.13303346294E+03  0.42416744418E+03  0.80020206719E+02 0.  0.
         24    2    4    4    0    0  0.47400424536E+03 -0.74734526570E+01 -0.25345091709E+03  0.54218630426E+03  0.70659352071E+02 0.  0.
         13    1    3    3    0    0 -0.14953182193E+03  0.21016482645E+03 -0.57801534655E+03  0.63295399588E+03  0.00000000000E+00 0. -1.
        -13    1    3    3    0    0 -0.36374665835E+02  0.67154076468E+02 -0.33213703621E+03  0.34080463190E+03  0.00000000000E+00 0.  1.
          2    1    6    6  502    0  0.17113105855E+03 -0.33465575070E+02 -0.76175579228E+02  0.19028531942E+03  0.00000000000E+00 0. -1.
          1    1    5    5  503    0 -0.27441782199E+03 -0.27304847059E+03  0.13499599498E+03  0.40998113003E+03  0.00000000000E+00 0. -1.
         -2    1    5    5    0  503 -0.13679935601E+02  0.32030203301E+01 -0.19625320326E+01  0.14186314153E+02  0.00000000000E+00 0.  1.
         -1    1    6    6    0  502  0.30287318681E+03  0.25992122413E+02 -0.17727533787E+03  0.35190098484E+03  0.00000000000E+00 0.  1.
<mgrwt>
<rscale>  0 0.16437645E+04</rscale>
<asrwt>0</asrwt>
<pdfrwt beam="1">  1        1 0.22851402E+00 0.16437645E+04</pdfrwt>
<pdfrwt beam="2">  1       -1 0.69964811E-01 0.16437645E+04</pdfrwt>
<totfact> 0.13223387E+01</totfact>
</mgrwt>
</event>
<event>
12    1  0.1980523E-007  0.2669577E+04  0.7818608E-02  0.8344944E-01
         -2   -1    0    0    0  501 -0.00000000000E+00  0.00000000000E+00  0.12642040823E+04  0.12642040823E+04  0.00000000000E+00 0.  1.
          2   -1    0    0  501    0  0.00000000000E+00 -0.00000000000E+00 -0.14093138935E+04  0.14093138935E+04  0.00000000000E+00 0. -1.
         23    2    1    2    0    0 -0.27597176501E+03  0.11439137088E+04  0.12292182903E+02  0.11803413085E+04  0.91408525935E+02 0.  0.
        254    2    1    2    0    0  0.27597176501E+03 -0.11439137088E+04 -0.15740199411E+03  0.14931766672E+04  0.90559493336E+03 0.  0.
        -24    2    4    4    0    0  0.94102369481E+00 -0.76302632595E+03 -0.49158454072E+03  0.91121388900E+03  0.80282820235E+02 0.  0.
         24    2    4    4    0    0  0.27503074131E+03 -0.38088738287E+03  0.33418254661E+03  0.58196277816E+03  0.79281735676E+02 0.  0.
         13    1    3    3    0    0 -0.11666002809E+03  0.52179075078E+03 -0.39036943247E+02  0.53609610397E+03  0.00000000000E+00 0. -1.
        -13    1    3    3    0    0 -0.15931173691E+03  0.62212295803E+03  0.51329126150E+02  0.64424520457E+03  0.00000000000E+00 0.  1.
          4    1    6    6  502    0 -0.35894369432E+01 -0.20883846491E+02  0.16247852770E+02  0.26702281203E+02  0.00000000000E+00 0. -1.
          3    1    5    5  503    0  0.16220028980E+02 -0.31337859958E+03 -0.24537228864E+03  0.39834256118E+03  0.00000000000E+00 0. -1.
         -4    1    5    5    0  503 -0.15279005286E+02 -0.44964772636E+03 -0.24621225208E+03  0.51287132782E+03  0.00000000000E+00 0.  1.
         -3    1    6    6    0  502  0.27862017825E+03 -0.36000353638E+03  0.31793469384E+03  0.55526049696E+03  0.00000000000E+00 0.  1.
<mgrwt>
<rscale>  0 0.26695770E+04</rscale>
<asrwt>0</asrwt>
<pdfrwt beam="1">  1        2 0.21681752E+00 0.26695770E+04</pdfrwt>
<pdfrwt beam="2">  1       -2 0.19449294E+00 0.26695770E+04</pdfrwt>
<totfact> 0.18184825E+00</totfact>
</mgrwt>
</event>
<event>
12    1  0.1980523E-007  0.2616774E+04  0.7818608E-02  0.8362526E-01
          2   -1    0    0  501    0  0.00000000000E+00  0.00000000000E+00  0.16055710982E+04  0.16055710982E+04  0.00000000000E+00 0. -1.
         -2   -1    0    0    0  501 -0.00000000000E+00 -0.00000000000E+00 -0.10662105030E+04  0.10662105030E+04  0.00000000000E+00 0.  1.
         23    2    1    2    0    0  0.74311252608E+03 -0.70792482933E+03 -0.29432138453E+03  0.10717356983E+04  0.92836087461E+02 0.  0.
        254    2    1    2    0    0 -0.74311252608E+03  0.70792482933E+03  0.83368197974E+03  0.16000459030E+04  0.90097028696E+03 0.  0.
        -24    2    4    4    0    0 -0.18679870502E+03  0.46188256972E+03  0.84697118120E+03  0.98656848669E+03  0.87908661350E+02 0.  0.
         24    2    4    4    0    0 -0.55631382106E+03  0.24604225961E+03 -0.13289201462E+02  0.61347741632E+03  0.78460668082E+02 0.  0.
         13    1    3    3    0    0  0.23719740278E+03 -0.25653993240E+03 -0.13990973897E+03  0.37636429142E+03  0.00000000000E+00 0. -1.
        -13    1    3    3    0    0  0.50591512330E+03 -0.45138489693E+03 -0.15441164556E+03  0.69537140684E+03  0.00000000000E+00 0.  1.
          2    1    6    6  502    0 -0.33648633644E+03  0.17160995687E+03  0.23690196823E+02  0.37846301977E+03  0.00000000000E+00 0. -1.
          3    1    5    5  503    0 -0.16158236008E+03  0.31257586725E+03  0.63652995812E+03  0.72731211970E+03  0.00000000000E+00 0. -1.
         -4    1    5    5    0  503 -0.25216344942E+02  0.14930670247E+03  0.21044122308E+03  0.25925636699E+03  0.00000000000E+00 0.  1.
         -1    1    6    6    0  502 -0.21982748462E+03  0.74432302738E+02 -0.36979398285E+02  0.23501439655E+03  0.00000000000E+00 0.  1.
<mgrwt>
<rscale>  0 0.26167742E+04</rscale>
<asrwt>0</asrwt>
<pdfrwt beam="1">  1        2 0.24701094E+00 0.26167742E+04</pdfrwt>
<pdfrwt beam="2">  1       -2 0.16403238E+00 0.26167742E+04</pdfrwt>
<totfact> 0.23016872E+00</totfact>
</mgrwt>
</event>
<event>
12    1  0.1980523E-007  0.1960689E+04  0.7818608E-02  0.8625224E-01
          2   -1    0    0  501    0  0.00000000000E+00  0.00000000000E+00  0.15295642803E+04  0.15295642803E+04  0.00000000000E+00 0. -1.
         -2   -1    0    0    0  501 -0.00000000000E+00 -0.00000000000E+00 -0.62833278666E+03  0.62833278666E+03  0.00000000000E+00 0.  1.
         23    2    1    2    0    0 -0.11335851179E+03  0.71437939768E+03  0.59972473723E+02  0.73089924957E+03  0.86191295331E+02 0.  0.
        254    2    1    2    0    0  0.11335851179E+03 -0.71437939768E+03  0.84125901995E+03  0.14269978174E+04  0.89745080995E+03 0.  0.
        -24    2    4    4    0    0  0.35082060496E+03 -0.58485979923E+02  0.56552591138E+03  0.67268826784E+03  0.78703510310E+02 0.  0.
         24    2    4    4    0    0 -0.23746209317E+03 -0.65589341776E+03  0.27573310858E+03  0.75430954960E+03  0.79810577589E+02 0.  0.
         13    1    3    3    0    0 -0.47641863391E+02  0.33094760224E+03 -0.15096611067E+02  0.33469982110E+03  0.00000000000E+00 0.  1.
        -13    1    3    3    0    0 -0.65716648395E+02  0.38343179544E+03  0.75069084790E+02  0.39619942847E+03  0.00000000000E+00 0. -1.
          2    1    6    6  502    0 -0.29076798492E+02 -0.27691027423E+02  0.18624532810E+02  0.44262020206E+02  0.00000000000E+00 0. -1.
          1    1    5    5  503    0  0.93680253880E+02 -0.38857647446E+02  0.21290135621E+03  0.23582386267E+03  0.00000000000E+00 0. -1.
         -2    1    5    5    0  503  0.25714035108E+03 -0.19628332476E+02  0.35262455517E+03  0.43686440516E+03  0.00000000000E+00 0.  1.
         -1    1    6    6    0  502 -0.20838529468E+03 -0.62820239033E+03  0.25710857577E+03  0.71004752939E+03  0.00000000000E+00 0.  1.
<mgrwt>
<rscale>  0 0.19606890E+04</rscale>
<asrwt>0</asrwt>
<pdfrwt beam="1">  1        2 0.23531758E+00 0.19606890E+04</pdfrwt>
<pdfrwt beam="2">  1       -2 0.96666583E-01 0.19606890E+04</pdfrwt>
<totfact> 0.10187812E+01</totfact>
</mgrwt>
</event>
<event>
12    1  0.1980523E-007  0.1933932E+04  0.7818608E-02  0.8638148E-01
          2   -1    0    0  501    0  0.00000000000E+00  0.00000000000E+00  0.22148900441E+04  0.22148900441E+04  0.00000000000E+00 0. -1.
         -2   -1    0    0    0  501 -0.00000000000E+00 -0.00000000000E+00 -0.42215331457E+03  0.42215331457E+03  0.00000000000E+00 0.  1.
         23    2    1    2    0    0 -0.26405689070E+03  0.65871888037E+03  0.10457548444E+04  0.12671940625E+04  0.92417491027E+02 0.  0.
        254    2    1    2    0    0  0.26405689070E+03 -0.65871888037E+03  0.74698188513E+03  0.13698492961E+04  0.90270069930E+03 0.  0.
        -24    2    4    4    0    0  0.55522548933E+03 -0.58677828318E+03  0.66338169681E+03  0.10483070711E+04  0.79299066948E+02 0.  0.
         24    2    4    4    0    0 -0.29116859863E+03 -0.71940597188E+02  0.83600188316E+02  0.32154222504E+03  0.80285793574E+02 0.  0.
         13    1    3    3    0    0 -0.78647973221E+02  0.27570465433E+03  0.36113282202E+03  0.46110245635E+03  0.00000000000E+00 0. -1.
        -13    1    3    3    0    0 -0.18540891748E+03  0.38301422604E+03  0.68462202239E+03  0.80609160619E+03  0.00000000000E+00 0.  1.
          4    1    6    6  502    0 -0.27775766317E+03 -0.48328549583E+02  0.67234057144E+02  0.28983682753E+03  0.00000000000E+00 0. -1.
          1    1    5    5  503    0  0.35616880022E+03 -0.32126782648E+03  0.38030137827E+03  0.61212610539E+03  0.00000000000E+00 0. -1.
         -2    1    5    5    0  503  0.19905668911E+03 -0.26551045670E+03  0.28308031854E+03  0.43618096570E+03  0.00000000000E+00 0.  1.
         -3    1    6    6    0  502 -0.13410935460E+02 -0.23612047604E+02  0.16366131171E+02  0.31705397514E+02  0.00000000000E+00 0.  1.
<mgrwt>
<rscale>  0 0.19339319E+04</rscale>
<asrwt>0</asrwt>
<pdfrwt beam="1">  1        2 0.34075231E+00 0.19339319E+04</pdfrwt>
<pdfrwt beam="2">  1       -2 0.64946665E-01 0.19339319E+04</pdfrwt>
<totfact> 0.10347634E+01</totfact>
</mgrwt>
</event>
<event>
12    1  0.1980523E-007  0.2152375E+04  0.7818608E-02  0.8538516E-01
          1   -1    0    0  501    0  0.00000000000E+00  0.00000000000E+00  0.15847459670E+04  0.15847459670E+04  0.00000000000E+00 0. -1.
         -1   -1    0    0    0  501 -0.00000000000E+00 -0.00000000000E+00 -0.73082976686E+03  0.73082976686E+03  0.00000000000E+00 0.  1.
         23    2    1    2    0    0 -0.18626711040E+03 -0.27337186987E+03 -0.52859822411E+03  0.63042463635E+03  0.92690473742E+02 0.  0.
        254    2    1    2    0    0  0.18626711040E+03  0.27337186987E+03  0.13825144243E+04  0.16851510976E+04  0.90496434878E+03 0.  0.
        -24    2    4    4    0    0  0.41481218676E+02  0.30442729415E+02  0.13878751815E+04  0.13910995746E+04  0.79454739906E+02 0.  0.
         24    2    4    4    0    0  0.14478589173E+03  0.24292914046E+03 -0.53607572043E+01  0.29405152298E+03  0.80374366079E+02 0.  0.
         11    1    3    3    0    0 -0.51863039973E+01 -0.49678483408E+02 -0.12597709101E+03  0.13551781035E+03  0.00000000000E+00 0.  1.
        -11    1    3    3    0    0 -0.18108080640E+03 -0.22369338646E+03 -0.40262113310E+03  0.49490682599E+03  0.00000000000E+00 0. -1.
          2    1    6    6  502    0  0.30870999524E+02  0.99339227546E+01  0.10841345789E+02  0.34194096149E+02  0.00000000000E+00 0. -1.
          1    1    5    5  503    0  0.15352383879E+01  0.12868608152E+02  0.32034404220E+02  0.34556635924E+02  0.00000000000E+00 0. -1.
         -2    1    5    5    0  503  0.39945980288E+02  0.17574121263E+02  0.13558407773E+04  0.13565429386E+04  0.00000000000E+00 0.  1.
         -1    1    6    6    0  502  0.11391489220E+03  0.23299521770E+03 -0.16202102993E+02  0.25985742683E+03  0.00000000000E+00 0.  1.
<mgrwt>
<rscale>  0 0.21523750E+04</rscale>
<asrwt>0</asrwt>
<pdfrwt beam="1">  1        1 0.24380707E+00 0.21523750E+04</pdfrwt>
<pdfrwt beam="2">  1       -1 0.11243535E+00 0.21523750E+04</pdfrwt>
<totfact> 0.37914233E+00</totfact>
</mgrwt>
</event>
<event>
12    1  0.1980523E-007  0.6639307E+04  0.7818608E-02  0.7615823E-01
          2   -1    0    0  501    0  0.00000000000E+00  0.00000000000E+00  0.37973394360E+04  0.37973394360E+04  0.00000000000E+00 0. -1.
         -2   -1    0    0    0  501 -0.00000000000E+00 -0.00000000000E+00 -0.29020578605E+04  0.29020578605E+04  0.00000000000E+00 0.  1.
         23    2    1    2    0    0 -0.13242363342E+04 -0.23982398599E+04 -0.13403128083E+04  0.30511772986E+04  0.89934360110E+02 0.  0.
        254    2    1    2    0    0  0.13242363342E+04  0.23982398599E+04  0.22355943838E+04  0.36482199978E+04  0.89803708681E+03 0.  0.
        -24    2    4    4    0    0  0.12272523319E+04  0.14759015889E+04  0.12479151978E+04  0.22910254707E+04  0.84092688742E+02 0.  0.
         24    2    4    4    0    0  0.96984002362E+02  0.92233827101E+03  0.98767918597E+03  0.13571945271E+04  0.79705879259E+02 0.  0.
         11    1    3    3    0    0 -0.37583849276E+03 -0.64608202164E+03 -0.32539327683E+03  0.81520386158E+03  0.00000000000E+00 0. -1.
        -11    1    3    3    0    0 -0.94839784148E+03 -0.17521578383E+04 -0.10149195315E+04  0.22359734371E+04  0.00000000000E+00 0.  1.
          4    1    6    6  502    0  0.84413066705E+02  0.87269204273E+03  0.90589902199E+03  0.12607021874E+04  0.00000000000E+00 0. -1.
          3    1    5    5  503    0  0.11597288173E+04  0.13723298472E+04  0.11847798232E+04  0.21521996582E+04  0.00000000000E+00 0. -1.
         -4    1    5    5    0  503  0.67523514614E+02  0.10357174167E+03  0.63135374594E+02  0.13882581252E+03  0.00000000000E+00 0.  1.
         -3    1    6    6    0  502  0.12570935658E+02  0.49646228286E+02  0.81780163988E+02  0.96492339739E+02  0.00000000000E+00 0.  1.
<mgrwt>
<rscale>  0 0.66393068E+04</rscale>
<asrwt>0</asrwt>
<pdfrwt beam="1">  1        2 0.58420607E+00 0.66393068E+04</pdfrwt>
<pdfrwt beam="2">  1       -2 0.44647044E+00 0.66393068E+04</pdfrwt>
<totfact> 0.11596693E-03</totfact>
</mgrwt>
</event>
<event>
12    1  0.1980523E-007  0.3040444E+04  0.7818608E-02  0.8232275E-01
          2   -1    0    0  501    0  0.00000000000E+00  0.00000000000E+00  0.22351626596E+04  0.22351626596E+04  0.00000000000E+00 0. -1.
         -2   -1    0    0    0  501 -0.00000000000E+00 -0.00000000000E+00 -0.10339624348E+04  0.10339624348E+04  0.00000000000E+00 0.  1.
         23    2    1    2    0    0  0.80103022307E+03 -0.29316390632E+03  0.17217431932E+04  0.19236316193E+04  0.91457583042E+02 0.  0.
        254    2    1    2    0    0 -0.80103022307E+03  0.29316390632E+03 -0.52054296839E+03  0.13454934751E+04  0.90099567992E+03 0.  0.
        -24    2    4    4    0    0 -0.56877406072E+03  0.37192010806E+03 -0.73824016475E+03  0.10074215400E+04  0.89839409270E+02 0.  0.
         24    2    4    4    0    0 -0.23225616235E+03 -0.78756201744E+02  0.21769719635E+03  0.33807193507E+03  0.82189413664E+02 0.  0.
         13    1    3    3    0    0  0.49038296397E+03 -0.13315099109E+03  0.99484138946E+03  0.11171007242E+04  0.00000000000E+00 0.  1.
        -13    1    3    3    0    0  0.31064725909E+03 -0.16001291523E+03  0.72690180371E+03  0.80653089517E+03  0.00000000000E+00 0. -1.
          2    1    6    6  502    0 -0.20493376375E+03 -0.38227952522E+02  0.16232619420E+03  0.26421396103E+03  0.00000000000E+00 0. -1.
          3    1    5    5  503    0 -0.54306567281E+03  0.34946078822E+03 -0.72472691946E+03  0.97070710066E+03  0.00000000000E+00 0. -1.
         -4    1    5    5    0  503 -0.25708387909E+02  0.22459319843E+02 -0.13513245285E+02  0.36714439324E+02  0.00000000000E+00 0.  1.
         -1    1    6    6    0  502 -0.27322398605E+02 -0.40528249222E+02  0.55371002149E+02  0.73857974041E+02  0.00000000000E+00 0.  1.
<mgrwt>
<rscale>  0 0.30404435E+04</rscale>
<asrwt>0</asrwt>
<pdfrwt beam="1">  1        2 0.34387118E+00 0.30404435E+04</pdfrwt>
<pdfrwt beam="2">  1       -2 0.15907114E+00 0.30404435E+04</pdfrwt>
<totfact> 0.10771451E+00</totfact>
</mgrwt>
</event>
<event>
12    1  0.1980523E-007  0.1291005E+04  0.7818608E-02  0.9036729E-01
         -1   -1    0    0    0  501 -0.00000000000E+00  0.00000000000E+00  0.44061658874E+03  0.44061658874E+03  0.00000000000E+00 0.  1.
          1   -1    0    0  501    0  0.00000000000E+00 -0.00000000000E+00 -0.94565951957E+03  0.94565951957E+03  0.00000000000E+00 0. -1.
         23    2    1    2    0    0 -0.30609659192E+03  0.17567091212E+02 -0.25278236918E+03  0.40802741488E+03  0.92648361258E+02 0.  0.
        254    2    1    2    0    0  0.30609659192E+03 -0.17567091212E+02 -0.25226056165E+03  0.97824869343E+03  0.89405334794E+03 0.  0.
        -24    2    4    4    0    0  0.56005677348E+03 -0.20074446584E+03 -0.63452517514E+02  0.60384343900E+03  0.81478504911E+02 0.  0.
         24    2    4    4    0    0 -0.25396018156E+03  0.18317737462E+03 -0.18880804414E+03  0.37440525443E+03  0.80505233488E+02 0.  0.
         13    1    3    3    0    0 -0.59919808509E+02  0.40491135434E+02 -0.69075948167E+02  0.10000701033E+03  0.00000000000E+00 0. -1.
        -13    1    3    3    0    0 -0.24617678341E+03 -0.22924044221E+02 -0.18370642101E+03  0.30802040454E+03  0.00000000000E+00 0.  1.
          4    1    6    6  502    0 -0.21133775156E+02  0.11394474107E+02 -0.45667766545E+02  0.51594722538E+02  0.00000000000E+00 0. -1.
          1    1    5    5  503    0  0.16164392778E+03 -0.55864949258E+02  0.18615997615E+02  0.17203548270E+03  0.00000000000E+00 0. -1.
         -2    1    5    5    0  503  0.39841284571E+03 -0.14487951658E+03 -0.82068515129E+02  0.43180795630E+03  0.00000000000E+00 0.  1.
         -3    1    6    6    0  502 -0.23282640641E+03  0.17178290052E+03 -0.14314027759E+03  0.32281053189E+03  0.00000000000E+00 0.  1.
<mgrwt>
<rscale>  0 0.12910047E+04</rscale>
<asrwt>0</asrwt>
<pdfrwt beam="1">  1        1 0.14548608E+00 0.12910047E+04</pdfrwt>
<pdfrwt beam="2">  1       -1 0.67787168E-01 0.12910047E+04</pdfrwt>
<totfact> 0.36205264E+01</totfact>
</mgrwt>
</event>
<event>
12    1  0.1980523E-007  0.1861855E+04  0.7818608E-02  0.8674080E-01
          2   -1    0    0  501    0  0.00000000000E+00  0.00000000000E+00  0.82716975725E+03  0.82716975725E+03  0.00000000000E+00 0. -1.
         -2   -1    0    0    0  501 -0.00000000000E+00 -0.00000000000E+00 -0.10477002824E+04  0.10477002824E+04  0.00000000000E+00 0.  1.
         23    2    1    2    0    0  0.64053968005E+03 -0.23456111811E+03  0.10866942215E+03  0.69645534003E+03  0.89056147987E+02 0.  0.
        254    2    1    2    0    0 -0.64053968005E+03  0.23456111811E+03 -0.32919994733E+03  0.11784146997E+04  0.90276165137E+03 0.  0.
        -24    2    4    4    0    0 -0.67883534281E+03  0.43158064453E+03 -0.45614767419E+03  0.92817817396E+03  0.79779361738E+02 0.  0.
         24    2    4    4    0    0  0.38295662754E+02 -0.19701952642E+03  0.12694772687E+03  0.25023652569E+03  0.78862804020E+02 0.  0.
         11    1    3    3    0    0  0.55525479758E+02 -0.49283112455E+02  0.97034466523E+01  0.74873633226E+02  0.00000000000E+00 0.  1.
        -11    1    3    3    0    0  0.58501420030E+03 -0.18527800565E+03  0.98965975499E+02  0.62158170680E+03  0.00000000000E+00 0. -1.
          2    1    6    6  502    0  0.45194589667E+02 -0.54489203756E+02  0.25887788840E+02  0.75377727958E+02  0.00000000000E+00 0. -1.
          1    1    5    5  503    0 -0.62098842269E+03  0.41759009042E+03 -0.43090180959E+03  0.86353023933E+03  0.00000000000E+00 0. -1.
         -2    1    5    5    0  503 -0.57846920122E+02  0.13990554105E+02 -0.25245864601E+02  0.64647934624E+02  0.00000000000E+00 0.  1.
         -1    1    6    6    0  502 -0.68989269134E+01 -0.14253032266E+03  0.10105993803E+03  0.17485879774E+03  0.00000000000E+00 0.  1.
<mgrwt>
<rscale>  0 0.18618550E+04</rscale>
<asrwt>0</asrwt>
<pdfrwt beam="1">  1        2 0.12725689E+00 0.18618550E+04</pdfrwt>
<pdfrwt beam="2">  1       -2 0.16118466E+00 0.18618550E+04</pdfrwt>
<totfact> 0.76351868E+00</totfact>
</mgrwt>
</event>
<event>
12    1  0.1980523E-007  0.3559709E+04  0.7818608E-02  0.8099784E-01
          1   -1    0    0  501    0  0.00000000000E+00  0.00000000000E+00  0.16981105653E+04  0.16981105653E+04  0.00000000000E+00 0. -1.
         -1   -1    0    0    0  501 -0.00000000000E+00 -0.00000000000E+00 -0.18655333250E+04  0.18655333250E+04  0.00000000000E+00 0.  1.
         23    2    1    2    0    0  0.25825226143E+03  0.16196327734E+04  0.20071327038E+03  0.16548150905E+04  0.90678637747E+02 0.  0.
        254    2    1    2    0    0 -0.25825226143E+03 -0.16196327734E+04 -0.36813603006E+03  0.19088287998E+04  0.90454336489E+03 0.  0.
        -24    2    4    4    0    0 -0.47308548338E+03 -0.15186241535E+04 -0.43158858666E+03  0.16500188090E+04  0.79146495371E+02 0.  0.
         24    2    4    4    0    0  0.21483322195E+03 -0.10100861995E+03  0.63452556598E+02  0.25880999081E+03  0.81242414080E+02 0.  0.
         11    1    3    3    0    0  0.14490265388E+03  0.10092195332E+04  0.83339773272E+02  0.10229693852E+04  0.00000000000E+00 0. -1.
        -11    1    3    3    0    0  0.11334960755E+03  0.61041324024E+03  0.11737349711E+03  0.63184570523E+03  0.00000000000E+00 0.  1.
          2    1    6    6  502    0  0.53603959147E+02 -0.61926554383E+02  0.40372315948E+02  0.91313780280E+02  0.00000000000E+00 0. -1.
          1    1    5    5  503    0 -0.21022400570E+03 -0.62460255312E+03 -0.21617601493E+03  0.69358096237E+03  0.00000000000E+00 0. -1.
         -2    1    5    5    0  503 -0.26286147768E+03 -0.89402160037E+03 -0.21541257173E+03  0.95643784661E+03  0.00000000000E+00 0.  1.
         -1    1    6    6    0  502  0.16122926280E+03 -0.39082065571E+02  0.23080240650E+02  0.16749621053E+03  0.00000000000E+00 0.  1.
<mgrwt>
<rscale>  0 0.35597089E+04</rscale>
<asrwt>0</asrwt>
<pdfrwt beam="1">  1        1 0.26124778E+00 0.35597089E+04</pdfrwt>
<pdfrwt beam="2">  1       -1 0.28700513E+00 0.35597089E+04</pdfrwt>
<totfact> 0.15556784E-01</totfact>
</mgrwt>
</event>
<event>
12    1  0.1980523E-007  0.4602190E+04  0.7818608E-02  0.7892987E-01
         -1   -1    0    0    0  501 -0.00000000000E+00  0.00000000000E+00  0.30714478077E+04  0.30714478077E+04  0.00000000000E+00 0.  1.
          1   -1    0    0  501    0  0.00000000000E+00 -0.00000000000E+00 -0.17239552551E+04  0.17239552551E+04  0.00000000000E+00 0. -1.
         23    2    1    2    0    0  0.54373460878E+03  0.21386206054E+04  0.78447245174E+03  0.23441364838E+04  0.10116031095E+03 0.  0.
        254    2    1    2    0    0 -0.54373460878E+03 -0.21386206054E+04  0.56302010092E+03  0.24512665790E+04  0.90684661800E+03 0.  0.
        -24    2    4    4    0    0 -0.49866176918E+03 -0.20730490717E+04  0.28809684179E+03  0.21530383967E+04  0.79865721510E+02 0.  0.
         24    2    4    4    0    0 -0.45072839599E+02 -0.65571533662E+02  0.27492325914E+03  0.29822818230E+03  0.83821616588E+02 0.  0.
         13    1    3    3    0    0  0.30834115610E+03  0.13419048044E+04  0.52870224264E+03  0.14748928212E+04  0.00000000000E+00 0. -1.
        -13    1    3    3    0    0  0.23539345268E+03  0.79671580098E+03  0.25577020910E+03  0.86924366259E+03  0.00000000000E+00 0.  1.
          4    1    6    6  502    0  0.66736947775E+01 -0.11572381646E+01 -0.36260352834E+01  0.76828076918E+01  0.00000000000E+00 0. -1.
          3    1    5    5  503    0 -0.13351277376E+03 -0.49373513990E+03  0.10041512801E+03  0.52123243094E+03  0.00000000000E+00 0. -1.
         -4    1    5    5    0  503 -0.36514899542E+03 -0.15793139318E+04  0.18768171377E+03  0.16318059658E+04  0.00000000000E+00 0.  1.
         -3    1    6    6    0  502 -0.51746534376E+02 -0.64414295497E+02  0.27854929442E+03  0.29054537461E+03  0.00000000000E+00 0.  1.
<mgrwt>
<rscale>  0 0.46021902E+04</rscale>
<asrwt>0</asrwt>
<pdfrwt beam="1">  1        1 0.26522389E+00 0.46021902E+04</pdfrwt>
<pdfrwt beam="2">  1       -1 0.47253043E+00 0.46021902E+04</pdfrwt>
<totfact> 0.77764479E-03</totfact>
</mgrwt>
</event>
<event>
12    1  0.1980523E-007  0.2720499E+04  0.7818608E-02  0.8328384E-01
          2   -1    0    0  501    0  0.00000000000E+00  0.00000000000E+00  0.12792866943E+04  0.12792866943E+04  0.00000000000E+00 0. -1.
         -2   -1    0    0    0  501 -0.00000000000E+00 -0.00000000000E+00 -0.14463359421E+04  0.14463359421E+04  0.00000000000E+00 0.  1.
         23    2    1    2    0    0 -0.11879016079E+04 -0.19281457100E+03  0.43918105509E+02  0.12075339040E+04  0.89003597990E+02 0.  0.
        254    2    1    2    0    0  0.11879016079E+04  0.19281457100E+03 -0.21096735325E+03  0.15180887324E+04  0.90099860505E+03 0.  0.
        -24    2    4    4    0    0  0.88088744885E+03  0.45882259612E+03  0.98296133109E+02  0.10012811988E+04  0.80131373854E+02 0.  0.
         24    2    4    4    0    0  0.30701415909E+03 -0.26600802512E+03 -0.30926348636E+03  0.51680753355E+03  0.80175803325E+02 0.  0.
         13    1    3    3    0    0 -0.21118572536E+03 -0.68485479315E+02  0.13482599194E+01  0.22201686710E+03  0.00000000000E+00 0. -1.
        -13    1    3    3    0    0 -0.97671588258E+03 -0.12432909169E+03  0.42569845590E+02  0.98551703693E+03  0.00000000000E+00 0.  1.
          2    1    6    6  502    0  0.68531403954E+02 -0.10182275660E+03 -0.70655292758E+02  0.14162131719E+03  0.00000000000E+00 0. -1.
          1    1    5    5  503    0  0.10751299093E+02  0.39543248639E+01 -0.75748381026E+01  0.13733364104E+02  0.00000000000E+00 0. -1.
         -2    1    5    5    0  503  0.87013614976E+03  0.45486827126E+03  0.10587097121E+03  0.98754783472E+03  0.00000000000E+00 0.  1.
         -1    1    6    6    0  502  0.23848275513E+03 -0.16418526852E+03 -0.23860819360E+03  0.37518621636E+03  0.00000000000E+00 0.  1.
<mgrwt>
<rscale>  0 0.27204987E+04</rscale>
<asrwt>0</asrwt>
<pdfrwt beam="1">  1        2 0.19681334E+00 0.27204987E+04</pdfrwt>
<pdfrwt beam="2">  1       -2 0.22251322E+00 0.27204987E+04</pdfrwt>
<totfact> 0.14186245E+00</totfact>
</mgrwt>
</event>
<event>
12    1  0.1980523E-007  0.1773634E+04  0.7818608E-02  0.8720448E-01
          1   -1    0    0  501    0  0.00000000000E+00  0.00000000000E+00  0.47158916263E+03  0.47158916263E+03  0.00000000000E+00 0. -1.
         -1   -1    0    0    0  501 -0.00000000000E+00 -0.00000000000E+00 -0.16676473148E+04  0.16676473148E+04  0.00000000000E+00 0.  1.
         23    2    1    2    0    0 -0.46901125799E+03 -0.35559123027E+03 -0.78982133752E+03  0.98908259409E+03  0.89721511141E+02 0.  0.
        254    2    1    2    0    0  0.46901125799E+03  0.35559123027E+03 -0.40623681469E+03  0.11501538834E+04  0.90078239473E+03 0.  0.
        -24    2    4    4    0    0 -0.13598035441E+03  0.40578677806E+03 -0.29971208137E+03  0.52849516682E+03  0.79537686639E+02 0.  0.
         24    2    4    4    0    0  0.60499161240E+03 -0.50195547790E+02 -0.10652473332E+03  0.62165871655E+03  0.81102385687E+02 0.  0.
         13    1    3    3    0    0 -0.10207324789E+03 -0.40279589310E+02 -0.11736976340E+03  0.16067686396E+03  0.00000000000E+00 0. -1.
        -13    1    3    3    0    0 -0.36693801010E+03 -0.31531164096E+03 -0.67245157413E+03  0.82840573014E+03  0.00000000000E+00 0.  1.
          4    1    6    6  502    0  0.38690687741E+03  0.68614783145E+01 -0.62739490630E+02  0.39202073332E+03  0.00000000000E+00 0. -1.
          1    1    5    5  503    0 -0.89693100483E+02  0.32900880985E+03 -0.26684022884E+03  0.43300734054E+03  0.00000000000E+00 0. -1.
         -2    1    5    5    0  503 -0.46287253929E+02  0.76777968212E+02 -0.32871852533E+02  0.95487826282E+02  0.00000000000E+00 0.  1.
         -3    1    6    6    0  502  0.21808473500E+03 -0.57057026105E+02 -0.43785242686E+02  0.22963798323E+03  0.00000000000E+00 0.  1.
<mgrwt>
<rscale>  0 0.17736340E+04</rscale>
<asrwt>0</asrwt>
<pdfrwt beam="1">  1        1 0.72552179E-01 0.17736340E+04</pdfrwt>
<pdfrwt beam="2">  1       -1 0.25656113E+00 0.17736340E+04</pdfrwt>
<totfact> 0.28706938E+00</totfact>
</mgrwt>
</event>
<event>
12    1  0.1980523E-007  0.3010343E+04  0.7818608E-02  0.8240784E-01
         -2   -1    0    0    0  501 -0.00000000000E+00  0.00000000000E+00  0.56821849587E+03  0.56821849587E+03  0.00000000000E+00 0.  1.
          2   -1    0    0  501    0  0.00000000000E+00 -0.00000000000E+00 -0.39870947057E+04  0.39870947057E+04  0.00000000000E+00 0. -1.
         23    2    1    2    0    0 -0.10628263912E+04  0.61629857767E+03 -0.24758056463E+04  0.27652552144E+04  0.87171829947E+02 0.  0.
        254    2    1    2    0    0  0.10628263912E+04 -0.61629857767E+03 -0.94307056351E+03  0.17900579871E+04  0.89749742880E+03 0.  0.
        -24    2    4    4    0    0  0.90467565613E+03 -0.32090797972E+03 -0.10551301773E+04  0.14286102470E+04  0.78788148691E+02 0.  0.
         24    2    4    4    0    0  0.15815073512E+03 -0.29539059795E+03  0.11205961382E+03  0.36144774015E+03  0.76287950770E+02 0.  0.
         11    1    3    3    0    0 -0.24961562424E+03  0.18355994471E+03 -0.58476181531E+03  0.66177684593E+03  0.00000000000E+00 0.  1.
        -11    1    3    3    0    0 -0.81321076701E+03  0.43273863296E+03 -0.18910438310E+04  0.21034783685E+04  0.00000000000E+00 0. -1.
          2    1    6    6  502    0  0.18048396882E+02 -0.92681869946E+02  0.10793744776E+02  0.95037774453E+02  0.00000000000E+00 0. -1.
          1    1    5    5  503    0  0.66663304897E+03 -0.20046446341E+03 -0.74860276889E+03  0.10222483694E+04  0.00000000000E+00 0. -1.
         -2    1    5    5    0  503  0.23804260716E+03 -0.12044351631E+03 -0.30652740843E+03  0.40636187760E+03  0.00000000000E+00 0.  1.
         -1    1    6    6    0  502  0.14010233823E+03 -0.20270872800E+03  0.10126586905E+03  0.26640996570E+03  0.00000000000E+00 0.  1.
<mgrwt>
<rscale>  0 0.30103428E+04</rscale>
<asrwt>0</asrwt>
<pdfrwt beam="1">  1        2 0.61339919E+00 0.30103428E+04</pdfrwt>
<pdfrwt beam="2">  1       -2 0.87418230E-01 0.30103428E+04</pdfrwt>
<totfact> 0.33848233E-01</totfact>
</mgrwt>
</event>
<event>
12    1  0.1980523E-007  0.3700692E+04  0.7818608E-02  0.8067809E-01
         -3   -1    0    0    0  501 -0.00000000000E+00  0.00000000000E+00  0.35012604033E+04  0.35012604033E+04  0.00000000000E+00 0.  1.
          3   -1    0    0  501    0  0.00000000000E+00 -0.00000000000E+00 -0.97787065116E+03  0.97787065116E+03  0.00000000000E+00 0. -1.
         23    2    1    2    0    0 -0.11702010373E+04 -0.73910221575E+03  0.24690333440E+04  0.28319763558E+04  0.91224301466E+02 0.  0.
        254    2    1    2    0    0  0.11702010373E+04  0.73910221575E+03  0.54356408193E+02  0.16471546987E+04  0.89135931539E+03 0.  0.
        -24    2    4    4    0    0 -0.94136953108E+02  0.23406379763E+03  0.98743683745E+02  0.28256812632E+03  0.80291989813E+02 0.  0.
         24    2    4    4    0    0  0.12643379904E+04  0.50503841812E+03 -0.44387275553E+02  0.13645865724E+04  0.80696501567E+02 0.  0.
         13    1    3    3    0    0 -0.25099091876E+03 -0.15556855145E+03  0.45360325023E+03  0.54125218163E+03  0.00000000000E+00 0. -1.
        -13    1    3    3    0    0 -0.91921011858E+03 -0.58353366430E+03  0.20154300938E+04  0.22907241742E+04  0.00000000000E+00 0.  1.
          2    1    6    6  502    0  0.70103008965E+03  0.29052389270E+03 -0.63629234012E+02  0.76150902703E+03  0.00000000000E+00 0. -1.
          3    1    5    5  503    0 -0.66629867282E+02  0.14149613117E+03  0.10063977103E+03  0.18598133741E+03  0.00000000000E+00 0. -1.
         -4    1    5    5    0  503 -0.27507085826E+02  0.92567666463E+02 -0.18960872874E+01  0.96586788910E+02  0.00000000000E+00 0.  1.
         -1    1    6    6    0  502  0.56330790079E+03  0.21451452542E+03  0.19241958459E+02  0.60307754532E+03  0.00000000000E+00 0.  1.
<mgrwt>
<rscale>  0 0.37006917E+04</rscale>
<asrwt>0</asrwt>
<pdfrwt beam="1">  1        3 0.15044164E+00 0.37006917E+04</pdfrwt>
<pdfrwt beam="2">  1       -3 0.53865544E+00 0.37006917E+04</pdfrwt>
<totfact> 0.12750153E-03</totfact>
</mgrwt>
</event>
<event>
12    1  0.1980523E-007  0.3181567E+04  0.7818608E-02  0.8193702E-01
         -2   -1    0    0    0  501 -0.00000000000E+00  0.00000000000E+00  0.74735422930E+03  0.74735422930E+03  0.00000000000E+00 0.  1.
          2   -1    0    0  501    0  0.00000000000E+00 -0.00000000000E+00 -0.33860679746E+04  0.33860679746E+04  0.00000000000E+00 0. -1.
         23    2    1    2    0    0 -0.13925367201E+04 -0.19253058531E+02 -0.63770196836E+03  0.15345325873E+04  0.92721432721E+02 0.  0.
        254    2    1    2    0    0  0.13925367201E+04  0.19253058531E+02 -0.20010117769E+04  0.25988896165E+04  0.90036098898E+03 0.  0.
        -24    2    4    4    0    0  0.38597317670E+03  0.22833117983E+03 -0.12291844921E+04  0.13108840516E+04  0.80075340794E+02 0.  0.
         24    2    4    4    0    0  0.10065635434E+04 -0.20907812130E+03 -0.77182728479E+03  0.12880055650E+04  0.79731738382E+02 0.  0.
         11    1    3    3    0    0 -0.52155580778E+03  0.32427294113E+02 -0.26208218713E+03  0.58460162747E+03  0.00000000000E+00 0. -1.
        -11    1    3    3    0    0 -0.87098091231E+03 -0.51680352644E+02 -0.37561978124E+03  0.94993095987E+03  0.00000000000E+00 0.  1.
          2    1    6    6  502    0  0.77411766347E+03 -0.17966354074E+03 -0.56037581927E+03  0.97239817132E+03  0.00000000000E+00 0. -1.
          1    1    5    5  503    0  0.34514245399E+03  0.18007255505E+03 -0.11043582524E+04  0.11709639569E+04  0.00000000000E+00 0. -1.
         -2    1    5    5    0  503  0.40830722712E+02  0.48258624777E+02 -0.12482623969E+03  0.13992009469E+03  0.00000000000E+00 0.  1.
         -1    1    6    6    0  502  0.23244587992E+03 -0.29414580557E+02 -0.21145146552E+03  0.31560739363E+03  0.00000000000E+00 0.  1.
<mgrwt>
<rscale>  0 0.31815670E+04</rscale>
<asrwt>0</asrwt>
<pdfrwt beam="1">  1        2 0.52093353E+00 0.31815670E+04</pdfrwt>
<pdfrwt beam="2">  1       -2 0.11497758E+00 0.31815670E+04</pdfrwt>
<totfact> 0.48428052E-01</totfact>
</mgrwt>
</event>
<event>
12    1  0.1980523E-007  0.1745107E+04  0.7818608E-02  0.8736048E-01
         -2   -1    0    0    0  501 -0.00000000000E+00  0.00000000000E+00  0.80230909759E+03  0.80230909759E+03  0.00000000000E+00 0.  1.
          2   -1    0    0  501    0  0.00000000000E+00 -0.00000000000E+00 -0.94894793010E+03  0.94894793010E+03  0.00000000000E+00 0. -1.
         23    2    1    2    0    0 -0.27216612321E+03 -0.57152237335E+03 -0.10976411586E+03  0.64913751254E+03  0.92839254635E+02 0.  0.
        254    2    1    2    0    0  0.27216612321E+03  0.57152237335E+03 -0.36874716649E+02  0.11021195151E+04  0.90144076848E+03 0.  0.
        -24    2    4    4    0    0  0.15449040503E+03  0.70794447118E+03 -0.28716674602E+03  0.78360618533E+03  0.80754282534E+02 0.  0.
         24    2    4    4    0    0  0.11767571818E+03 -0.13642209784E+03  0.25029202937E+03  0.31851332982E+03  0.79662273851E+02 0.  0.
         13    1    3    3    0    0 -0.17436673958E+03 -0.43983466184E+03 -0.10698908319E+03  0.48508241933E+03  0.00000000000E+00 0. -1.
        -13    1    3    3    0    0 -0.97799383634E+02 -0.13168771151E+03 -0.27750326678E+01  0.16405509321E+03  0.00000000000E+00 0.  1.
          4    1    6    6  502    0  0.12257285412E+03 -0.14272048968E+03  0.23300305537E+03  0.29947231350E+03  0.00000000000E+00 0. -1.
          3    1    5    5  503    0  0.57937959688E+02  0.42395510494E+03 -0.19123749442E+03  0.46868594757E+03  0.00000000000E+00 0. -1.
         -4    1    5    5    0  503  0.96552445338E+02  0.28398936624E+03 -0.95929251601E+02  0.31492023776E+03  0.00000000000E+00 0.  1.
         -3    1    6    6    0  502 -0.48971359380E+01  0.62983918455E+01  0.17288973999E+02  0.19041016311E+02  0.00000000000E+00 0.  1.
<mgrwt>
<rscale>  0 0.17451069E+04</rscale>
<asrwt>0</asrwt>
<pdfrwt beam="1">  1        2 0.14599199E+00 0.17451069E+04</pdfrwt>
<pdfrwt beam="2">  1       -2 0.12343217E+00 0.17451069E+04</pdfrwt>
<totfact> 0.12760907E+01</totfact>
</mgrwt>
</event>
<event>
12    1  0.1980523E-007  0.2542429E+04  0.7818608E-02  0.8388024E-01
          2   -1    0    0  501    0  0.00000000000E+00  0.00000000000E+00  0.71483196087E+03  0.71483196087E+03  0.00000000000E+00 0. -1.
         -2   -1    0    0    0  501 -0.00000000000E+00 -0.00000000000E+00 -0.22606512553E+04  0.22606512553E+04  0.00000000000E+00 0.  1.
         23    2    1    2    0    0 -0.43172934238E+03  0.80208247514E+03 -0.14214036797E+04  0.16907784993E+04  0.92827747972E+02 0.  0.
        254    2    1    2    0    0  0.43172934238E+03 -0.80208247514E+03 -0.12441561466E+03  0.12847047169E+04  0.89736304938E+03 0.  0.
        -24    2    4    4    0    0 -0.18457819097E+03 -0.10463352259E+03  0.19473851189E+03  0.29719740935E+03  0.73388892078E+02 0.  0.
         24    2    4    4    0    0  0.61630753335E+03 -0.69744895256E+03 -0.31915412655E+03  0.98750730752E+03  0.83912506981E+02 0.  0.
         13    1    3    3    0    0 -0.21844872949E+03  0.42011978912E+03 -0.65381333735E+03  0.80727465259E+03  0.00000000000E+00 0. -1.
        -13    1    3    3    0    0 -0.21328061289E+03  0.38196268602E+03 -0.76759034239E+03  0.88350384667E+03  0.00000000000E+00 0.  1.
          2    1    6    6  502    0  0.44688594357E+03 -0.51210295188E+03 -0.19332235576E+03  0.70663287011E+03  0.00000000000E+00 0. -1.
          3    1    5    5  503    0 -0.19691858379E+02  0.31503241932E+01 -0.36081260436E+00  0.19945526182E+02  0.00000000000E+00 0. -1.
         -4    1    5    5    0  503 -0.16488633259E+03 -0.10778384678E+03  0.19509932450E+03  0.27725188317E+03  0.00000000000E+00 0.  1.
         -1    1    6    6    0  502  0.16942158978E+03 -0.18534600067E+03 -0.12583177079E+03  0.28087443741E+03  0.00000000000E+00 0.  1.
<mgrwt>
<rscale>  0 0.25424286E+04</rscale>
<asrwt>0</asrwt>
<pdfrwt beam="1">  1        2 0.10997415E+00 0.25424286E+04</pdfrwt>
<pdfrwt beam="2">  1       -2 0.34779250E+00 0.25424286E+04</pdfrwt>
<totfact> 0.56981923E-01</totfact>
</mgrwt>
</event>
<event>
12    1  0.1980523E-007  0.1526784E+04  0.7818608E-02  0.8866835E-01
         -1   -1    0    0    0  501 -0.00000000000E+00  0.00000000000E+00  0.26114698676E+03  0.26114698676E+03  0.00000000000E+00 0.  1.
          1   -1    0    0  501    0  0.00000000000E+00 -0.00000000000E+00 -0.22315690542E+04  0.22315690542E+04  0.00000000000E+00 0. -1.
         23    2    1    2    0    0 -0.45111955258E+03  0.17730419945E+03 -0.49760016444E+03  0.70044590985E+03  0.89849424632E+02 0.  0.
        254    2    1    2    0    0  0.45111955258E+03 -0.17730419945E+03 -0.14728219030E+04  0.17922701311E+04  0.89893394366E+03 0.  0.
        -24    2    4    4    0    0 -0.31825173355E+01  0.31209469730E+03 -0.29885197391E+03  0.43928093024E+03  0.79006359608E+02 0.  0.
         24    2    4    4    0    0  0.45430206991E+03 -0.48939889675E+03 -0.11739699291E+04  0.13529892009E+04  0.80453293345E+02 0.  0.
         13    1    3    3    0    0 -0.25566759245E+03  0.13548631130E+03 -0.33598711932E+03  0.44340703955E+03  0.00000000000E+00 0. -1.
        -13    1    3    3    0    0 -0.19545196012E+03  0.41817888152E+02 -0.16161304513E+03  0.25703887029E+03  0.00000000000E+00 0.  1.
          2    1    6    6  502    0  0.38355781443E+03 -0.42259311163E+03 -0.94131740222E+03  0.11008087875E+04  0.00000000000E+00 0. -1.
          1    1    5    5  503    0 -0.19274705306E+02  0.62729706243E+02 -0.10148506035E+03  0.12085424189E+03  0.00000000000E+00 0. -1.
         -2    1    5    5    0  503  0.16092187971E+02  0.24936499106E+03 -0.19736691356E+03  0.31842668834E+03  0.00000000000E+00 0.  1.
         -1    1    6    6    0  502  0.70744255486E+02 -0.66805785117E+02 -0.23265252689E+03  0.25218041335E+03  0.00000000000E+00 0.  1.
<mgrwt>
<rscale>  0 0.15267842E+04</rscale>
<asrwt>0</asrwt>
<pdfrwt beam="1">  1        1 0.34331831E+00 0.15267842E+04</pdfrwt>
<pdfrwt beam="2">  1       -1 0.40176460E-01 0.15267842E+04</pdfrwt>
<totfact> 0.12105328E+01</totfact>
</mgrwt>
</event>
<event>
12    1  0.1980523E-007  0.1595838E+04  0.7818608E-02  0.8823109E-01
          2   -1    0    0  501    0  0.00000000000E+00  0.00000000000E+00  0.20508567160E+04  0.20508567160E+04  0.00000000000E+00 0. -1.
         -2   -1    0    0    0  501 -0.00000000000E+00 -0.00000000000E+00 -0.31044347065E+03  0.31044347065E+03  0.00000000000E+00 0.  1.
         23    2    1    2    0    0 -0.20255296138E+03  0.44786302357E+03  0.92564099256E+03  0.10518734867E+04  0.89541023093E+02 0.  0.
        254    2    1    2    0    0  0.20255296138E+03 -0.44786302357E+03  0.81477225280E+03  0.13094267000E+04  0.89951957658E+03 0.  0.
        -24    2    4    4    0    0 -0.46235922431E+02 -0.94143727862E+02  0.85764139154E+03  0.86730203543E+03  0.75254648782E+02 0.  0.
         24    2    4    4    0    0  0.24878888381E+03 -0.35371929571E+03 -0.42869138743E+02  0.44212466455E+03  0.81383088405E+02 0.  0.
         11    1    3    3    0    0 -0.56009418525E+02  0.23040850722E+03  0.42187083847E+03  0.48394228944E+03  0.00000000000E+00 0. -1.
        -11    1    3    3    0    0 -0.14654354286E+03  0.21745451635E+03  0.50377015410E+03  0.56793119723E+03  0.00000000000E+00 0.  1.
          2    1    6    6  502    0  0.11800772244E+03 -0.23689589273E+03 -0.23745390466E+02  0.26572416171E+03  0.00000000000E+00 0. -1.
          1    1    5    5  503    0 -0.60771753630E+02 -0.43633342184E+02  0.57116733116E+03  0.57604617417E+03  0.00000000000E+00 0. -1.
         -2    1    5    5    0  503  0.14535831199E+02 -0.50510385678E+02  0.28647406038E+03  0.29125586126E+03  0.00000000000E+00 0.  1.
         -1    1    6    6    0  502  0.13078116137E+03 -0.11682340298E+03 -0.19123748277E+02  0.17640050284E+03  0.00000000000E+00 0.  1.
<mgrwt>
<rscale>  0 0.15958384E+04</rscale>
<asrwt>0</asrwt>
<pdfrwt beam="1">  1        2 0.31551641E+00 0.15958384E+04</pdfrwt>
<pdfrwt beam="2">  1       -2 0.47760535E-01 0.15958384E+04</pdfrwt>
<totfact> 0.24949242E+01</totfact>
</mgrwt>
</event>
<event>
12    1  0.1980523E-007  0.1831235E+04  0.7818608E-02  0.8689863E-01
         -2   -1    0    0    0  501 -0.00000000000E+00  0.00000000000E+00  0.34623115642E+03  0.34623115642E+03  0.00000000000E+00 0.  1.
          2   -1    0    0  501    0  0.00000000000E+00 -0.00000000000E+00 -0.24213742596E+04  0.24213742596E+04  0.00000000000E+00 0. -1.
         23    2    1    2    0    0 -0.29390199788E+03 -0.49389095119E+03 -0.21018236540E+03  0.61870827113E+03  0.91195624987E+02 0.  0.
        254    2    1    2    0    0  0.29390199788E+03  0.49389095119E+03 -0.18649607377E+04  0.21488971448E+04  0.89965200482E+03 0.  0.
        -24    2    4    4    0    0  0.45710576634E+03  0.73148845682E+02 -0.41015100125E+03  0.62361816354E+03  0.79870738220E+02 0.  0.
         24    2    4    4    0    0 -0.16320376846E+03  0.42074210551E+03 -0.14548097365E+04  0.15252789813E+04  0.79656839221E+02 0.  0.
         13    1    3    3    0    0 -0.15145698204E+03 -0.30416691345E+03 -0.84108904471E+02  0.35004433498E+03  0.00000000000E+00 0.  1.
        -13    1    3    3    0    0 -0.14244501584E+03 -0.18972403775E+03 -0.12607346093E+03  0.26866393615E+03  0.00000000000E+00 0. -1.
          4    1    6    6  502    0 -0.75787543452E+02  0.19625754388E+03 -0.81196075655E+03  0.83877353645E+03  0.00000000000E+00 0. -1.
          3    1    5    5  503    0  0.41476815124E+03  0.46854948118E+02 -0.34460600964E+03  0.54127747720E+03  0.00000000000E+00 0. -1.
         -2    1    5    5    0  503  0.42337615104E+02  0.26293897564E+02 -0.65544991611E+02  0.82340686341E+02  0.00000000000E+00 0.  1.
         -3    1    6    6    0  502 -0.87416225009E+02  0.22448456163E+03 -0.64284897994E+03  0.68650544486E+03  0.00000000000E+00 0.  1.
<mgrwt>
<rscale>  0 0.18312348E+04</rscale>
<asrwt>0</asrwt>
<pdfrwt beam="1">  1        2 0.37251912E+00 0.18312348E+04</pdfrwt>
<pdfrwt beam="2">  1       -2 0.53266331E-01 0.18312348E+04</pdfrwt>
<totfact> 0.12102132E+01</totfact>
</mgrwt>
</event>
<event>
12    1  0.1980523E-007  0.3396594E+04  0.7818608E-02  0.8138743E-01
         -4   -1    0    0    0  501 -0.00000000000E+00  0.00000000000E+00  0.20226908080E+04  0.20226908080E+04  0.00000000000E+00 0.  1.
          4   -1    0    0  501    0  0.00000000000E+00 -0.00000000000E+00 -0.14259283995E+04  0.14259283995E+04  0.00000000000E+00 0. -1.
         23    2    1    2    0    0  0.22289928724E+03 -0.12987539562E+04  0.11582600573E+04  0.17568195867E+04  0.91666617092E+02 0.  0.
        254    2    1    2    0    0 -0.22289928724E+03  0.12987539562E+04 -0.56149764881E+03  0.16917996208E+04  0.90025575047E+03 0.  0.
        -24    2    4    4    0    0  0.71534280948E+02  0.12729313948E+04 -0.53502914648E+03  0.13849380277E+04  0.79534040805E+02 0.  0.
         24    2    4    4    0    0 -0.29443356819E+03  0.25822561425E+02 -0.26468502331E+02  0.30686159314E+03  0.78137858799E+02 0.  0.
         11    1    3    3    0    0  0.85816460256E+02 -0.76124367740E+03  0.68469218532E+03  0.10274530597E+04  0.00000000000E+00 0. -1.
        -11    1    3    3    0    0  0.13708282698E+03 -0.53751027883E+03  0.47356787199E+03  0.72936652698E+03  0.00000000000E+00 0.  1.
          4    1    6    6  502    0 -0.19635854502E+03  0.53875989680E+02 -0.21219747396E+02  0.20471828972E+03  0.00000000000E+00 0. -1.
          1    1    5    5  503    0  0.80816571836E+02  0.12436723062E+04 -0.51649858108E+03  0.13490822465E+04  0.00000000000E+00 0. -1.
         -2    1    5    5    0  503 -0.92822908879E+01  0.29259088562E+02 -0.18530565407E+02  0.35855781151E+02  0.00000000000E+00 0.  1.
         -3    1    6    6    0  502 -0.98075023165E+02 -0.28053428255E+02 -0.52487549355E+01  0.10214330342E+03  0.00000000000E+00 0.  1.
<mgrwt>
<rscale>  0 0.33965937E+04</rscale>
<asrwt>0</asrwt>
<pdfrwt beam="1">  1        4 0.21937360E+00 0.33965937E+04</pdfrwt>
<pdfrwt beam="2">  1       -4 0.31118320E+00 0.33965937E+04</pdfrwt>
<totfact> 0.42334876E-03</totfact>
</mgrwt>
</event>
<event>
12    1  0.1980523E-007  0.4791821E+04  0.7818608E-02  0.7861448E-01
         -2   -1    0    0    0  501 -0.00000000000E+00  0.00000000000E+00  0.14666530198E+04  0.14666530198E+04  0.00000000000E+00 0. -1.
          2   -1    0    0  501    0  0.00000000000E+00 -0.00000000000E+00 -0.39139368924E+04  0.39139368924E+04  0.00000000000E+00 0.  1.
         23    2    1    2    0    0  0.34711037852E+03  0.19598567630E+04 -0.24970871008E+04  0.31945125032E+04  0.89117889010E+02 0.  0.
        254    2    1    2    0    0 -0.34711037852E+03 -0.19598567630E+04  0.49803228185E+02  0.21860774090E+04  0.90273469550E+03 0.  0.
        -24    2    4    4    0    0 -0.31079998498E+01 -0.10796812840E+04  0.42927380173E+03  0.11646296982E+04  0.79780964758E+02 0.  0.
         24    2    4    4    0    0 -0.34400237867E+03 -0.88017547893E+03 -0.37947057354E+03  0.10214477108E+04  0.79441799421E+02 0.  0.
         13    1    3    3    0    0  0.14715314389E+03  0.10629890039E+04 -0.13745178164E+04  0.17438173349E+04  0.00000000000E+00 0. -1.
        -13    1    3    3    0    0  0.19995723463E+03  0.89686775911E+03 -0.11225692844E+04  0.14506951683E+04  0.00000000000E+00 0.  1.
          2    1    6    6  502    0 -0.21558895833E+03 -0.64935611972E+03 -0.27360807984E+03  0.73688761051E+03  0.00000000000E+00 0. -1.
          3    1    5    5  503    0 -0.23149052862E+02 -0.92593316540E+03  0.38779919367E+03  0.10041296331E+04  0.00000000000E+00 0. -1.
         -4    1    5    5    0  503  0.20041053012E+02 -0.15374811863E+03  0.41474608061E+02  0.16050006511E+03  0.00000000000E+00 0.  1.
         -1    1    6    6    0  502 -0.12841342034E+03 -0.23081935921E+03 -0.10586249371E+03  0.28456010030E+03  0.00000000000E+00 0.  1.
<mgrwt>
<rscale>  0 0.47918211E+04</rscale>
<asrwt>0</asrwt>
<pdfrwt beam="1">  1        2 0.60214412E+00 0.47918211E+04</pdfrwt>
<pdfrwt beam="2">  1       -2 0.22563893E+00 0.47918211E+04</pdfrwt>
<totfact> 0.26907360E-02</totfact>
</mgrwt>
</event>
<event>
12    1  0.1980523E-007  0.3653204E+04  0.7818608E-02  0.8078412E-01
          4   -1    0    0  501    0  0.00000000000E+00  0.00000000000E+00  0.20328036219E+04  0.20328036219E+04  0.00000000000E+00 0. -1.
         -4   -1    0    0    0  501 -0.00000000000E+00 -0.00000000000E+00 -0.16413164181E+04  0.16413164181E+04  0.00000000000E+00 0.  1.
         23    2    1    2    0    0 -0.45814510279E+03 -0.16211505452E+04  0.50556625150E+03  0.17611617911E+04  0.89819787257E+02 0.  0.
        254    2    1    2    0    0  0.45814510279E+03  0.16211505452E+04 -0.11407904769E+03  0.19129582490E+04  0.89909354782E+03 0.  0.
        -24    2    4    4    0    0  0.63259741037E+03  0.91525727621E+03 -0.30603465814E+03  0.11566476010E+04  0.79379440294E+02 0.  0.
         24    2    4    4    0    0 -0.17445230758E+03  0.70589326900E+03  0.19195561046E+03  0.75631064802E+03  0.80249143782E+02 0.  0.
         13    1    3    3    0    0 -0.20381478022E+03 -0.71918427992E+03  0.17782691208E+03  0.76836768788E+03  0.00000000000E+00 0.  1.
        -13    1    3    3    0    0 -0.25433032257E+03 -0.90196626529E+03  0.32773933942E+03  0.99279410318E+03  0.00000000000E+00 0. -1.
          4    1    6    6  502    0 -0.18259601392E+03  0.68695834017E+03  0.18422683084E+03  0.73429734483E+03  0.00000000000E+00 0. -1.
          1    1    5    5  503    0  0.46294127103E+03  0.72321878104E+03 -0.22129189124E+03  0.88675257360E+03  0.00000000000E+00 0. -1.
         -2    1    5    5    0  503  0.16965613934E+03  0.19203849517E+03 -0.84742766902E+02  0.26989502735E+03  0.00000000000E+00 0.  1.
         -3    1    6    6    0  502  0.81437063373E+01  0.18934928833E+02  0.77287796129E+01  0.22013303185E+02  0.00000000000E+00 0.  1.
<mgrwt>
<rscale>  0 0.36532035E+04</rscale>
<asrwt>0</asrwt>
<pdfrwt beam="1">  1        4 0.31273902E+00 0.36532035E+04</pdfrwt>
<pdfrwt beam="2">  1       -4 0.25251022E+00 0.36532035E+04</pdfrwt>
<totfact> 0.24989052E-03</totfact>
</mgrwt>
</event>
<event>
12    1  0.1980523E-007  0.1603036E+04  0.7818608E-02  0.8818685E-01
          1   -1    0    0  501    0  0.00000000000E+00  0.00000000000E+00  0.15134539185E+04  0.15134539185E+04  0.00000000000E+00 0. -1.
         -1   -1    0    0    0  501 -0.00000000000E+00 -0.00000000000E+00 -0.42448032232E+03  0.42448032232E+03  0.00000000000E+00 0.  1.
         23    2    1    2    0    0 -0.43711417219E+03  0.30311995203E+03  0.50721471388E+03  0.74137121352E+03  0.97025797664E+02 0.  0.
        254    2    1    2    0    0  0.43711417219E+03 -0.30311995203E+03  0.58175888229E+03  0.11965630273E+04  0.90020507459E+03 0.  0.
        -24    2    4    4    0    0 -0.25586229972E+03 -0.69493452651E+01  0.53777143411E+02  0.27277877252E+03  0.77475594636E+02 0.  0.
         24    2    4    4    0    0  0.69297647191E+03 -0.29617060677E+03  0.52798173888E+03  0.92378425478E+03  0.81726457491E+02 0.  0.
         11    1    3    3    0    0 -0.13039507249E+03  0.90518093826E+02  0.21571118348E+03  0.26782030341E+03  0.00000000000E+00 0.  1.
        -11    1    3    3    0    0 -0.30671909970E+03  0.21260185820E+03  0.29150353040E+03  0.47355091011E+03  0.00000000000E+00 0. -1.
          4    1    6    6  502    0  0.62511590722E+03 -0.24450437027E+03  0.44915779705E+03  0.80764782622E+03  0.00000000000E+00 0. -1.
          1    1    5    5  503    0 -0.19129261455E+03 -0.38739562510E+02  0.33743727604E+02  0.19807134381E+03  0.00000000000E+00 0. -1.
         -2    1    5    5    0  503 -0.64569685168E+02  0.31790217244E+02  0.20033415806E+02  0.74707428707E+02  0.00000000000E+00 0.  1.
         -3    1    6    6    0  502  0.67860564688E+02 -0.51666236499E+02  0.78823941825E+02  0.11613642856E+03  0.00000000000E+00 0.  1.
<mgrwt>
<rscale>  0 0.16030364E+04</rscale>
<asrwt>0</asrwt>
<pdfrwt beam="1">  1        1 0.23283906E+00 0.16030364E+04</pdfrwt>
<pdfrwt beam="2">  1       -1 0.65304666E-01 0.16030364E+04</pdfrwt>
<totfact> 0.14599558E+01</totfact>
</mgrwt>
</event>
<event>
12    1  0.1980523E-007  0.2824395E+04  0.7818608E-02  0.8295735E-01
         -1   -1    0    0    0  501 -0.00000000000E+00  0.00000000000E+00  0.12581339540E+04  0.12581339540E+04  0.00000000000E+00 0.  1.
          1   -1    0    0  501    0  0.00000000000E+00 -0.00000000000E+00 -0.15851262647E+04  0.15851262647E+04  0.00000000000E+00 0. -1.
         23    2    1    2    0    0  0.70216708395E+03 -0.98358026342E+03 -0.51545142731E+03  0.13168232000E+04  0.88681553253E+02 0.  0.
        254    2    1    2    0    0 -0.70216708395E+03  0.98358026342E+03  0.18845911665E+03  0.15264370186E+04  0.91324935526E+03 0.  0.
        -24    2    4    4    0    0 -0.58732411392E+03  0.10896616409E+04 -0.35784367087E+02  0.12410101884E+04  0.80707250686E+02 0.  0.
         24    2    4    4    0    0 -0.11484297002E+03 -0.10608137748E+03  0.22424348374E+03  0.28542683026E+03  0.82104622399E+02 0.  0.
         13    1    3    3    0    0  0.28924114438E+03 -0.34588647615E+03 -0.21984801307E+03  0.50162839118E+03  0.00000000000E+00 0. -1.
        -13    1    3    3    0    0  0.41292593957E+03 -0.63769378726E+03 -0.29560341425E+03  0.81519480886E+03  0.00000000000E+00 0.  1.
          4    1    6    6  502    0 -0.67570283598E+02 -0.86144277753E+02  0.20146666386E+03  0.22929325429E+03  0.00000000000E+00 0. -1.
          1    1    5    5  503    0 -0.30706071226E+03  0.48544893461E+03 -0.21258651587E+02  0.57480333976E+03  0.00000000000E+00 0. -1.
         -2    1    5    5    0  503 -0.28026340166E+03  0.60421270629E+03 -0.14525715500E+02  0.66620684863E+03  0.00000000000E+00 0.  1.
         -3    1    6    6    0  502 -0.47272686426E+02 -0.19937099731E+02  0.22776819882E+02  0.56133575974E+02  0.00000000000E+00 0.  1.
<mgrwt>
<rscale>  0 0.28243946E+04</rscale>
<asrwt>0</asrwt>
<pdfrwt beam="1">  1        1 0.24386558E+00 0.28243946E+04</pdfrwt>
<pdfrwt beam="2">  1       -1 0.19355907E+00 0.28243946E+04</pdfrwt>
<totfact> 0.82350227E-01</totfact>
</mgrwt>
</event>
<event>
12    1  0.1980523E-007  0.2718866E+04  0.7818608E-02  0.8328909E-01
         -2   -1    0    0    0  501 -0.00000000000E+00  0.00000000000E+00  0.16086406379E+04  0.16086406379E+04  0.00000000000E+00 0.  1.
          2   -1    0    0  501    0  0.00000000000E+00 -0.00000000000E+00 -0.11488323533E+04  0.11488323533E+04  0.00000000000E+00 0. -1.
         23    2    1    2    0    0  0.32405959615E+03  0.11639777723E+04  0.18242430088E+03  0.12252479279E+04  0.89972123626E+02 0.  0.
        254    2    1    2    0    0 -0.32405959615E+03 -0.11639777723E+04  0.27738398369E+03  0.15322250634E+04  0.90050702060E+03 0.  0.
        -24    2    4    4    0    0 -0.22656935509E+02  0.11172585616E+03  0.16216390925E+03  0.21400941399E+03  0.80665309463E+02 0.  0.
         24    2    4    4    0    0 -0.30140266064E+03 -0.12757036284E+04  0.11522007445E+03  0.13182156494E+04  0.78444383096E+02 0.  0.
         11    1    3    3    0    0  0.42864179913E+02  0.23742474847E+03  0.65039332100E+02  0.24987589685E+03  0.00000000000E+00 0.  1.
        -11    1    3    3    0    0  0.28119541624E+03  0.92655302381E+03  0.11738496878E+03  0.97537203104E+03  0.00000000000E+00 0. -1.
          4    1    6    6  502    0 -0.72651877036E+02 -0.47081065929E+03  0.45293362118E+02  0.47853156719E+03  0.00000000000E+00 0. -1.
          3    1    5    5  503    0 -0.45065677192E+02  0.30483971168E+02  0.51565866680E+02  0.74961499221E+02  0.00000000000E+00 0. -1.
         -4    1    5    5    0  503  0.22408741683E+02  0.81241884991E+02  0.11059804257E+03  0.13904791477E+03  0.00000000000E+00 0.  1.
         -3    1    6    6    0  502 -0.22875078360E+03 -0.80489296915E+03  0.69926712329E+02  0.83968408219E+03  0.00000000000E+00 0.  1.
<mgrwt>
<rscale>  0 0.27188662E+04</rscale>
<asrwt>0</asrwt>
<pdfrwt beam="1">  1        2 0.17674344E+00 0.27188662E+04</pdfrwt>
<pdfrwt beam="2">  1       -2 0.24748317E+00 0.27188662E+04</pdfrwt>
<totfact> 0.11862488E+00</totfact>
</mgrwt>
</event>
<event>
12    1  0.1980523E-007  0.1959155E+04  0.7818608E-02  0.8625959E-01
          1   -1    0    0  501    0  0.00000000000E+00  0.00000000000E+00  0.88645407381E+03  0.88645407381E+03  0.00000000000E+00 0. -1.
         -1   -1    0    0    0  501 -0.00000000000E+00 -0.00000000000E+00 -0.10824832367E+04  0.10824832367E+04  0.00000000000E+00 0.  1.
         23    2    1    2    0    0 -0.67335715334E+03  0.25805033917E+03 -0.35256076354E+03  0.80778767214E+03  0.90675232441E+02 0.  0.
        254    2    1    2    0    0  0.67335715334E+03 -0.25805033917E+03  0.15653160060E+03  0.11611496384E+04  0.89653026010E+03 0.  0.
        -24    2    4    4    0    0  0.26350038351E+03  0.29130536726E+02  0.48400110338E+03  0.55759630806E+03  0.79846943667E+02 0.  0.
         24    2    4    4    0    0  0.40985676983E+03 -0.28718087590E+03 -0.32746950277E+03  0.60355333034E+03  0.81147520394E+02 0.  0.
         11    1    3    3    0    0 -0.48270083081E+03  0.22265636330E+03 -0.27938470544E+03  0.60052623741E+03  0.00000000000E+00 0.  1.
        -11    1    3    3    0    0 -0.19065632253E+03  0.35393975870E+02 -0.73176058094E+02  0.20726143473E+03  0.00000000000E+00 0. -1.
          2    1    6    6  502    0  0.16063393568E+03 -0.69740802368E+02 -0.94451809716E+02  0.19896779931E+03  0.00000000000E+00 0. -1.
          3    1    5    5  503    0  0.67682719448E+01 -0.10377816873E+02  0.52516980167E+02  0.53958704525E+02  0.00000000000E+00 0. -1.
         -4    1    5    5    0  503  0.25673211157E+03  0.39508353598E+02  0.43148412321E+03  0.50363760354E+03  0.00000000000E+00 0.  1.
         -1    1    6    6    0  502  0.24922283415E+03 -0.21744007353E+03 -0.23301769306E+03  0.40458553103E+03  0.00000000000E+00 0.  1.
<mgrwt>
<rscale>  0 0.19591546E+04</rscale>
<asrwt>0</asrwt>
<pdfrwt beam="1">  1        1 0.13637755E+00 0.19591546E+04</pdfrwt>
<pdfrwt beam="2">  1       -1 0.16653588E+00 0.19591546E+04</pdfrwt>
<totfact> 0.45366865E+00</totfact>
</mgrwt>
</event>
<event>
12    1  0.1980523E-007  0.4092141E+04  0.7818608E-02  0.7986212E-01
         -2   -1    0    0    0  501 -0.00000000000E+00  0.00000000000E+00  0.23963792828E+04  0.23963792828E+04  0.00000000000E+00 0.  1.
          2   -1    0    0  501    0  0.00000000000E+00 -0.00000000000E+00 -0.17469709854E+04  0.17469709854E+04  0.00000000000E+00 0. -1.
         23    2    1    2    0    0  0.18196133748E+04  0.57784596285E+03  0.68977522517E+03  0.20322827531E+04  0.97388586413E+02 0.  0.
        254    2    1    2    0    0 -0.18196133748E+04 -0.57784596285E+03 -0.40366927733E+02  0.21110675152E+04  0.90004320691E+03 0.  0.
        -24    2    4    4    0    0 -0.14604026001E+04 -0.18036641106E+03 -0.31009874825E+03  0.15060094248E+04  0.81211804320E+02 0.  0.
         24    2    4    4    0    0 -0.35921077462E+03 -0.39747955179E+03  0.26973182052E+03  0.60505809036E+03  0.79483727983E+02 0.  0.
         11    1    3    3    0    0  0.85957374210E+03  0.27111783996E+03  0.27404003737E+03  0.94205617844E+03  0.00000000000E+00 0. -1.
        -11    1    3    3    0    0  0.96003963266E+03  0.30672812290E+03  0.41573518779E+03  0.10902265746E+04  0.00000000000E+00 0.  1.
          2    1    6    6  502    0 -0.17076042773E+03 -0.13293126131E+03  0.96500942756E+02  0.23694361326E+03  0.00000000000E+00 0. -1.
          3    1    5    5  503    0 -0.44856722367E+03 -0.56207812043E+02 -0.13373839617E+03  0.47144228798E+03  0.00000000000E+00 0. -1.
         -4    1    5    5    0  503 -0.10118353765E+04 -0.12415859901E+03 -0.17636035209E+03  0.10345671368E+04  0.00000000000E+00 0.  1.
         -1    1    6    6    0  502 -0.18845034689E+03 -0.26454829049E+03  0.17323087776E+03  0.36811447710E+03  0.00000000000E+00 0.  1.
<mgrwt>
<rscale>  0 0.40921413E+04</rscale>
<asrwt>0</asrwt>
<pdfrwt beam="1">  1        2 0.26876477E+00 0.40921413E+04</pdfrwt>
<pdfrwt beam="2">  1       -2 0.36867374E+00 0.40921413E+04</pdfrwt>
<totfact> 0.85581043E-02</totfact>
</mgrwt>
</event>
<event>
12    1  0.1980523E-007  0.2504512E+04  0.7818608E-02  0.8401380E-01
          2   -1    0    0  501    0  0.00000000000E+00  0.00000000000E+00  0.14593817192E+04  0.14593817192E+04  0.00000000000E+00 0. -1.
         -2   -1    0    0    0  501 -0.00000000000E+00 -0.00000000000E+00 -0.10745271465E+04  0.10745271465E+04  0.00000000000E+00 0.  1.
         23    2    1    2    0    0  0.98140591573E+03  0.43736654623E+03  0.34856496336E+03  0.11333031398E+04  0.91822686663E+02 0.  0.
        254    2    1    2    0    0 -0.98140591573E+03 -0.43736654623E+03  0.36289609338E+02  0.14006057258E+04  0.89773737600E+03 0.  0.
        -24    2    4    4    0    0  0.59419924897E+02 -0.27601067206E+03 -0.14761153688E+03  0.32843797790E+03  0.79810531509E+02 0.  0.
         24    2    4    4    0    0 -0.10408258406E+04 -0.16135587417E+03  0.18390114621E+03  0.10721677479E+04  0.79811649870E+02 0.  0.
         11    1    3    3    0    0  0.77404573947E+03  0.37930563416E+03  0.29867068449E+03  0.91226298218E+03  0.00000000000E+00 0. -1.
        -11    1    3    3    0    0  0.20736017626E+03  0.58060912073E+02  0.49894278872E+02  0.22104015761E+03  0.00000000000E+00 0.  1.
          4    1    6    6  502    0 -0.10338270922E+04 -0.16378300004E+03  0.18834336358E+03  0.10635302300E+04  0.00000000000E+00 0. -1.
          1    1    5    5  503    0  0.16823545373E+02 -0.20814802715E+03 -0.13128907050E+03  0.24666871086E+03  0.00000000000E+00 0. -1.
         -2    1    5    5    0  503  0.42596379524E+02 -0.67862644913E+02 -0.16322466376E+02  0.81769267037E+02  0.00000000000E+00 0.  1.
         -3    1    6    6    0  502 -0.69987484512E+01  0.24271258721E+01 -0.44422173655E+01  0.86375178729E+01  0.00000000000E+00 0.  1.
<mgrwt>
<rscale>  0 0.25045121E+04</rscale>
<asrwt>0</asrwt>
<pdfrwt beam="1">  1        2 0.22452026E+00 0.25045121E+04</pdfrwt>
<pdfrwt beam="2">  1       -2 0.16531187E+00 0.25045121E+04</pdfrwt>
<totfact> 0.27487939E+00</totfact>
</mgrwt>
</event>
<event>
12    1  0.1980523E-007  0.2207862E+04  0.7818608E-02  0.8515163E-01
         -2   -1    0    0    0  501 -0.00000000000E+00  0.00000000000E+00  0.45196328469E+03  0.45196328469E+03  0.00000000000E+00 0. -1.
          2   -1    0    0  501    0  0.00000000000E+00 -0.00000000000E+00 -0.26963771493E+04  0.26963771493E+04  0.00000000000E+00 0.  1.
         23    2    1    2    0    0 -0.14653548440E+03 -0.75857355622E+03 -0.22744811976E+03  0.81069755972E+03  0.92689793230E+02 0.  0.
        254    2    1    2    0    0  0.14653548440E+03  0.75857355622E+03 -0.20169657449E+04  0.23376428743E+04  0.89415709096E+03 0.  0.
        -24    2    4    4    0    0  0.38342037637E+03  0.83426004283E+03 -0.15974747225E+04  0.18441533241E+04  0.77298057197E+02 0.  0.
         24    2    4    4    0    0 -0.23688489196E+03 -0.75686486607E+02 -0.41949102241E+03  0.49348955023E+03  0.75606362219E+02 0.  0.
         11    1    3    3    0    0 -0.24564238173E+01 -0.20906709736E+03 -0.43326479987E+02  0.21352346261E+03  0.00000000000E+00 0. -1.
        -11    1    3    3    0    0 -0.14407906058E+03 -0.54950645886E+03 -0.18412163977E+03  0.59717409711E+03  0.00000000000E+00 0.  1.
          2    1    6    6  502    0 -0.20137682439E+03 -0.62971134694E+02 -0.39697632733E+03  0.44956444885E+03  0.00000000000E+00 0. -1.
          3    1    5    5  503    0  0.55694476080E+02  0.70542689366E+02 -0.13931248149E+03  0.16578936392E+03  0.00000000000E+00 0. -1.
         -4    1    5    5    0  503  0.32772590029E+03  0.76371735346E+03 -0.14581622410E+04  0.16783639601E+04  0.00000000000E+00 0.  1.
         -1    1    6    6    0  502 -0.35508067573E+02 -0.12715351913E+02 -0.22514695082E+02  0.43925101385E+02  0.00000000000E+00 0.  1.
<mgrwt>
<rscale>  0 0.22078618E+04</rscale>
<asrwt>0</asrwt>
<pdfrwt beam="1">  1        2 0.41482725E+00 0.22078618E+04</pdfrwt>
<pdfrwt beam="2">  1       -2 0.69532813E-01 0.22078618E+04</pdfrwt>
<totfact> 0.46002443E+00</totfact>
</mgrwt>
</event>
<event>
12    1  0.1980523E-007  0.2613295E+04  0.7818608E-02  0.8363699E-01
          1   -1    0    0  501    0  0.00000000000E+00  0.00000000000E+00  0.22616049111E+04  0.22616049111E+04  0.00000000000E+00 0. -1.
         -1   -1    0    0    0  501 -0.00000000000E+00 -0.00000000000E+00 -0.75491838829E+03  0.75491838829E+03  0.00000000000E+00 0.  1.
         23    2    1    2    0    0 -0.12317503374E+03 -0.96233995818E+03  0.13774345875E+04  0.16872540615E+04  0.90719024580E+02 0.  0.
        254    2    1    2    0    0  0.12317503374E+03  0.96233995818E+03  0.12925193538E+03  0.13292692379E+04  0.89943335490E+03 0.  0.
        -24    2    4    4    0    0  0.58836894599E+02  0.76460442239E+03  0.48441425022E+03  0.90998602574E+03  0.73045864482E+02 0.  0.
         24    2    4    4    0    0  0.64338139139E+02  0.19773553579E+03 -0.35516231483E+03  0.41928321213E+03  0.80121182206E+02 0.  0.
         11    1    3    3    0    0 -0.27801887415E+02 -0.53032538547E+03  0.78844340598E+03  0.95061083723E+03  0.00000000000E+00 0.  1.
        -11    1    3    3    0    0 -0.95373146324E+02 -0.43201457271E+03  0.58899118148E+03  0.73664322432E+03  0.00000000000E+00 0. -1.
          2    1    6    6  502    0 -0.63605840146E+01 -0.29984253129E+01 -0.26597128980E+01  0.75180885911E+01  0.00000000000E+00 0. -1.
          3    1    5    5  503    0  0.18936995841E+02  0.50689802147E+03  0.35281065124E+03  0.61788313588E+03  0.00000000000E+00 0. -1.
         -4    1    5    5    0  503  0.39899898758E+02  0.25770640093E+03  0.13160359898E+03  0.29210288986E+03  0.00000000000E+00 0.  1.
         -1    1    6    6    0  502  0.70698723154E+02  0.20073396110E+03 -0.35250260194E+03  0.41176512354E+03  0.00000000000E+00 0.  1.
<mgrwt>
<rscale>  0 0.26132946E+04</rscale>
<asrwt>0</asrwt>
<pdfrwt beam="1">  1        1 0.34793921E+00 0.26132946E+04</pdfrwt>
<pdfrwt beam="2">  1       -1 0.11614129E+00 0.26132946E+04</pdfrwt>
<totfact> 0.11655975E+00</totfact>
</mgrwt>
</event>
<event>
12    1  0.1980523E-007  0.1745555E+04  0.7818608E-02  0.8735801E-01
          1   -1    0    0  501    0  0.00000000000E+00  0.00000000000E+00  0.12659233643E+04  0.12659233643E+04  0.00000000000E+00 0. -1.
         -1   -1    0    0    0  501 -0.00000000000E+00 -0.00000000000E+00 -0.60172722472E+03  0.60172722472E+03  0.00000000000E+00 0.  1.
         23    2    1    2    0    0  0.62729643961E+03 -0.85249809947E+02  0.18991252621E+03  0.66803583662E+03  0.97142977912E+02 0.  0.
        254    2    1    2    0    0 -0.62729643961E+03  0.85249809947E+02  0.47428361333E+03  0.11996147524E+04  0.90186598505E+03 0.  0.
        -24    2    4    4    0    0 -0.71248188377E+03  0.31008764693E+03  0.16275018600E+03  0.79800887336E+03  0.80905843118E+02 0.  0.
         24    2    4    4    0    0  0.85185444159E+02 -0.22483783698E+03  0.31153342733E+03  0.40160587901E+03  0.80159795851E+02 0.  0.
         11    1    3    3    0    0  0.43129785679E+03 -0.44982835309E+02  0.17422992751E+03  0.46733003796E+03  0.00000000000E+00 0. -1.
        -11    1    3    3    0    0  0.19599858282E+03 -0.40266974638E+02  0.15682598709E+02  0.20070579866E+03  0.00000000000E+00 0.  1.
          2    1    6    6  502    0  0.68559008349E+02 -0.70953649433E+02  0.12135347639E+03  0.15640148409E+03  0.00000000000E+00 0. -1.
          1    1    5    5  503    0 -0.90585128740E+02  0.38830932453E+02  0.48975635523E+02  0.11005507593E+03  0.00000000000E+00 0. -1.
         -2    1    5    5    0  503 -0.62189675503E+03  0.27125671447E+03  0.11377455047E+03  0.68795379743E+03  0.00000000000E+00 0.  1.
         -1    1    6    6    0  502  0.16626435810E+02 -0.15388418755E+03  0.19017995094E+03  0.24520439491E+03  0.00000000000E+00 0.  1.
<mgrwt>
<rscale>  0 0.17455550E+04</rscale>
<asrwt>0</asrwt>
<pdfrwt beam="1">  1        1 0.19475744E+00 0.17455550E+04</pdfrwt>
<pdfrwt beam="2">  1       -1 0.92573419E-01 0.17455550E+04</pdfrwt>
<totfact> 0.10294438E+01</totfact>
</mgrwt>
</event>
<event>
12    1  0.1980523E-007  0.1247068E+04  0.7818608E-02  0.9072627E-01
          2   -1    0    0  501    0  0.00000000000E+00  0.00000000000E+00  0.20410874677E+04  0.20410874677E+04  0.00000000000E+00 0. -1.
         -2   -1    0    0    0  501 -0.00000000000E+00 -0.00000000000E+00 -0.19048394996E+03  0.19048394996E+03  0.00000000000E+00 0.  1.
         23    2    1    2    0    0 -0.19097974110E+03  0.17670785663E+03  0.22429272258E+03  0.35596972109E+03  0.93318212696E+02 0.  0.
        254    2    1    2    0    0  0.19097974110E+03 -0.17670785663E+03  0.16263107952E+04  0.18756016966E+04  0.89738285789E+03 0.  0.
        -24    2    4    4    0    0 -0.96770734155E+02 -0.45431586370E+03  0.11767080165E+04  0.12676144563E+04  0.80232005313E+02 0.  0.
         24    2    4    4    0    0  0.28775047525E+03  0.27760800707E+03  0.44960277863E+03  0.60798724027E+03  0.87402998672E+02 0.  0.
         13    1    3    3    0    0 -0.84940414617E+02  0.40831216534E+02  0.36484017039E+02  0.10106010973E+03  0.00000000000E+00 0.  1.
        -13    1    3    3    0    0 -0.10603932648E+03  0.13587664010E+03  0.18780870554E+03  0.25490961136E+03  0.00000000000E+00 0. -1.
          2    1    6    6  502    0  0.21738337761E+03  0.23853264438E+03  0.31388307850E+03  0.45019544896E+03  0.00000000000E+00 0. -1.
          1    1    5    5  503    0 -0.92663630976E+02 -0.45317574284E+03  0.11754264544E+04  0.12631635493E+04  0.00000000000E+00 0. -1.
         -2    1    5    5    0  503 -0.41071031791E+01 -0.11401208646E+01  0.12815620927E+01  0.44509070432E+01  0.00000000000E+00 0.  1.
         -1    1    6    6    0  502  0.70367097641E+02  0.39075362691E+02  0.13571970013E+03  0.15779179131E+03  0.00000000000E+00 0.  1.
<mgrwt>
<rscale>  0 0.12470676E+04</rscale>
<asrwt>0</asrwt>
<pdfrwt beam="1">  1        2 0.31401344E+00 0.12470676E+04</pdfrwt>
<pdfrwt beam="2">  1       -2 0.29305224E-01 0.12470676E+04</pdfrwt>
<totfact> 0.66881109E+01</totfact>
</mgrwt>
</event>
<event>
12    1  0.1980523E-007  0.1212380E+04  0.7818608E-02  0.9102089E-01
         -2   -1    0    0    0  501 -0.00000000000E+00  0.00000000000E+00  0.10611225245E+03  0.10611225245E+03  0.00000000000E+00 0.  1.
          2   -1    0    0  501    0  0.00000000000E+00 -0.00000000000E+00 -0.34629977336E+04  0.34629977336E+04  0.00000000000E+00 0. -1.
         23    2    1    2    0    0  0.12286898253E+03  0.70077156040E+02 -0.14095555437E+04  0.14196542664E+04  0.92540859450E+02 0.  0.
        254    2    1    2    0    0 -0.12286898253E+03 -0.70077156040E+02 -0.19473299375E+04  0.21494557197E+04  0.89892069217E+03 0.  0.
        -24    2    4    4    0    0 -0.35870764354E+02 -0.21403636979E+03 -0.19521934837E+04  0.19655251860E+04  0.71635043152E+02 0.  0.
         24    2    4    4    0    0 -0.86998218174E+02  0.14395921375E+03  0.48635462477E+01  0.18393053372E+03  0.74255248739E+02 0.  0.
         13    1    3    3    0    0  0.37136919297E+02  0.34567433715E+02 -0.19274537481E+03  0.19931090728E+03  0.00000000000E+00 0.  1.
        -13    1    3    3    0    0  0.85732063230E+02  0.35509722325E+02 -0.12168101689E+04  0.12203433591E+04  0.00000000000E+00 0. -1.
          4    1    6    6  502    0 -0.12414513497E+01  0.16845278765E+02  0.24059689224E+02  0.29396824041E+02  0.00000000000E+00 0. -1.
          1    1    5    5  503    0 -0.50875618400E+02 -0.14268431556E+03 -0.14805090322E+04  0.14882386022E+04  0.00000000000E+00 0. -1.
         -2    1    5    5    0  503  0.15004854047E+02 -0.71352054231E+02 -0.47168445148E+03  0.47728658378E+03  0.00000000000E+00 0.  1.
         -3    1    6    6    0  502 -0.85756766824E+02  0.12711393498E+03 -0.19196142977E+02  0.15453370968E+03  0.00000000000E+00 0.  1.
<mgrwt>
<rscale>  0 0.12123803E+04</rscale>
<asrwt>0</asrwt>
<pdfrwt beam="1">  1        2 0.53276880E+00 0.12123803E+04</pdfrwt>
<pdfrwt beam="2">  1       -2 0.16324964E-01 0.12123803E+04</pdfrwt>
<totfact> 0.26491846E+01</totfact>
</mgrwt>
</event>
<event>
12    1  0.1980523E-007  0.4262397E+04  0.7818608E-02  0.7953608E-01
          1   -1    0    0  501    0  0.00000000000E+00  0.00000000000E+00  0.37325045250E+04  0.37325045250E+04  0.00000000000E+00 0. -1.
         -1   -1    0    0    0  501 -0.00000000000E+00 -0.00000000000E+00 -0.12168790388E+04  0.12168790388E+04  0.00000000000E+00 0.  1.
         23    2    1    2    0    0 -0.20169802622E+04  0.25921695924E+03  0.12390416663E+04  0.23831341239E+04  0.93280177058E+02 0.  0.
        254    2    1    2    0    0  0.20169802622E+04 -0.25921695924E+03  0.12765838199E+04  0.25662494399E+04  0.90585160407E+03 0.  0.
        -24    2    4    4    0    0  0.85560211458E+03  0.31886206509E+03  0.64650277834E+03  0.11216838472E+04  0.80503512755E+02 0.  0.
         24    2    4    4    0    0  0.11613781477E+04 -0.57807902434E+03  0.63008104152E+03  0.14445655928E+04  0.82420098754E+02 0.  0.
         11    1    3    3    0    0 -0.86581724397E+03  0.12301144467E+03  0.58528693094E+03  0.10522984876E+04  0.00000000000E+00 0. -1.
        -11    1    3    3    0    0 -0.11511630183E+04  0.13620551458E+03  0.65375473534E+03  0.13308356363E+04  0.00000000000E+00 0.  1.
          4    1    6    6  502    0  0.93259675981E+03 -0.49088717430E+03  0.48689812129E+03  0.11609378600E+04  0.00000000000E+00 0. -1.
          1    1    5    5  503    0  0.37638259166E+03  0.12547808733E+03  0.32686189667E+03  0.51404990536E+03  0.00000000000E+00 0. -1.
         -2    1    5    5    0  503  0.47921952292E+03  0.19338397776E+03  0.31964088167E+03  0.60763394181E+03  0.00000000000E+00 0.  1.
         -3    1    6    6    0  502  0.22878138785E+03 -0.87191850034E+02  0.14318292023E+03  0.28362773275E+03  0.00000000000E+00 0.  1.
<mgrwt>
<rscale>  0 0.42623968E+04</rscale>
<asrwt>0</asrwt>
<pdfrwt beam="1">  1        1 0.57423146E+00 0.42623968E+04</pdfrwt>
<pdfrwt beam="2">  1       -1 0.18721216E+00 0.42623968E+04</pdfrwt>
<totfact> 0.22923101E-02</totfact>
</mgrwt>
</event>
<event>
12    1  0.1980523E-007  0.2158255E+04  0.7818608E-02  0.8536007E-01
          1   -1    0    0  501    0  0.00000000000E+00  0.00000000000E+00  0.14679495665E+04  0.14679495665E+04  0.00000000000E+00 0. -1.
         -1   -1    0    0    0  501 -0.00000000000E+00 -0.00000000000E+00 -0.79329446337E+03  0.79329446337E+03  0.00000000000E+00 0.  1.
         23    2    1    2    0    0 -0.25884737447E+03 -0.44232578232E+03  0.10458981544E+04  0.11681557499E+04  0.89614985390E+02 0.  0.
        254    2    1    2    0    0  0.25884737447E+03  0.44232578232E+03 -0.37124305127E+03  0.10930882800E+04  0.89127241838E+03 0.  0.
        -24    2    4    4    0    0 -0.29863141226E+01  0.66017167266E+03 -0.15897699191E+03  0.68360981759E+03  0.78823494588E+02 0.  0.
         24    2    4    4    0    0  0.26183368859E+03 -0.21784589034E+03 -0.21226605936E+03  0.40947846240E+03  0.81252807926E+02 0.  0.
         11    1    3    3    0    0 -0.24012016899E+03 -0.38715235784E+03  0.85821480700E+03  0.97163640252E+03  0.00000000000E+00 0.  1.
        -11    1    3    3    0    0 -0.18727205478E+02 -0.55173424471E+02  0.18768334741E+03  0.19651934736E+03  0.00000000000E+00 0. -1.
          2    1    6    6  502    0  0.17408059898E+03 -0.18052276962E+03 -0.18042368404E+03  0.30894211603E+03  0.00000000000E+00 0. -1.
          1    1    5    5  503    0 -0.37748494408E+02  0.35580586872E+03 -0.10149171400E+03  0.37191844947E+03  0.00000000000E+00 0. -1.
         -2    1    5    5    0  503  0.34762180285E+02  0.30436580394E+03 -0.57485277909E+02  0.31169136812E+03  0.00000000000E+00 0.  1.
         -1    1    6    6    0  502  0.87753089610E+02 -0.37323120719E+02 -0.31842375323E+02  0.10053634638E+03  0.00000000000E+00 0.  1.
<mgrwt>
<rscale>  0 0.21582551E+04</rscale>
<asrwt>0</asrwt>
<pdfrwt beam="1">  1        1 0.22583839E+00 0.21582551E+04</pdfrwt>
<pdfrwt beam="2">  1       -1 0.12204530E+00 0.21582551E+04</pdfrwt>
<totfact> 0.37419109E+00</totfact>
</mgrwt>
</event>
<event>
12    1  0.1980523E-007  0.1151766E+04  0.7818608E-02  0.9156156E-01
          1   -1    0    0  501    0  0.00000000000E+00  0.00000000000E+00  0.34442091810E+04  0.34442091810E+04  0.00000000000E+00 0. -1.
         -1   -1    0    0    0  501 -0.00000000000E+00 -0.00000000000E+00 -0.96289460245E+02  0.96289460245E+02  0.00000000000E+00 0.  1.
         23    2    1    2    0    0  0.50773115608E+02  0.20172248662E+03  0.78928541726E+03  0.82022808671E+03  0.80825574273E+02 0.  0.
        254    2    1    2    0    0 -0.50773115608E+02 -0.20172248662E+03  0.25586343035E+04  0.27202705545E+04  0.89999584441E+03 0.  0.
        -24    2    4    4    0    0 -0.29757142773E+03 -0.29289017502E+03  0.56112994403E+03  0.70390768816E+03  0.79283101190E+02 0.  0.
         24    2    4    4    0    0  0.24679831213E+03  0.91167688401E+02  0.19975043595E+04  0.20163628664E+04  0.80464827931E+02 0.  0.
         13    1    3    3    0    0  0.34495244905E+01  0.76373426600E+02  0.43061715796E+03  0.43735104463E+03  0.00000000000E+00 0. -1.
        -13    1    3    3    0    0  0.47323591117E+02  0.12534906002E+03  0.35866825929E+03  0.38287704208E+03  0.00000000000E+00 0.  1.
          4    1    6    6  502    0  0.45698691277E+02  0.46959220974E+02  0.63777661053E+03  0.64113379552E+03  0.00000000000E+00 0. -1.
          1    1    5    5  503    0 -0.32166838281E+02 -0.57927204752E+01  0.59735474644E+02  0.68092496110E+02  0.00000000000E+00 0. -1.
         -2    1    5    5    0  503 -0.26540458945E+03 -0.28709745455E+03  0.50139446939E+03  0.63581519205E+03  0.00000000000E+00 0.  1.
         -3    1    6    6    0  502  0.20109962085E+03  0.44208467428E+02  0.13597277489E+04  0.13752290709E+04  0.00000000000E+00 0.  1.
<mgrwt>
<rscale>  0 0.11517657E+04</rscale>
<asrwt>0</asrwt>
<pdfrwt beam="1">  1        1 0.52987824E+00 0.11517657E+04</pdfrwt>
<pdfrwt beam="2">  1       -1 0.14813766E-01 0.11517657E+04</pdfrwt>
<totfact> 0.94402670E+00</totfact>
</mgrwt>
</event>
<event>
12    1  0.1980523E-007  0.1763825E+04  0.7818608E-02  0.8725777E-01
          1   -1    0    0  501    0  0.00000000000E+00  0.00000000000E+00  0.23907216771E+04  0.23907216771E+04  0.00000000000E+00 0.  1.
         -1   -1    0    0    0  501 -0.00000000000E+00 -0.00000000000E+00 -0.32532840777E+03  0.32532840777E+03  0.00000000000E+00 0. -1.
         23    2    1    2    0    0 -0.64361723832E+03 -0.80314654049E+02  0.79437241980E+03  0.10292476495E+04  0.87347521934E+02 0.  0.
        254    2    1    2    0    0  0.64361723832E+03  0.80314654049E+02  0.12710208495E+04  0.16868024353E+04  0.89950812269E+03 0.  0.
        -24    2    4    4    0    0  0.10357462529E+03 -0.13795231768E+03  0.10365563286E+04  0.10538228760E+04  0.79593256665E+02 0.  0.
         24    2    4    4    0    0  0.54004261304E+03  0.21826697173E+03  0.23446452086E+03  0.63297955935E+03  0.80018848808E+02 0.  0.
         11    1    3    3    0    0 -0.35918271976E+03 -0.17268940616E+01  0.42387732786E+03  0.55559625396E+03  0.00000000000E+00 0. -1.
        -11    1    3    3    0    0 -0.28443451856E+03 -0.78587759988E+02  0.37049509194E+03  0.47365139557E+03  0.00000000000E+00 0.  1.
          4    1    6    6  502    0  0.84331044141E+02  0.18418419369E+02  0.93590109020E+01  0.86824848189E+02  0.00000000000E+00 0. -1.
          3    1    5    5  503    0  0.94145240896E+02 -0.75180219000E+02  0.79445129507E+03  0.80353484800E+03  0.00000000000E+00 0. -1.
         -4    1    5    5    0  503  0.94293843913E+01 -0.62772098678E+02  0.24210503358E+03  0.25028802797E+03  0.00000000000E+00 0.  1.
         -3    1    6    6    0  502  0.45571156890E+03  0.19984855236E+03  0.22510550996E+03  0.54615471116E+03  0.00000000000E+00 0.  1.
<mgrwt>
<rscale>  0 0.17638250E+04</rscale>
<asrwt>0</asrwt>
<pdfrwt beam="1">  1        1 0.36780332E+00 0.17638250E+04</pdfrwt>
<pdfrwt beam="2">  1       -1 0.50050526E-01 0.17638250E+04</pdfrwt>
<totfact> 0.61191823E+00</totfact>
</mgrwt>
</event>
<event>
12    1  0.1980523E-007  0.1385658E+04  0.7818608E-02  0.8964266E-01
         -2   -1    0    0    0  501 -0.00000000000E+00  0.00000000000E+00  0.57414717061E+03  0.57414717061E+03  0.00000000000E+00 0.  1.
          2   -1    0    0  501    0  0.00000000000E+00 -0.00000000000E+00 -0.83604313132E+03  0.83604313132E+03  0.00000000000E+00 0. -1.
         23    2    1    2    0    0  0.11498718138E+03 -0.35602851002E+03 -0.19873335549E+03  0.43386202400E+03  0.93610669574E+02 0.  0.
        254    2    1    2    0    0 -0.11498718138E+03  0.35602851002E+03 -0.63162605226E+02  0.97632827793E+03  0.89958270312E+03 0.  0.
        -24    2    4    4    0    0 -0.44473784811E+03  0.36448310011E+03  0.11709705424E+03  0.59195596151E+03  0.77848933496E+02 0.  0.
         24    2    4    4    0    0  0.32975066673E+03 -0.84545900947E+01 -0.18025965946E+03  0.38437231642E+03  0.80259270512E+02 0.  0.
         13    1    3    3    0    0  0.60988546148E+02 -0.14985450281E+03 -0.36095333889E+02  0.16576745127E+03  0.00000000000E+00 0.  1.
        -13    1    3    3    0    0  0.53998635232E+02 -0.20617400721E+03 -0.16263802160E+03  0.26809457273E+03  0.00000000000E+00 0. -1.
          4    1    6    6  502    0  0.19301453127E+03 -0.44488876408E+02 -0.10440552237E+03  0.22390708454E+03  0.00000000000E+00 0. -1.
          3    1    5    5  503    0 -0.37908100501E+02  0.61371537702E+02  0.44833054705E+01  0.72274405922E+02  0.00000000000E+00 0. -1.
         -2    1    5    5    0  503 -0.40682974760E+03  0.30311156241E+03  0.11261374877E+03  0.51968155559E+03  0.00000000000E+00 0.  1.
         -3    1    6    6    0  502  0.13673613546E+03  0.36034286314E+02 -0.75854137091E+02  0.16046523189E+03  0.00000000000E+00 0.  1.
<mgrwt>
<rscale>  0 0.13856577E+04</rscale>
<asrwt>0</asrwt>
<pdfrwt beam="1">  1        2 0.12862202E+00 0.13856577E+04</pdfrwt>
<pdfrwt beam="2">  1       -2 0.88330334E-01 0.13856577E+04</pdfrwt>
<totfact> 0.34911660E+01</totfact>
</mgrwt>
</event>
<event>
12    1  0.1980523E-007  0.1557517E+04  0.7818608E-02  0.8847081E-01
         -1   -1    0    0    0  501 -0.00000000000E+00  0.00000000000E+00  0.55543137563E+03  0.55543137563E+03  0.00000000000E+00 0.  1.
          1   -1    0    0  501    0  0.00000000000E+00 -0.00000000000E+00 -0.10918800694E+04  0.10918800694E+04  0.00000000000E+00 0. -1.
         23    2    1    2    0    0 -0.33545078116E+03  0.25899761478E+03 -0.48876757793E+03  0.65340796168E+03  0.91876156354E+02 0.  0.
        254    2    1    2    0    0  0.33545078116E+03 -0.25899761478E+03 -0.47681115883E+02  0.99390348340E+03  0.89775478526E+03 0.  0.
        -24    2    4    4    0    0  0.10105786787E+03 -0.54440922918E+03  0.13304269227E+03  0.57509415573E+03  0.80242311218E+02 0.  0.
         24    2    4    4    0    0  0.23439291329E+03  0.28541161440E+03 -0.18072380815E+03  0.41880932767E+03  0.79626193419E+02 0.  0.
         11    1    3    3    0    0 -0.26394540842E+02  0.28373058437E+02 -0.12753568169E+02  0.40796516179E+02  0.00000000000E+00 0.  1.
        -11    1    3    3    0    0 -0.30905624031E+03  0.23062455635E+03 -0.47601400976E+03  0.61261144550E+03  0.00000000000E+00 0. -1.
          4    1    6    6  502    0  0.13191867450E+03  0.10323964174E+03 -0.97586875068E+02  0.19386634183E+03  0.00000000000E+00 0. -1.
          3    1    5    5  503    0  0.66490008644E+02 -0.48889106337E+03  0.10807322740E+03  0.50508931445E+03  0.00000000000E+00 0. -1.
         -4    1    5    5    0  503  0.34567859221E+02 -0.55518165814E+02  0.24969464869E+02  0.70004841278E+02  0.00000000000E+00 0.  1.
         -3    1    6    6    0  502  0.10247423879E+03  0.18217197266E+03 -0.83136933085E+02  0.22494298585E+03  0.00000000000E+00 0.  1.
<mgrwt>
<rscale>  0 0.15575165E+04</rscale>
<asrwt>0</asrwt>
<pdfrwt beam="1">  1        1 0.16798155E+00 0.15575165E+04</pdfrwt>
<pdfrwt beam="2">  1       -1 0.85450981E-01 0.15575165E+04</pdfrwt>
<totfact> 0.16760359E+01</totfact>
</mgrwt>
</event>
<event>
12    1  0.1980523E-007  0.1148853E+04  0.7818608E-02  0.9158843E-01
          1   -1    0    0  501    0  0.00000000000E+00  0.00000000000E+00  0.53722432412E+03  0.53722432412E+03  0.00000000000E+00 0. -1.
         -1   -1    0    0    0  501 -0.00000000000E+00 -0.00000000000E+00 -0.61420465594E+03  0.61420465594E+03  0.00000000000E+00 0.  1.
         23    2    1    2    0    0  0.10263257412E+03 -0.51914437390E+02  0.16298887506E+03  0.21924059133E+03  0.90953336456E+02 0.  0.
        254    2    1    2    0    0 -0.10263257412E+03  0.51914437390E+02 -0.23996920688E+03  0.93218838873E+03  0.89339880107E+03 0.  0.
        -24    2    4    4    0    0 -0.11859048351E+03  0.41422324025E+03  0.77896515095E+02  0.44348929741E+03  0.70500314277E+02 0.  0.
         24    2    4    4    0    0  0.15957909387E+02 -0.36230880286E+03 -0.31786572197E+03  0.48869909132E+03  0.79157192662E+02 0.  0.
         13    1    3    3    0    0  0.17883548424E+02 -0.29286396208E+02  0.11339557682E+03  0.11847392603E+03  0.00000000000E+00 0. -1.
        -13    1    3    3    0    0  0.84749025698E+02 -0.22628041181E+02  0.49593298236E+02  0.10076666529E+03  0.00000000000E+00 0.  1.
          4    1    6    6  502    0 -0.70653109948E+01 -0.14947534991E+03 -0.17996962375E+03  0.23405525912E+03  0.00000000000E+00 0. -1.
          1    1    5    5  503    0 -0.33360588247E+01  0.18693922721E+02  0.19799309489E+02  0.27433641600E+02  0.00000000000E+00 0. -1.
         -2    1    5    5    0  503 -0.11525442468E+03  0.39552931753E+03  0.58097205606E+02  0.41605565581E+03  0.00000000000E+00 0.  1.
         -3    1    6    6    0  502  0.23023220382E+02 -0.21283345295E+03 -0.13789609823E+03  0.25464383220E+03  0.00000000000E+00 0.  1.
<mgrwt>
<rscale>  0 0.11488528E+04</rscale>
<asrwt>0</asrwt>
<pdfrwt beam="1">  1        1 0.82649896E-01 0.11488528E+04</pdfrwt>
<pdfrwt beam="2">  1       -1 0.94493024E-01 0.11488528E+04</pdfrwt>
<totfact> 0.43187254E+01</totfact>
</mgrwt>
</event>
<event>
12    1  0.1980523E-007  0.1015768E+04  0.7818608E-02  0.9291417E-01
         -1   -1    0    0    0  501 -0.00000000000E+00  0.00000000000E+00  0.11608683812E+04  0.11608683812E+04  0.00000000000E+00 0.  1.
          1   -1    0    0  501    0  0.00000000000E+00 -0.00000000000E+00 -0.22220122752E+03  0.22220122752E+03  0.00000000000E+00 0. -1.
         23    2    1    2    0    0 -0.45017918304E+02  0.17134614892E+02  0.17084601198E+03  0.19981975464E+03  0.91757106208E+02 0.  0.
        254    2    1    2    0    0  0.45017918304E+02 -0.17134614892E+02  0.76782114171E+03  0.11832498541E+04  0.89900539684E+03 0.  0.
        -24    2    4    4    0    0  0.51037423824E+02 -0.20760893242E+03  0.90562976323E+03  0.93425302545E+03  0.83409592168E+02 0.  0.
         24    2    4    4    0    0 -0.60195055193E+01  0.19047431752E+03 -0.13780862152E+03  0.24899682864E+03  0.81801616269E+02 0.  0.
         13    1    3    3    0    0 -0.12955587265E+02 -0.54434018166E+01 -0.83748158603E+01  0.16358954900E+02  0.00000000000E+00 0. -1.
        -13    1    3    3    0    0 -0.32062331039E+02  0.22578016708E+02  0.17922082784E+03  0.18346079974E+03  0.00000000000E+00 0.  1.
          2    1    6    6  502    0 -0.40532335414E+02  0.60071140981E+02 -0.46338272231E+02  0.86015392031E+02  0.00000000000E+00 0. -1.
          3    1    5    5  503    0  0.29927442921E+02 -0.16440025576E+03  0.81177403940E+03  0.82879441780E+03  0.00000000000E+00 0. -1.
         -4    1    5    5    0  503  0.21109980902E+02 -0.43208676651E+02  0.93855723834E+02  0.10545860765E+03  0.00000000000E+00 0.  1.
         -1    1    6    6    0  502  0.34512829895E+02  0.13040317654E+03 -0.91470349289E+02  0.16298143661E+03  0.00000000000E+00 0.  1.
<mgrwt>
<rscale>  0 0.10157684E+04</rscale>
<asrwt>0</asrwt>
<pdfrwt beam="1">  1        1 0.34184805E-01 0.10157684E+04</pdfrwt>
<pdfrwt beam="2">  1       -1 0.17859513E+00 0.10157684E+04</pdfrwt>
<totfact> 0.27692866E+01</totfact>
</mgrwt>
</event>
<event>
12    1  0.1980523E-007  0.2857218E+04  0.7818608E-02  0.8285721E-01
          1   -1    0    0  501    0  0.00000000000E+00  0.00000000000E+00  0.16317316684E+04  0.16317316684E+04  0.00000000000E+00 0. -1.
         -1   -1    0    0    0  501 -0.00000000000E+00 -0.00000000000E+00 -0.12507712731E+04  0.12507712731E+04  0.00000000000E+00 0.  1.
         23    2    1    2    0    0 -0.75398309472E+03  0.10076258838E+04 -0.89798833765E+02  0.12649869558E+04  0.91256445932E+02 0.  0.
        254    2    1    2    0    0  0.75398309472E+03 -0.10076258838E+04  0.47075922907E+03  0.16175159858E+04  0.90052389399E+03 0.  0.
        -24    2    4    4    0    0  0.45927043844E+02 -0.64191913771E+03  0.49574512151E+03  0.81615512503E+03  0.78590647578E+02 0.  0.
         24    2    4    4    0    0  0.70805605087E+03 -0.36570674610E+03 -0.24985892438E+02  0.80136086075E+03  0.80437174268E+02 0.  0.
         11    1    3    3    0    0 -0.12542606422E+02  0.34031881735E+02 -0.13971035465E+02  0.38867412858E+02  0.00000000000E+00 0.  1.
        -11    1    3    3    0    0 -0.74144048829E+03  0.97359400208E+03 -0.75827798300E+02  0.12261195429E+04  0.00000000000E+00 0. -1.
          2    1    6    6  502    0  0.12321245697E+03 -0.32590265500E+02  0.59778782183E+01  0.12758985064E+03  0.00000000000E+00 0. -1.
          3    1    5    5  503    0  0.50588553755E+02 -0.23777431149E+03  0.16366134097E+03  0.29305436271E+03  0.00000000000E+00 0. -1.
         -4    1    5    5    0  503 -0.46615099112E+01 -0.40414482622E+03  0.33208378054E+03  0.52310076232E+03  0.00000000000E+00 0.  1.
         -1    1    6    6    0  502  0.58484359390E+03 -0.33311648060E+03 -0.30963770656E+02  0.67377101011E+03  0.00000000000E+00 0.  1.
<mgrwt>
<rscale>  0 0.28572176E+04</rscale>
<asrwt>0</asrwt>
<pdfrwt beam="1">  1        1 0.25103564E+00 0.28572176E+04</pdfrwt>
<pdfrwt beam="2">  1       -1 0.19242635E+00 0.28572176E+04</pdfrwt>
<totfact> 0.77689322E-01</totfact>
</mgrwt>
</event>
<event>
12    1  0.1980523E-007  0.1373923E+04  0.7818608E-02  0.8972914E-01
          2   -1    0    0  501    0  0.00000000000E+00  0.00000000000E+00  0.16175418002E+04  0.16175418002E+04  0.00000000000E+00 0. -1.
         -2   -1    0    0    0  501 -0.00000000000E+00 -0.00000000000E+00 -0.29174876263E+03  0.29174876263E+03  0.00000000000E+00 0.  1.
         23    2    1    2    0    0 -0.18916178256E+03 -0.62747353006E+02  0.84120259708E+03  0.86918968246E+03  0.90274495159E+02 0.  0.
        254    2    1    2    0    0  0.18916178256E+03  0.62747353006E+02  0.48459044046E+03  0.10401008803E+04  0.89847789956E+03 0.  0.
        -24    2    4    4    0    0 -0.35323701443E+02  0.41836689914E+03  0.43353188776E+03  0.60880437552E+03  0.80088974025E+02 0.  0.
         24    2    4    4    0    0  0.22448548401E+03 -0.35561954614E+03  0.51058552703E+02  0.43129650482E+03  0.80936426542E+02 0.  0.
         13    1    3    3    0    0  0.73740936967E+01 -0.41363300788E+01  0.10176361296E+02  0.13230450242E+02  0.00000000000E+00 0.  1.
        -13    1    3    3    0    0 -0.19653587626E+03 -0.58611022927E+02  0.83102623578E+03  0.85595923222E+03  0.00000000000E+00 0. -1.
          2    1    6    6  502    0  0.20403079252E+03 -0.29801137843E+03  0.17565367285E+02  0.36159077435E+03  0.00000000000E+00 0. -1.
          3    1    5    5  503    0 -0.59547474329E+02  0.29420054064E+03  0.32117585568E+03  0.43960640359E+03  0.00000000000E+00 0. -1.
         -2    1    5    5    0  503  0.24223772885E+02  0.12416635851E+03  0.11235603209E+03  0.16919797193E+03  0.00000000000E+00 0.  1.
         -1    1    6    6    0  502  0.20454691487E+02 -0.57608167709E+02  0.33493185418E+02  0.69705730468E+02  0.00000000000E+00 0.  1.
<mgrwt>
<rscale>  0 0.13739226E+04</rscale>
<asrwt>0</asrwt>
<pdfrwt beam="1">  1        2 0.24885258E+00 0.13739226E+04</pdfrwt>
<pdfrwt beam="2">  1       -2 0.44884426E-01 0.13739226E+04</pdfrwt>
<totfact> 0.50035098E+01</totfact>
</mgrwt>
</event>
<event>
12    1  0.1980523E-007  0.1202099E+04  0.7818608E-02  0.9111021E-01
         -1   -1    0    0    0  501 -0.00000000000E+00  0.00000000000E+00  0.62816097799E+03  0.62816097799E+03  0.00000000000E+00 0.  1.
          1   -1    0    0  501    0  0.00000000000E+00 -0.00000000000E+00 -0.57510804777E+03  0.57510804777E+03  0.00000000000E+00 0. -1.
         23    2    1    2    0    0  0.12768536852E+03  0.19231485574E+03  0.11039981358E+03  0.27221596426E+03  0.92870098983E+02 0.  0.
        254    2    1    2    0    0 -0.12768536852E+03 -0.19231485574E+03 -0.57346883368E+02  0.93105306150E+03  0.90015697588E+03 0.  0.
        -24    2    4    4    0    0  0.13894060596E+03 -0.48342418895E+03  0.57549401368E+02  0.51259244158E+03  0.80222435275E+02 0.  0.
         24    2    4    4    0    0 -0.26662597448E+03  0.29110933321E+03 -0.11489628474E+03  0.41846061992E+03  0.77936384455E+02 0.  0.
         11    1    3    3    0    0  0.95508944414E+01  0.86853424858E+02  0.19162656607E+02  0.89453587979E+02  0.00000000000E+00 0. -1.
        -11    1    3    3    0    0  0.11813447408E+03  0.10546143088E+03  0.91237156977E+02  0.18276237628E+03  0.00000000000E+00 0.  1.
          2    1    6    6  502    0 -0.22168177305E+03  0.25833991606E+03 -0.12360501633E+03  0.36216090456E+03  0.00000000000E+00 0. -1.
          1    1    5    5  503    0  0.81793466172E+02 -0.31150287191E+03  0.74700000586E+02  0.33061200887E+03  0.00000000000E+00 0. -1.
         -2    1    5    5    0  503  0.57147139789E+02 -0.17192131704E+03 -0.17150599218E+02  0.18198043272E+03  0.00000000000E+00 0.  1.
         -1    1    6    6    0  502 -0.44944201431E+02  0.32769417153E+02  0.87087315914E+01  0.56299715352E+02  0.00000000000E+00 0.  1.
<mgrwt>
<rscale>  0 0.12020989E+04</rscale>
<asrwt>0</asrwt>
<pdfrwt beam="1">  1        1 0.88478162E-01 0.12020989E+04</pdfrwt>
<pdfrwt beam="2">  1       -1 0.96640150E-01 0.12020989E+04</pdfrwt>
<totfact> 0.37132350E+01</totfact>
</mgrwt>
</event>
<event>
12    1  0.1980523E-007  0.2886110E+04  0.7818608E-02  0.8277022E-01
         -2   -1    0    0    0  501 -0.00000000000E+00  0.00000000000E+00  0.83724918030E+03  0.83724918030E+03  0.00000000000E+00 0.  1.
          2   -1    0    0  501    0  0.00000000000E+00 -0.00000000000E+00 -0.24872015458E+04  0.24872015458E+04  0.00000000000E+00 0. -1.
         23    2    1    2    0    0  0.12110703790E+04  0.17202360912E+03 -0.12542232849E+04  0.17544005528E+04  0.92529272660E+02 0.  0.
        254    2    1    2    0    0 -0.12110703790E+04 -0.17202360912E+03 -0.39572908058E+03  0.15700501733E+04  0.90120611209E+03 0.  0.
        -24    2    4    4    0    0 -0.11265962606E+04  0.32557765767E+02 -0.58101537801E+03  0.12705291679E+04  0.79914669811E+02 0.  0.
         24    2    4    4    0    0 -0.84474118357E+02 -0.20458137489E+03  0.18528629743E+03  0.29952100538E+03  0.79952517325E+02 0.  0.
         13    1    3    3    0    0  0.10440063258E+04  0.17739199695E+03 -0.11016501715E+04  0.15280871144E+04  0.00000000000E+00 0.  1.
        -13    1    3    3    0    0  0.16706405319E+03 -0.53683878342E+01 -0.15257311341E+03  0.22631343838E+03  0.00000000000E+00 0. -1.
          4    1    6    6  502    0 -0.34841243351E+02 -0.70948411011E+02  0.11765179807E+03  0.14173755625E+03  0.00000000000E+00 0. -1.
          3    1    5    5  503    0 -0.10203232844E+04  0.26797320429E+02 -0.55121527470E+03  0.11600068880E+04  0.00000000000E+00 0. -1.
         -4    1    5    5    0  503 -0.10627297618E+03  0.57604453378E+01 -0.29800103309E+02  0.11052227990E+03  0.00000000000E+00 0.  1.
         -3    1    6    6    0  502 -0.49632875006E+02 -0.13363296387E+03  0.67634499359E+02  0.15778344913E+03  0.00000000000E+00 0.  1.
<mgrwt>
<rscale>  0 0.28861098E+04</rscale>
<asrwt>0</asrwt>
<pdfrwt beam="1">  1        2 0.38264639E+00 0.28861098E+04</pdfrwt>
<pdfrwt beam="2">  1       -2 0.12880757E+00 0.28861098E+04</pdfrwt>
<totfact> 0.13598920E+00</totfact>
</mgrwt>
</event>
<event>
12    1  0.1980523E-007  0.2769151E+04  0.7818608E-02  0.8312910E-01
         -2   -1    0    0    0  501 -0.00000000000E+00  0.00000000000E+00  0.22891555945E+04  0.22891555945E+04  0.00000000000E+00 0.  1.
          2   -1    0    0  501    0  0.00000000000E+00 -0.00000000000E+00 -0.83744838016E+03  0.83744838016E+03  0.00000000000E+00 0. -1.
         23    2    1    2    0    0  0.11246618791E+03 -0.95655448982E+03 -0.22583920133E+03  0.99341987925E+03  0.90744565762E+02 0.  0.
        254    2    1    2    0    0 -0.11246618791E+03  0.95655448982E+03  0.16775464156E+04  0.21331840954E+04  0.89925929115E+03 0.  0.
        -24    2    4    4    0    0  0.20143477455E+03  0.60737436054E+03  0.37445910023E+03  0.74581943469E+03  0.80916186174E+02 0.  0.
         24    2    4    4    0    0 -0.31390096246E+03  0.34918012928E+03  0.13030873154E+04  0.13873646607E+04  0.79268992676E+02 0.  0.
         13    1    3    3    0    0  0.67089941238E+02 -0.67781776422E+03 -0.11881973900E+03  0.69141601955E+03  0.00000000000E+00 0.  1.
        -13    1    3    3    0    0  0.45376246668E+02 -0.27873672560E+03 -0.10701946233E+03  0.30200385971E+03  0.00000000000E+00 0. -1.
          4    1    6    6  502    0 -0.23741497884E+03  0.30601298946E+03  0.10960359244E+04  0.11624562656E+04  0.00000000000E+00 0. -1.
          1    1    5    5  503    0  0.19272239234E+03  0.47879734910E+03  0.30017245401E+03  0.59706978165E+03  0.00000000000E+00 0. -1.
         -2    1    5    5    0  503  0.87123822154E+01  0.12857701144E+03  0.74286646213E+02  0.14874965304E+03  0.00000000000E+00 0.  1.
         -3    1    6    6    0  502 -0.76485983624E+02  0.43167139826E+02  0.20705139106E+03  0.22490839511E+03  0.00000000000E+00 0.  1.
<mgrwt>
<rscale>  0 0.27691512E+04</rscale>
<asrwt>0</asrwt>
<pdfrwt beam="1">  1        2 0.12883821E+00 0.27691512E+04</pdfrwt>
<pdfrwt beam="2">  1       -2 0.35217778E+00 0.27691512E+04</pdfrwt>
<totfact> 0.42589041E-01</totfact>
</mgrwt>
</event>
<event>
12    1  0.1980523E-007  0.1993957E+04  0.7818608E-02  0.8609451E-01
         -2   -1    0    0    0  501 -0.00000000000E+00  0.00000000000E+00  0.33642519988E+03  0.33642519988E+03  0.00000000000E+00 0.  1.
          2   -1    0    0  501    0  0.00000000000E+00 -0.00000000000E+00 -0.29544923966E+04  0.29544923966E+04  0.00000000000E+00 0. -1.
         23    2    1    2    0    0  0.91384775629E+02 -0.76760879259E+03 -0.79179869465E+03  0.11130557661E+04  0.11988965708E+03 0.  0.
        254    2    1    2    0    0 -0.91384775629E+02  0.76760879259E+03 -0.18262685020E+04  0.21778618304E+04  0.90013947529E+03 0.  0.
        -24    2    4    4    0    0  0.26973144422E+03  0.76645962312E+03 -0.12817585289E+04  0.15196508939E+04  0.78857511384E+02 0.  0.
         24    2    4    4    0    0 -0.36111621985E+03  0.11491694658E+01 -0.54450997313E+03  0.65821093644E+03  0.79650996195E+02 0.  0.
         13    1    3    3    0    0  0.77898174750E+02 -0.27862974667E+03 -0.24233332737E+03  0.37739647973E+03  0.00000000000E+00 0.  1.
        -13    1    3    3    0    0  0.13486600879E+02 -0.48897904592E+03 -0.54946536728E+03  0.73565928635E+03  0.00000000000E+00 0. -1.
          4    1    6    6  502    0 -0.68244479219E+02  0.19829466852E+02 -0.66641927455E+02  0.97425167152E+02  0.00000000000E+00 0. -1.
          3    1    5    5  503    0  0.15081760130E+03  0.46168952011E+03 -0.83384125833E+03  0.96498414803E+03  0.00000000000E+00 0. -1.
         -4    1    5    5    0  503  0.11891384292E+03  0.30477010301E+03 -0.44791727057E+03  0.55466674590E+03  0.00000000000E+00 0.  1.
         -3    1    6    6    0  502 -0.29287174063E+03 -0.18680297386E+02 -0.47786804567E+03  0.56078576929E+03  0.00000000000E+00 0.  1.
<mgrwt>
<rscale>  0 0.19939566E+04</rscale>
<asrwt>0</asrwt>
<pdfrwt beam="1">  1        2 0.45453729E+00 0.19939566E+04</pdfrwt>
<pdfrwt beam="2">  1       -2 0.51757723E-01 0.19939566E+04</pdfrwt>
<totfact> 0.61051933E+00</totfact>
</mgrwt>
</event>
<event>
12    1  0.1980523E-007  0.1764064E+04  0.7818608E-02  0.8725647E-01
          1   -1    0    0  501    0  0.00000000000E+00  0.00000000000E+00  0.61566703677E+03  0.61566703677E+03  0.00000000000E+00 0. -1.
         -1   -1    0    0    0  501 -0.00000000000E+00 -0.00000000000E+00 -0.12636381542E+04  0.12636381542E+04  0.00000000000E+00 0.  1.
         23    2    1    2    0    0  0.12709487880E+03 -0.57327795383E+03 -0.53446492054E+03  0.79866022997E+03  0.86050514732E+02 0.  0.
        254    2    1    2    0    0 -0.12709487880E+03  0.57327795383E+03 -0.11350619684E+03  0.10806449610E+04  0.90006063926E+03 0.  0.
        -24    2    4    4    0    0 -0.25987032360E+03  0.18374865752E+03 -0.44092520078E+03  0.54926219190E+03  0.77316030251E+02 0.  0.
         24    2    4    4    0    0  0.13277544480E+03  0.38952929631E+03  0.32741900394E+03  0.53138276906E+03  0.76171199855E+02 0.  0.
         11    1    3    3    0    0  0.67674876057E+02 -0.25900222787E+03 -0.18790487745E+03  0.32706312213E+03  0.00000000000E+00 0. -1.
        -11    1    3    3    0    0  0.59420002743E+02 -0.31427572596E+03 -0.34656004309E+03  0.47159710784E+03  0.00000000000E+00 0.  1.
          2    1    6    6  502    0  0.11301943866E+03  0.37150673675E+03  0.28678296535E+03  0.48273711084E+03  0.00000000000E+00 0. -1.
          1    1    5    5  503    0 -0.53419111620E+02  0.11482926652E+02 -0.45628706567E+02  0.71185939299E+02  0.00000000000E+00 0. -1.
         -2    1    5    5    0  503 -0.20645121198E+03  0.17226573087E+03 -0.39529649422E+03  0.47807625260E+03  0.00000000000E+00 0.  1.
         -1    1    6    6    0  502  0.19756006133E+02  0.18022559559E+02  0.40636038587E+02  0.48645658218E+02  0.00000000000E+00 0.  1.
<mgrwt>
<rscale>  0 0.17640639E+04</rscale>
<asrwt>0</asrwt>
<pdfrwt beam="1">  1        1 0.94718007E-01 0.17640639E+04</pdfrwt>
<pdfrwt beam="2">  1       -1 0.19440587E+00 0.17640639E+04</pdfrwt>
<totfact> 0.51379254E+00</totfact>
</mgrwt>
</event>
<event>
12    1  0.1980523E-007  0.3405350E+04  0.7818608E-02  0.8136594E-01
          1   -1    0    0  501    0  0.00000000000E+00  0.00000000000E+00  0.26213359950E+04  0.26213359950E+04  0.00000000000E+00 0. -1.
         -1   -1    0    0    0  501 -0.00000000000E+00 -0.00000000000E+00 -0.11059638229E+04  0.11059638229E+04  0.00000000000E+00 0.  1.
         23    2    1    2    0    0  0.17723056595E+02 -0.15285210657E+04  0.26577381609E+03  0.15541630986E+04  0.89980335003E+02 0.  0.
        254    2    1    2    0    0 -0.17723056595E+02  0.15285210657E+04  0.12495983560E+04  0.21731367193E+04  0.90792972989E+03 0.  0.
        -24    2    4    4    0    0  0.40384520738E+03  0.49163516524E+03  0.58945478164E+03  0.87125310075E+03  0.82637393123E+02 0.  0.
         24    2    4    4    0    0 -0.42156826397E+03  0.10368859004E+04  0.66014357441E+03  0.13018836186E+04  0.79115395075E+02 0.  0.
         11    1    3    3    0    0 -0.46924512127E+01 -0.18591358099E+03  0.61754897975E+02  0.19595802132E+03  0.00000000000E+00 0. -1.
        -11    1    3    3    0    0  0.22415507808E+02 -0.13426074847E+04  0.20401891811E+03  0.13582050772E+04  0.00000000000E+00 0.  1.
          2    1    6    6  502    0 -0.10133279981E+03  0.16979173561E+03  0.11265275007E+03  0.22757023508E+03  0.00000000000E+00 0. -1.
          3    1    5    5  503    0  0.14300632481E+03  0.20272128853E+03  0.18146224564E+03  0.30736830733E+03  0.00000000000E+00 0. -1.
         -2    1    5    5    0  503  0.26083888257E+03  0.28891387671E+03  0.40799253600E+03  0.56388479342E+03  0.00000000000E+00 0.  1.
         -1    1    6    6    0  502 -0.32023546416E+03  0.86709416483E+03  0.54749082433E+03  0.10743133835E+04  0.00000000000E+00 0.  1.
<mgrwt>
<rscale>  0 0.34053504E+04</rscale>
<asrwt>0</asrwt>
<pdfrwt beam="1">  1        1 0.40328246E+00 0.34053504E+04</pdfrwt>
<pdfrwt beam="2">  1       -1 0.17014828E+00 0.34053504E+04</pdfrwt>
<totfact> 0.22493347E-01</totfact>
</mgrwt>
</event>
<event>
12    1  0.1980523E-007  0.2969449E+04  0.7818608E-02  0.8252509E-01
          1   -1    0    0  501    0  0.00000000000E+00  0.00000000000E+00  0.19139995183E+04  0.19139995183E+04  0.00000000000E+00 0. -1.
         -1   -1    0    0    0  501 -0.00000000000E+00 -0.00000000000E+00 -0.11517281207E+04  0.11517281207E+04  0.00000000000E+00 0.  1.
         23    2    1    2    0    0 -0.11968768283E+04  0.23966150889E+03  0.93367661320E+03  0.15396119559E+04  0.93280092975E+02 0.  0.
        254    2    1    2    0    0  0.11968768283E+04 -0.23966150889E+03 -0.17140521557E+03  0.15261156831E+04  0.89983195609E+03 0.  0.
        -24    2    4    4    0    0  0.10750455702E+04  0.70159050463E+02 -0.35616180758E+03  0.11374321206E+04  0.79090616164E+02 0.  0.
         24    2    4    4    0    0  0.12183125814E+03 -0.30982055936E+03  0.18475659201E+03  0.38868356244E+03  0.78155479383E+02 0.  0.
         11    1    3    3    0    0 -0.69966332895E+02 -0.49287828309E+01  0.40337060863E+02  0.80911427611E+02  0.00000000000E+00 0.  1.
        -11    1    3    3    0    0 -0.11269104954E+04  0.24459029173E+03  0.89333955234E+03  0.14587005283E+04  0.00000000000E+00 0. -1.
          4    1    6    6  502    0  0.85514000101E+02 -0.11258619224E+03  0.79123513644E+02  0.16201489224E+03  0.00000000000E+00 0. -1.
          3    1    5    5  503    0  0.10991727343E+03  0.12697298260E+02 -0.62003995216E+02  0.12683660277E+03  0.00000000000E+00 0. -1.
         -4    1    5    5    0  503  0.96512829673E+03  0.57461752204E+02 -0.29415781237E+03  0.10105955178E+04  0.00000000000E+00 0.  1.
         -3    1    6    6    0  502  0.36317258035E+02 -0.19723436712E+03  0.10563307837E+03  0.22666867020E+03  0.00000000000E+00 0.  1.
<mgrwt>
<rscale>  0 0.29694492E+04</rscale>
<asrwt>0</asrwt>
<pdfrwt beam="1">  1        1 0.29446146E+00 0.29694492E+04</pdfrwt>
<pdfrwt beam="2">  1       -1 0.17718894E+00 0.29694492E+04</pdfrwt>
<totfact> 0.63425119E-01</totfact>
</mgrwt>
</event>
<event>
12    1  0.1980523E-007  0.1257841E+04  0.7818608E-02  0.9063683E-01
         -1   -1    0    0    0  501 -0.00000000000E+00  0.00000000000E+00  0.15497013132E+03  0.15497013132E+03  0.00000000000E+00 0.  1.
          1   -1    0    0  501    0  0.00000000000E+00 -0.00000000000E+00 -0.25523684346E+04  0.25523684346E+04  0.00000000000E+00 0. -1.
         23    2    1    2    0    0  0.26785185907E+03  0.10499455758E+03 -0.75843150859E+03  0.81615231163E+03  0.90098651654E+02 0.  0.
        254    2    1    2    0    0 -0.26785185907E+03 -0.10499455758E+03 -0.16389667947E+04  0.18911862543E+04  0.89866835861E+03 0.  0.
        -24    2    4    4    0    0  0.16263092808E+03 -0.37863410601E+03 -0.61391562423E+03  0.74358430783E+03  0.78820201530E+02 0.  0.
         24    2    4    4    0    0 -0.43048278714E+03  0.27363954843E+03 -0.10250511704E+04  0.11476019464E+04  0.77886410687E+02 0.  0.
         11    1    3    3    0    0  0.14234250437E+03  0.83216855615E+01 -0.33673092798E+03  0.36567520679E+03  0.00000000000E+00 0.  1.
        -11    1    3    3    0    0  0.12550935470E+03  0.96672872015E+02 -0.42170058061E+03  0.45047710484E+03  0.00000000000E+00 0. -1.
          2    1    6    6  502    0 -0.11299622506E+03  0.80406484788E+02 -0.20807537788E+03  0.25005741852E+03  0.00000000000E+00 0. -1.
          3    1    5    5  503    0 -0.83187875866E+01 -0.31358370961E+02 -0.44808999073E+02  0.55320846470E+02  0.00000000000E+00 0. -1.
         -4    1    5    5    0  503  0.17094971566E+03 -0.34727573505E+03 -0.56910662516E+03  0.68826346136E+03  0.00000000000E+00 0.  1.
         -1    1    6    6    0  502 -0.31748656208E+03  0.19323306364E+03 -0.81697579256E+03  0.89754452793E+03  0.00000000000E+00 0.  1.
<mgrwt>
<rscale>  0 0.12578408E+04</rscale>
<asrwt>0</asrwt>
<pdfrwt beam="1">  1        1 0.39267204E+00 0.12578408E+04</pdfrwt>
<pdfrwt beam="2">  1       -1 0.23841560E-01 0.12578408E+04</pdfrwt>
<totfact> 0.18762287E+01</totfact>
</mgrwt>
</event>
<event>
12    1  0.1980523E-007  0.1940200E+04  0.7818608E-02  0.8635101E-01
          2   -1    0    0  501    0  0.00000000000E+00  0.00000000000E+00  0.54455943311E+03  0.54455943311E+03  0.00000000000E+00 0.  1.
         -2   -1    0    0    0  501 -0.00000000000E+00 -0.00000000000E+00 -0.17281749213E+04  0.17281749213E+04  0.00000000000E+00 0. -1.
         23    2    1    2    0    0 -0.72486796416E+03  0.17006612721E+03 -0.32184112231E+03  0.81615384921E+03  0.90384426115E+02 0.  0.
        254    2    1    2    0    0  0.72486796416E+03 -0.17006612721E+03 -0.86177436584E+03  0.14565805052E+04  0.90808350788E+03 0.  0.
        -24    2    4    4    0    0  0.58247197077E+03  0.20054498071E+03 -0.15222603254E+03  0.63968222492E+03  0.80800358097E+02 0.  0.
         24    2    4    4    0    0  0.14239599338E+03 -0.37061110792E+03 -0.70954833330E+03  0.81689828023E+03  0.78960437691E+02 0.  0.
         11    1    3    3    0    0 -0.38761583233E+03  0.68695264791E+02 -0.21285042025E+03  0.44751578104E+03  0.00000000000E+00 0. -1.
        -11    1    3    3    0    0 -0.33725213183E+03  0.10137086242E+03 -0.10899070206E+03  0.36863806817E+03  0.00000000000E+00 0.  1.
          2    1    6    6  502    0  0.14267487541E+03 -0.36648008227E+03 -0.71099435165E+03  0.81251260843E+03  0.00000000000E+00 0. -1.
          3    1    5    5  503    0  0.57672620385E+03  0.20366523201E+03 -0.15714990848E+03  0.63149721668E+03  0.00000000000E+00 0. -1.
         -4    1    5    5    0  503  0.57457669220E+01 -0.31202512951E+01  0.49238759366E+01  0.81850082410E+01  0.00000000000E+00 0.  1.
         -1    1    6    6    0  502 -0.27888202828E+00 -0.41310256528E+01  0.14460183539E+01  0.43856718082E+01  0.00000000000E+00 0.  1.
<mgrwt>
<rscale>  0 0.19401999E+04</rscale>
<asrwt>0</asrwt>
<pdfrwt beam="1">  1        2 0.83778375E-01 0.19401999E+04</pdfrwt>
<pdfrwt beam="2">  1       -2 0.26587306E+00 0.19401999E+04</pdfrwt>
<totfact> 0.26716731E+00</totfact>
</mgrwt>
</event>
<event>
12    1  0.1980523E-007  0.2764550E+04  0.7818608E-02  0.8314359E-01
          2   -1    0    0  501    0  0.00000000000E+00  0.00000000000E+00  0.50635057926E+04  0.50635057926E+04  0.00000000000E+00 0. -1.
         -2   -1    0    0    0  501 -0.00000000000E+00 -0.00000000000E+00 -0.37734412524E+03  0.37734412524E+03  0.00000000000E+00 0.  1.
         23    2    1    2    0    0 -0.19466856163E+03 -0.11981908650E+04  0.15976851246E+04  0.20086254494E+04  0.91767318145E+02 0.  0.
        254    2    1    2    0    0  0.19466856163E+03  0.11981908650E+04  0.30884765427E+04  0.34322244684E+04  0.87631058932E+03 0.  0.
        -24    2    4    4    0    0 -0.75393938746E+02  0.10463233230E+03  0.13549844216E+04  0.13634071652E+04  0.79146348366E+02 0.  0.
         24    2    4    4    0    0  0.27006250038E+03  0.10935585327E+04  0.17334921212E+04  0.20688173032E+04  0.78778687118E+02 0.  0.
         11    1    3    3    0    0 -0.46071901409E+02 -0.49326307475E+03  0.70094107436E+03  0.85834111561E+03  0.00000000000E+00 0. -1.
        -11    1    3    3    0    0 -0.14859666022E+03 -0.70492779024E+03  0.89674405029E+03  0.11502843338E+04  0.00000000000E+00 0.  1.
          2    1    6    6  502    0  0.24087843560E+03  0.10022830377E+04  0.16215288901E+04  0.19214446778E+04  0.00000000000E+00 0. -1.
          1    1    5    5  503    0 -0.62265040696E+02  0.30304609539E+02  0.84961580035E+03  0.85243317208E+03  0.00000000000E+00 0. -1.
         -2    1    5    5    0  503 -0.13128898050E+02  0.74327722761E+02  0.50536862121E+03  0.51097399311E+03  0.00000000000E+00 0.  1.
         -1    1    6    6    0  502  0.29184064775E+02  0.91275494956E+02  0.11196323104E+03  0.14737262542E+03  0.00000000000E+00 0.  1.
<mgrwt>
<rscale>  0 0.27645500E+04</rscale>
<asrwt>0</asrwt>
<pdfrwt beam="1">  1        2 0.77900084E+00 0.27645500E+04</pdfrwt>
<pdfrwt beam="2">  1       -2 0.58052946E-01 0.27645500E+04</pdfrwt>
<totfact> 0.69165167E-02</totfact>
</mgrwt>
</event>
<event>
12    1  0.1980523E-007  0.3368432E+04  0.7818608E-02  0.8145698E-01
         -2   -1    0    0    0  501 -0.00000000000E+00  0.00000000000E+00  0.10182791637E+04  0.10182791637E+04  0.00000000000E+00 0.  1.
          2   -1    0    0  501    0  0.00000000000E+00 -0.00000000000E+00 -0.27856638369E+04  0.27856638369E+04  0.00000000000E+00 0. -1.
         23    2    1    2    0    0 -0.36240619783E+02  0.14267408189E+04 -0.15402595498E+04  0.21017753963E+04  0.90319372847E+02 0.  0.
        254    2    1    2    0    0  0.36240619783E+02 -0.14267408189E+04 -0.22712512338E+03  0.17021676042E+04  0.89938088954E+03 0.  0.
        -24    2    4    4    0    0 -0.42223120902E+01 -0.62664796829E+03 -0.54739417982E+03  0.83568055939E+03  0.77563555564E+02 0.  0.
         24    2    4    4    0    0  0.40462931873E+02 -0.80009285058E+03  0.32026905644E+03  0.86648704485E+03  0.80260276382E+02 0.  0.
         13    1    3    3    0    0 -0.55216478081E+02  0.55339884274E+03 -0.57621140846E+03  0.80082377951E+03  0.00000000000E+00 0.  1.
        -13    1    3    3    0    0  0.18975858298E+02  0.87334197613E+03 -0.96404814135E+03  0.13009516168E+04  0.00000000000E+00 0. -1.
          2    1    6    6  502    0 -0.19147154213E+02 -0.75168453809E+02  0.25425613759E+02  0.81629478729E+02  0.00000000000E+00 0. -1.
          1    1    5    5  503    0 -0.16987457821E+02 -0.38084492431E+02 -0.25012129962E+02  0.48627244752E+02  0.00000000000E+00 0. -1.
         -2    1    5    5    0  503  0.12765145730E+02 -0.58856347586E+03 -0.52238204986E+03  0.78705331463E+03  0.00000000000E+00 0.  1.
         -1    1    6    6    0  502  0.59610086086E+02 -0.72492439677E+03  0.29484344268E+03  0.78485756612E+03  0.00000000000E+00 0.  1.
<mgrwt>
<rscale>  0 0.33684319E+04</rscale>
<asrwt>0</asrwt>
<pdfrwt beam="1">  1        2 0.42856367E+00 0.33684319E+04</pdfrwt>
<pdfrwt beam="2">  1       -2 0.15665833E+00 0.33684319E+04</pdfrwt>
<totfact> 0.52242909E-01</totfact>
</mgrwt>
</event>
<event>
12    1  0.1980523E-007  0.2532077E+04  0.7818608E-02  0.8391646E-01
          1   -1    0    0  501    0  0.00000000000E+00  0.00000000000E+00  0.11447208916E+04  0.11447208916E+04  0.00000000000E+00 0. -1.
         -1   -1    0    0    0  501 -0.00000000000E+00 -0.00000000000E+00 -0.14002130777E+04  0.14002130777E+04  0.00000000000E+00 0.  1.
         23    2    1    2    0    0 -0.19897421368E+02  0.10365366071E+04  0.27124543007E+03  0.10754661251E+04  0.90825423635E+02 0.  0.
        254    2    1    2    0    0  0.19897421368E+02 -0.10365366071E+04 -0.52673761621E+03  0.14694678443E+04  0.89837585881E+03 0.  0.
        -24    2    4    4    0    0 -0.62881894741E+01  0.14141717557E+03  0.26600257626E+02  0.16494220209E+03  0.80374109340E+02 0.  0.
         24    2    4    4    0    0  0.26185610842E+02 -0.11779537827E+04 -0.55333787384E+03  0.13045256422E+04  0.85694504383E+02 0.  0.
         13    1    3    3    0    0 -0.14220466297E+02  0.10111238036E+04  0.27765529655E+03  0.10486496229E+04  0.00000000000E+00 0. -1.
        -13    1    3    3    0    0 -0.56769550704E+01  0.25412803532E+02 -0.64098664840E+01  0.26816502206E+02  0.00000000000E+00 0.  1.
          4    1    6    6  502    0  0.45400496004E+02 -0.10863382154E+04 -0.51915378890E+03  0.12048703581E+04  0.00000000000E+00 0. -1.
          3    1    5    5  503    0  0.17073694208E+02  0.13749598219E+03  0.17886796819E+02  0.13970180261E+03  0.00000000000E+00 0. -1.
         -4    1    5    5    0  503 -0.23361883683E+02  0.39211933793E+01  0.87134608073E+01  0.25240399481E+02  0.00000000000E+00 0.  1.
         -3    1    6    6    0  502 -0.19214885163E+02 -0.91615567251E+02 -0.34184084939E+02  0.99655284043E+02  0.00000000000E+00 0.  1.
<mgrwt>
<rscale>  0 0.25320767E+04</rscale>
<asrwt>0</asrwt>
<pdfrwt beam="1">  1        1 0.17611091E+00 0.25320767E+04</pdfrwt>
<pdfrwt beam="2">  1       -1 0.21541740E+00 0.25320767E+04</pdfrwt>
<totfact> 0.12285844E+00</totfact>
</mgrwt>
</event>
<event>
12    1  0.1980523E-007  0.1670323E+04  0.7818608E-02  0.8778474E-01
         -2   -1    0    0    0  501 -0.00000000000E+00  0.00000000000E+00  0.48183535359E+03  0.48183535359E+03  0.00000000000E+00 0.  1.
          2   -1    0    0  501    0  0.00000000000E+00 -0.00000000000E+00 -0.14475784148E+04  0.14475784148E+04  0.00000000000E+00 0. -1.
         23    2    1    2    0    0  0.58725869714E+03 -0.94627988709E+01 -0.41473021594E+03  0.72502122542E+03  0.93232523088E+02 0.  0.
        254    2    1    2    0    0 -0.58725869714E+03  0.94627988709E+01 -0.55101284522E+03  0.12043925429E+04  0.89553554924E+03 0.  0.
        -24    2    4    4    0    0 -0.61404879779E+03  0.16730601370E+03 -0.17146600984E+02  0.64171675619E+03  0.80368905476E+02 0.  0.
         24    2    4    4    0    0  0.26790100651E+02 -0.15784321483E+03 -0.53386624423E+03  0.56267578674E+03  0.77192514468E+02 0.  0.
         11    1    3    3    0    0  0.89153885722E+02  0.89244449289E+01 -0.27151569276E+02  0.93623014108E+02  0.00000000000E+00 0.  1.
        -11    1    3    3    0    0  0.49810481142E+03 -0.18387243800E+02 -0.38757864667E+03  0.63139821131E+03  0.00000000000E+00 0. -1.
          4    1    6    6  502    0  0.93099911444E+00 -0.48494254495E+02 -0.29177127363E+03  0.29577531268E+03  0.00000000000E+00 0. -1.
          3    1    5    5  503    0 -0.10688366522E+03  0.25764317553E+02  0.27344844285E+02  0.11329456500E+03  0.00000000000E+00 0. -1.
         -4    1    5    5    0  503 -0.50716513257E+03  0.14154169615E+03 -0.44491445269E+02  0.52842219120E+03  0.00000000000E+00 0.  1.
         -3    1    6    6    0  502  0.25859101536E+02 -0.10934896034E+03 -0.24209497061E+03  0.26690047406E+03  0.00000000000E+00 0.  1.
<mgrwt>
<rscale>  0 0.16703227E+04</rscale>
<asrwt>0</asrwt>
<pdfrwt beam="1">  1        2 0.22270437E+00 0.16703227E+04</pdfrwt>
<pdfrwt beam="2">  1       -2 0.74128516E-01 0.16703227E+04</pdfrwt>
<totfact> 0.21244699E+01</totfact>
</mgrwt>
</event>
<event>
12    1  0.1980523E-007  0.2147163E+04  0.7818608E-02  0.8540748E-01
         -2   -1    0    0    0  501 -0.00000000000E+00  0.00000000000E+00  0.16477676149E+04  0.16477676149E+04  0.00000000000E+00 0. -1.
          2   -1    0    0  501    0  0.00000000000E+00 -0.00000000000E+00 -0.69947791154E+03  0.69947791154E+03  0.00000000000E+00 0.  1.
         23    2    1    2    0    0 -0.65915651768E+03  0.41179350086E+03  0.85362272867E+03  0.11580750678E+04  0.91678228084E+02 0.  0.
        254    2    1    2    0    0  0.65915651768E+03 -0.41179350086E+03  0.94666974650E+02  0.11891704586E+04  0.89504376512E+03 0.  0.
        -24    2    4    4    0    0 -0.41311349906E+00 -0.15765165204E+03 -0.32058605839E+03  0.36553771848E+03  0.77383388010E+02 0.  0.
         24    2    4    4    0    0  0.65956963118E+03 -0.25414184881E+03  0.41525303304E+03  0.82363274017E+03  0.79470947743E+02 0.  0.
         13    1    3    3    0    0 -0.49518660412E+03  0.26645518666E+03  0.58529319794E+03  0.81165033540E+03  0.00000000000E+00 0.  1.
        -13    1    3    3    0    0 -0.16396991356E+03  0.14533831420E+03  0.26832953073E+03  0.34642473236E+03  0.00000000000E+00 0. -1.
          4    1    6    6  502    0  0.50524040805E+03 -0.15806687330E+03  0.31543720489E+03  0.61624154079E+03  0.00000000000E+00 0. -1.
          3    1    5    5  503    0 -0.10148897116E+02 -0.21354605361E+02 -0.89865868255E+01  0.25293833746E+02  0.00000000000E+00 0. -1.
         -4    1    5    5    0  503  0.97357836173E+01 -0.13629704668E+03 -0.31159947157E+03  0.34024388473E+03  0.00000000000E+00 0.  1.
         -3    1    6    6    0  502  0.15432922313E+03 -0.96074975516E+02  0.99815828153E+02  0.20739119938E+03  0.00000000000E+00 0.  1.
<mgrwt>
<rscale>  0 0.21471628E+04</rscale>
<asrwt>0</asrwt>
<pdfrwt beam="1">  1        2 0.10761199E+00 0.21471628E+04</pdfrwt>
<pdfrwt beam="2">  1       -2 0.25350271E+00 0.21471628E+04</pdfrwt>
<totfact> 0.23019701E+00</totfact>
</mgrwt>
</event>
<event>
12    1  0.1980523E-007  0.1824077E+04  0.7818608E-02  0.8693600E-01
          2   -1    0    0  501    0  0.00000000000E+00  0.00000000000E+00  0.75960653553E+03  0.75960653553E+03  0.00000000000E+00 0. -1.
         -2   -1    0    0    0  501 -0.00000000000E+00 -0.00000000000E+00 -0.10950590374E+04  0.10950590374E+04  0.00000000000E+00 0.  1.
         23    2    1    2    0    0  0.25500159285E+03 -0.63517044609E+03 -0.74559578899E+02  0.69461993710E+03  0.92034875284E+02 0.  0.
        254    2    1    2    0    0 -0.25500159285E+03  0.63517044609E+03 -0.26089292299E+03  0.11600456358E+04  0.89954068948E+03 0.  0.
        -24    2    4    4    0    0 -0.43815394531E+03 -0.10833081278E+02 -0.33182860758E+02  0.44649679744E+03  0.78498741663E+02 0.  0.
         24    2    4    4    0    0  0.18315235245E+03  0.64600352737E+03 -0.22771006223E+03  0.71354883840E+03  0.80216773507E+02 0.  0.
         11    1    3    3    0    0  0.16298844780E+03 -0.30021312380E+03 -0.60871039575E+02  0.34698477961E+03  0.00000000000E+00 0.  1.
        -11    1    3    3    0    0  0.92013145049E+02 -0.33495732229E+03 -0.13688539324E+02  0.34763515750E+03  0.00000000000E+00 0. -1.
          4    1    6    6  502    0  0.16017730796E+03  0.61001150789E+03 -0.22859410233E+03  0.67083982691E+03  0.00000000000E+00 0. -1.
          3    1    5    5  503    0 -0.34948963793E+03 -0.35208096453E+02 -0.43602622224E+02  0.35395452496E+03  0.00000000000E+00 0. -1.
         -4    1    5    5    0  503 -0.88664307380E+02  0.24375015174E+02  0.10419761465E+02  0.92542272486E+02  0.00000000000E+00 0.  1.
         -3    1    6    6    0  502  0.22975044491E+02  0.35992019478E+02  0.88404009508E+00  0.42709011489E+02  0.00000000000E+00 0.  1.
<mgrwt>
<rscale>  0 0.18240768E+04</rscale>
<asrwt>0</asrwt>
<pdfrwt beam="1">  1        2 0.11686254E+00 0.18240768E+04</pdfrwt>
<pdfrwt beam="2">  1       -2 0.16847062E+00 0.18240768E+04</pdfrwt>
<totfact> 0.75914294E+00</totfact>
</mgrwt>
</event>
<event>
12    1  0.1980523E-007  0.1098505E+04  0.7818608E-02  0.9206650E-01
          2   -1    0    0  501    0  0.00000000000E+00  0.00000000000E+00  0.26661921202E+04  0.26661921202E+04  0.00000000000E+00 0. -1.
         -2   -1    0    0    0  501 -0.00000000000E+00 -0.00000000000E+00 -0.11314955067E+03  0.11314955067E+03  0.00000000000E+00 0.  1.
         23    2    1    2    0    0 -0.91787753206E+02  0.10783840451E+03  0.61333823655E+03  0.63612437536E+03  0.91740478422E+02 0.  0.
        254    2    1    2    0    0  0.91787753206E+02 -0.10783840451E+03  0.19397043330E+04  0.21432172955E+04  0.90048507109E+03 0.  0.
        -24    2    4    4    0    0  0.29701780684E+00 -0.38558585886E+03  0.35764607755E+03  0.53232856007E+03  0.82379829424E+02 0.  0.
         24    2    4    4    0    0  0.91490735399E+02  0.27774745436E+03  0.15820582554E+04  0.16108887355E+04  0.80870212964E+02 0.  0.
         13    1    3    3    0    0 -0.62990194437E+02  0.73974989560E+01  0.26279453281E+03  0.27033951627E+03  0.00000000000E+00 0. -1.
        -13    1    3    3    0    0 -0.28797558769E+02  0.10044090555E+03  0.35054370375E+03  0.36578485909E+03  0.00000000000E+00 0.  1.
          4    1    6    6  502    0  0.74081452279E+02  0.16383292877E+03  0.77121374053E+03  0.79189640970E+03  0.00000000000E+00 0. -1.
          1    1    5    5  503    0 -0.31356096843E+01 -0.25452190806E+03  0.28619992172E+03  0.38301648649E+03  0.00000000000E+00 0. -1.
         -2    1    5    5    0  503  0.34326274912E+01 -0.13106395080E+03  0.71446155831E+02  0.14931207357E+03  0.00000000000E+00 0.  1.
         -3    1    6    6    0  502  0.17409283120E+02  0.11391452559E+03  0.81084451492E+03  0.81899232576E+03  0.00000000000E+00 0.  1.
<mgrwt>
<rscale>  0 0.10985052E+04</rscale>
<asrwt>0</asrwt>
<pdfrwt beam="1">  1        2 0.41018336E+00 0.10985052E+04</pdfrwt>
<pdfrwt beam="2">  1       -2 0.17407625E-01 0.10985052E+04</pdfrwt>
<totfact> 0.76077924E+01</totfact>
</mgrwt>
</event>
<event>
12    1  0.1980523E-007  0.1441868E+04  0.7818608E-02  0.8924058E-01
         -1   -1    0    0    0  501 -0.00000000000E+00  0.00000000000E+00  0.31802525141E+03  0.31802525141E+03  0.00000000000E+00 0.  1.
          1   -1    0    0  501    0  0.00000000000E+00 -0.00000000000E+00 -0.16342908035E+04  0.16342908035E+04  0.00000000000E+00 0. -1.
         23    2    1    2    0    0  0.21794991524E+03  0.37007451434E+03 -0.29388236570E+03  0.52806971867E+03  0.89629633430E+02 0.  0.
        254    2    1    2    0    0 -0.21794991524E+03 -0.37007451434E+03 -0.10223831863E+04  0.14242463362E+04  0.89372978843E+03 0.  0.
        -24    2    4    4    0    0 -0.26990201395E+02  0.26956017421E+02 -0.96907941874E+03  0.97316735101E+03  0.80527482262E+02 0.  0.
         24    2    4    4    0    0 -0.19095971384E+03 -0.39703053176E+03 -0.53303767606E+02  0.45107898518E+03  0.80821431395E+02 0.  0.
         11    1    3    3    0    0  0.18989420750E+03  0.34450156532E+03 -0.23564368570E+03  0.45855107148E+03  0.00000000000E+00 0.  1.
        -11    1    3    3    0    0  0.28055707740E+02  0.25572949023E+02 -0.58238680000E+02  0.69518647187E+02  0.00000000000E+00 0. -1.
          2    1    6    6  502    0 -0.66964717660E+02 -0.17863070864E+03 -0.59577859475E+02  0.19985676076E+03  0.00000000000E+00 0. -1.
          3    1    5    5  503    0 -0.45173630940E+02 -0.10436324810E+02 -0.43197834458E+03  0.43445927772E+03  0.00000000000E+00 0. -1.
         -4    1    5    5    0  503  0.18183429546E+02  0.37392342231E+02 -0.53710107416E+03  0.53870807329E+03  0.00000000000E+00 0.  1.
         -1    1    6    6    0  502 -0.12399499618E+03 -0.21839982312E+03  0.62740918698E+01  0.25122222443E+03  0.00000000000E+00 0.  1.
<mgrwt>
<rscale>  0 0.14418679E+04</rscale>
<asrwt>0</asrwt>
<pdfrwt beam="1">  1        1 0.25142936E+00 0.14418679E+04</pdfrwt>
<pdfrwt beam="2">  1       -1 0.48926961E-01 0.14418679E+04</pdfrwt>
<totfact> 0.21488916E+01</totfact>
</mgrwt>
</event>
<event>
12    1  0.1980523E-007  0.2203528E+04  0.7818608E-02  0.8516961E-01
         -2   -1    0    0    0  501 -0.00000000000E+00  0.00000000000E+00  0.36773179425E+03  0.36773179425E+03  0.00000000000E+00 0.  1.
          2   -1    0    0  501    0  0.00000000000E+00 -0.00000000000E+00 -0.33010029435E+04  0.33010029435E+04  0.00000000000E+00 0. -1.
         23    2    1    2    0    0  0.48383100323E+01 -0.70938178446E+03 -0.21903529180E+04  0.23041441508E+04  0.90489983405E+02 0.  0.
        254    2    1    2    0    0 -0.48383100323E+01  0.70938178446E+03 -0.74291823127E+03  0.13645905869E+04  0.89829507749E+03 0.  0.
        -24    2    4    4    0    0  0.41992115133E+03  0.22175077619E+03 -0.40834942046E+03  0.63171509506E+03  0.82507769707E+02 0.  0.
         24    2    4    4    0    0 -0.42475946136E+03  0.48763100827E+03 -0.33456881081E+03  0.73287549188E+03  0.83460153302E+02 0.  0.
         13    1    3    3    0    0  0.70929355850E+01 -0.55767397608E+03 -0.18314936802E+04  0.19145285774E+04  0.00000000000E+00 0. -1.
        -13    1    3    3    0    0 -0.22546255527E+01 -0.15170780838E+03 -0.35885923779E+03  0.38961557336E+03  0.00000000000E+00 0.  1.
          2    1    6    6  502    0 -0.22982036906E+03  0.27805001243E+03 -0.23164890163E+03  0.42870785516E+03  0.00000000000E+00 0. -1.
          1    1    5    5  503    0  0.31604118239E+03  0.16777078757E+03 -0.25782072513E+03  0.44102221309E+03  0.00000000000E+00 0. -1.
         -2    1    5    5    0  503  0.10387996894E+03  0.53979988614E+02 -0.15052869532E+03  0.19069288197E+03  0.00000000000E+00 0.  1.
         -1    1    6    6    0  502 -0.19493909229E+03  0.20958099584E+03 -0.10291990918E+03  0.30416763672E+03  0.00000000000E+00 0.  1.
<mgrwt>
<rscale>  0 0.22035278E+04</rscale>
<asrwt>0</asrwt>
<pdfrwt beam="1">  1        2 0.50784661E+00 0.22035278E+04</pdfrwt>
<pdfrwt beam="2">  1       -2 0.56574122E-01 0.22035278E+04</pdfrwt>
<totfact> 0.29859948E+00</totfact>
</mgrwt>
</event>
<event>
12    1  0.1980523E-007  0.1287623E+04  0.7818608E-02  0.9039438E-01
          3   -1    0    0  501    0  0.00000000000E+00  0.00000000000E+00  0.19465777898E+03  0.19465777898E+03  0.00000000000E+00 0. -1.
         -3   -1    0    0    0  501 -0.00000000000E+00 -0.00000000000E+00 -0.21293431850E+04  0.21293431850E+04  0.00000000000E+00 0.  1.
         23    2    1    2    0    0 -0.14651202102E+03 -0.21952979449E+03 -0.17562559460E+03  0.33073352365E+03  0.94240178347E+02 0.  0.
        254    2    1    2    0    0  0.14651202102E+03  0.21952979449E+03 -0.17590598114E+04  0.19932674403E+04  0.89953574998E+03 0.  0.
        -24    2    4    4    0    0 -0.28542706717E+03 -0.17094506816E+03 -0.77897889492E+03  0.85056353420E+03  0.77197020520E+02 0.  0.
         24    2    4    4    0    0  0.43193908820E+03  0.39047486265E+03 -0.98008091646E+03  0.11427039061E+04  0.78559658188E+02 0.  0.
         11    1    3    3    0    0 -0.20735845394E-01 -0.61225577648E+02 -0.18752071575E+02  0.64032897612E+02  0.00000000000E+00 0.  1.
        -11    1    3    3    0    0 -0.14649128518E+03 -0.15830421684E+03 -0.15687352302E+03  0.26670062604E+03  0.00000000000E+00 0. -1.
          2    1    6    6  502    0  0.30685399645E+03  0.23299581159E+03 -0.67727386195E+03  0.77919593649E+03  0.00000000000E+00 0. -1.
          3    1    5    5  503    0 -0.28148800221E+03 -0.17808364894E+03 -0.75425878006E+03  0.82453355827E+03  0.00000000000E+00 0. -1.
         -4    1    5    5    0  503 -0.39390649584E+01  0.71385807846E+01 -0.24720114853E+02  0.26029975926E+02  0.00000000000E+00 0.  1.
         -1    1    6    6    0  502  0.12508509175E+03  0.15747905105E+03 -0.30280705451E+03  0.36350796960E+03  0.00000000000E+00 0.  1.
<mgrwt>
<rscale>  0 0.12876229E+04</rscale>
<asrwt>0</asrwt>
<pdfrwt beam="1">  1        3 0.29947352E-01 0.12876229E+04</pdfrwt>
<pdfrwt beam="2">  1       -3 0.32759125E+00 0.12876229E+04</pdfrwt>
<totfact> 0.75369679E-01</totfact>
</mgrwt>
</event>
<event>
12    1  0.2365815E-007  0.3789280E+04  0.7818608E-02  0.8048459E-01
         -2   -1    0    0    0  501 -0.00000000000E+00  0.00000000000E+00  0.12454156616E+04  0.12454156616E+04  0.00000000000E+00 0.  1.
          2   -1    0    0  501    0  0.00000000000E+00 -0.00000000000E+00 -0.28822999442E+04  0.28822999442E+04  0.00000000000E+00 0. -1.
         23    2    1    2    0    0  0.15168614511E+04 -0.91019154459E+03 -0.10044605822E+04  0.20363620425E+04  0.92260486506E+02 0.  0.
        254    2    1    2    0    0 -0.15168614511E+04  0.91019154459E+03 -0.63242370044E+03  0.20913535633E+04  0.91895738752E+03 0.  0.
        -24    2    4    4    0    0 -0.12018858287E+04  0.99910369650E+03 -0.25372194196E+03  0.15854217711E+04  0.80309569105E+02 0.  0.
         24    2    4    4    0    0 -0.31497562236E+03 -0.88912151909E+02 -0.37870175847E+03  0.50593179214E+03  0.73735629018E+02 0.  0.
         13    1    3    3    0    0  0.96740144037E+03 -0.63122278031E+03 -0.66210154379E+03  0.13314226224E+04  0.00000000000E+00 0. -1.
        -13    1    3    3    0    0  0.54946001070E+03 -0.27896876429E+03 -0.34235903838E+03  0.70493942007E+03  0.00000000000E+00 0.  1.
          2    1    6    6  502    0 -0.12912558795E+03 -0.42847981778E+01 -0.11986033099E+03  0.17623358336E+03  0.00000000000E+00 0. -1.
          3    1    5    5  503    0 -0.70839528745E+02  0.43390441689E+02  0.51599015242E-01  0.83072088726E+02  0.00000000000E+00 0. -1.
         -4    1    5    5    0  503 -0.11310463000E+04  0.95571325481E+03 -0.25377354098E+03  0.15023496824E+04  0.00000000000E+00 0.  1.
         -1    1    6    6    0  502 -0.18585003441E+03 -0.84627353731E+02 -0.25884142748E+03  0.32969820878E+03  0.00000000000E+00 0.  1.
<mgrwt>
<rscale>  0 0.37892804E+04</rscale>
<asrwt>0</asrwt>
<pdfrwt beam="1">  1        2 0.44343076E+00 0.37892804E+04</pdfrwt>
<pdfrwt beam="2">  1       -2 0.19160241E+00 0.37892804E+04</pdfrwt>
<totfact> 0.24988004E-01</totfact>
</mgrwt>
</event>
<event>
12    1  0.1980523E-007  0.2260270E+04  0.7818608E-02  0.8493753E-01
          2   -1    0    0  501    0  0.00000000000E+00  0.00000000000E+00  0.19031222098E+04  0.19031222098E+04  0.00000000000E+00 0. -1.
         -2   -1    0    0    0  501 -0.00000000000E+00 -0.00000000000E+00 -0.67111058361E+03  0.67111058361E+03  0.00000000000E+00 0.  1.
         23    2    1    2    0    0 -0.89523643993E+03  0.11642182342E+03  0.84903699923E+03  0.12426823798E+04  0.91615209769E+02 0.  0.
        254    2    1    2    0    0  0.89523643993E+03 -0.11642182342E+03  0.38297462696E+03  0.13315504136E+04  0.90075224934E+03 0.  0.
        -24    2    4    4    0    0  0.48120831858E+03  0.36635203126E+03  0.55532694236E+02  0.61258400210E+03  0.80000142712E+02 0.  0.
         24    2    4    4    0    0  0.41402812136E+03 -0.48277385467E+03  0.32744193272E+03  0.71896641149E+03  0.72142924203E+02 0.  0.
         13    1    3    3    0    0 -0.76821209403E+03  0.12589554842E+03  0.75407461485E+03  0.10838025813E+04  0.00000000000E+00 0. -1.
        -13    1    3    3    0    0 -0.12702434590E+03 -0.94737249979E+01  0.94962384375E+02  0.15887979848E+03  0.00000000000E+00 0.  1.
          2    1    6    6  502    0  0.19804243486E+03 -0.23879014427E+03  0.11965515433E+03  0.33250397736E+03  0.00000000000E+00 0. -1.
          1    1    5    5  503    0  0.30785555697E+02  0.52807128160E+02  0.93335537965E+01  0.61834120440E+02  0.00000000000E+00 0. -1.
         -2    1    5    5    0  503  0.45042276288E+03  0.31354490310E+03  0.46199140440E+02  0.55074988166E+03  0.00000000000E+00 0.  1.
         -1    1    6    6    0  502  0.21598568650E+03 -0.24398371041E+03  0.20778677839E+03  0.38646243413E+03  0.00000000000E+00 0.  1.
<mgrwt>
<rscale>  0 0.22602703E+04</rscale>
<asrwt>0</asrwt>
<pdfrwt beam="1">  1        2 0.29278803E+00 0.22602703E+04</pdfrwt>
<pdfrwt beam="2">  1       -2 0.10324778E+00 0.22602703E+04</pdfrwt>
<totfact> 0.52649169E+00</totfact>
</mgrwt>
</event>
<event>
12    1  0.1980523E-007  0.3441585E+04  0.7818608E-02  0.8127775E-01
          2   -1    0    0  501    0  0.00000000000E+00  0.00000000000E+00  0.27535451931E+04  0.27535451931E+04  0.00000000000E+00 0. -1.
         -2   -1    0    0    0  501 -0.00000000000E+00 -0.00000000000E+00 -0.10753867889E+04  0.10753867889E+04  0.00000000000E+00 0.  1.
         23    2    1    2    0    0 -0.45201129004E+03  0.30558824081E+03 -0.89307098381E+03  0.10507205305E+04  0.93485142067E+02 0.  0.
        254    2    1    2    0    0  0.45201129004E+03 -0.30558824081E+03  0.25712293880E+04  0.27782114515E+04  0.89974436603E+03 0.  0.
        -24    2    4    4    0    0  0.19659438776E+03 -0.44050300188E+01  0.41270054138E+02  0.21628491253E+03  0.80044915088E+02 0.  0.
         24    2    4    4    0    0  0.25541690228E+03 -0.30118321080E+03  0.25299593339E+04  0.25619265390E+04  0.82608955873E+02 0.  0.
         11    1    3    3    0    0 -0.39394947231E+03  0.22521344022E+03 -0.75157524303E+03  0.87794226822E+03  0.00000000000E+00 0.  1.
        -11    1    3    3    0    0 -0.58061817725E+02  0.80374800595E+02 -0.14149574078E+03  0.17277826225E+03  0.00000000000E+00 0. -1.
          2    1    6    6  502    0  0.13011693020E+03 -0.13564513329E+03  0.95299230435E+03  0.97135181569E+03  0.00000000000E+00 0. -1.
          3    1    5    5  503    0  0.93895758686E+02 -0.19311189612E+02 -0.16868865313E+02  0.97333931187E+02  0.00000000000E+00 0. -1.
         -4    1    5    5    0  503  0.10269862907E+03  0.14906159593E+02  0.58138919450E+02  0.11895098134E+03  0.00000000000E+00 0.  1.
         -1    1    6    6    0  502  0.12529997208E+03 -0.16553807751E+03  0.15769670295E+04  0.15905747233E+04  0.00000000000E+00 0.  1.
<mgrwt>
<rscale>  0 0.34415846E+04</rscale>
<asrwt>0</asrwt>
<pdfrwt beam="1">  1        2 0.42362233E+00 0.34415846E+04</pdfrwt>
<pdfrwt beam="2">  1       -2 0.16544412E+00 0.34415846E+04</pdfrwt>
<totfact> 0.46782158E-01</totfact>
</mgrwt>
</event>
<event>
12    1  0.1980523E-007  0.3103401E+04  0.7818608E-02  0.8214805E-01
         -2   -1    0    0    0  501 -0.00000000000E+00  0.00000000000E+00  0.20578729145E+04  0.20578729145E+04  0.00000000000E+00 0.  1.
          2   -1    0    0  501    0  0.00000000000E+00 -0.00000000000E+00 -0.11700308885E+04  0.11700308885E+04  0.00000000000E+00 0. -1.
         23    2    1    2    0    0  0.93557652774E+03  0.25775161512E+03  0.14848733608E+04  0.17761918683E+04  0.90935807986E+02 0.  0.
        254    2    1    2    0    0 -0.93557652774E+03 -0.25775161512E+03 -0.59703133471E+03  0.14517119347E+04  0.89960090721E+03 0.  0.
        -24    2    4    4    0    0 -0.10041873817E+04  0.15492772856E+02 -0.56964821806E+03  0.11573836550E+04  0.80034423630E+02 0.  0.
         24    2    4    4    0    0  0.68610853979E+02 -0.27324438798E+03 -0.27383116647E+02  0.29432827964E+03  0.80680581748E+02 0.  0.
         13    1    3    3    0    0  0.51406170938E+03  0.17806968940E+03  0.88158719445E+03  0.10359364057E+04  0.00000000000E+00 0.  1.
        -13    1    3    3    0    0  0.42151481836E+03  0.79681925727E+02  0.60328616633E+03  0.74025546258E+03  0.00000000000E+00 0. -1.
          4    1    6    6  502    0 -0.18272846466E+02 -0.61940566037E+02 -0.65922494226E+01  0.64915240055E+02  0.00000000000E+00 0. -1.
          3    1    5    5  503    0 -0.20125313938E+03 -0.10514909896E+02 -0.81753121540E+02  0.21747864797E+03  0.00000000000E+00 0. -1.
         -4    1    5    5    0  503 -0.80293424234E+03  0.26007682751E+02 -0.48789509653E+03  0.93990500706E+03  0.00000000000E+00 0.  1.
         -3    1    6    6    0  502  0.86883700446E+02 -0.21130382194E+03 -0.20790867224E+02  0.22941303958E+03  0.00000000000E+00 0.  1.
<mgrwt>
<rscale>  0 0.31034013E+04</rscale>
<asrwt>0</asrwt>
<pdfrwt beam="1">  1        2 0.18000475E+00 0.31034013E+04</pdfrwt>
<pdfrwt beam="2">  1       -2 0.31659583E+00 0.31034013E+04</pdfrwt>
<totfact> 0.42107250E-01</totfact>
</mgrwt>
</event>
<event>
12    1  0.1980523E-007  0.1921104E+04  0.7818608E-02  0.8644422E-01
         -1   -1    0    0    0  501 -0.00000000000E+00  0.00000000000E+00  0.31728720191E+03  0.31728720191E+03  0.00000000000E+00 0.  1.
          1   -1    0    0  501    0  0.00000000000E+00 -0.00000000000E+00 -0.29079654770E+04  0.29079654770E+04  0.00000000000E+00 0. -1.
         23    2    1    2    0    0  0.69328734303E+03 -0.18442224968E+03 -0.13483230843E+04  0.15298291582E+04  0.87995496874E+02 0.  0.
        254    2    1    2    0    0 -0.69328734303E+03  0.18442224968E+03 -0.12423551908E+04  0.16954235207E+04  0.90352398324E+03 0.  0.
        -24    2    4    4    0    0 -0.83449477625E+03  0.33381852176E+03 -0.11357745642E+04  0.14505877535E+04  0.80028951265E+02 0.  0.
         24    2    4    4    0    0  0.14120743321E+03 -0.14939627209E+03 -0.10658062664E+03  0.24483576718E+03  0.79538277636E+02 0.  0.
         11    1    3    3    0    0  0.19471176952E+03 -0.28620403507E+02 -0.30378488257E+03  0.36196278201E+03  0.00000000000E+00 0. -1.
        -11    1    3    3    0    0  0.49857557351E+03 -0.15580184617E+03 -0.10445382017E+04  0.11678663762E+04  0.00000000000E+00 0.  1.
          4    1    6    6  502    0  0.14065328259E+03 -0.10821016108E+03 -0.73808197547E+02  0.19219894612E+03  0.00000000000E+00 0. -1.
          3    1    5    5  503    0 -0.49077714685E+03  0.15895063757E+03 -0.68042693684E+03  0.85387840436E+03  0.00000000000E+00 0. -1.
         -4    1    5    5    0  503 -0.34371762939E+03  0.17486788419E+03 -0.45534762732E+03  0.59670934917E+03  0.00000000000E+00 0.  1.
         -3    1    6    6    0  502  0.55415061731E+00 -0.41186111004E+02 -0.32772429090E+02  0.52636821057E+02  0.00000000000E+00 0.  1.
<mgrwt>
<rscale>  0 0.19211041E+04</rscale>
<asrwt>0</asrwt>
<pdfrwt beam="1">  1        1 0.44737931E+00 0.19211041E+04</pdfrwt>
<pdfrwt beam="2">  1       -1 0.48813415E-01 0.19211041E+04</pdfrwt>
<totfact> 0.27411278E+00</totfact>
</mgrwt>
</event>
<event>
12    1  0.1980523E-007  0.3210104E+04  0.7818608E-02  0.8186154E-01
         -2   -1    0    0    0  501 -0.00000000000E+00  0.00000000000E+00  0.11721675891E+04  0.11721675891E+04  0.00000000000E+00 0.  1.
          2   -1    0    0  501    0  0.00000000000E+00 -0.00000000000E+00 -0.21978013820E+04  0.21978013820E+04  0.00000000000E+00 0. -1.
         23    2    1    2    0    0 -0.10006803179E+04  0.78995605800E+03 -0.12565202153E+04  0.17924905368E+04  0.93742204494E+02 0.  0.
        254    2    1    2    0    0  0.10006803179E+04 -0.78995605800E+03  0.23088642237E+03  0.15774784343E+04  0.89985443189E+03 0.  0.
        -24    2    4    4    0    0  0.10298169365E+04 -0.91619474918E+03  0.29367185084E+03  0.14115706646E+04  0.79704730589E+02 0.  0.
         24    2    4    4    0    0 -0.29136618585E+02  0.12623869118E+03 -0.62785428474E+02  0.16590776976E+03  0.82451369571E+02 0.  0.
         11    1    3    3    0    0 -0.27503722902E+03  0.16678365461E+03 -0.32970508590E+03  0.46061666107E+03  0.00000000000E+00 0.  1.
        -11    1    3    3    0    0 -0.72564308886E+03  0.62317240339E+03 -0.92681512939E+03  0.13318738757E+04  0.00000000000E+00 0. -1.
          4    1    6    6  502    0 -0.52434085810E+02  0.64712056537E+02 -0.54648984505E+02  0.99616741181E+02  0.00000000000E+00 0. -1.
          1    1    5    5  503    0  0.96220024513E+03 -0.83178832241E+03  0.28215056589E+03  0.13028085304E+04  0.00000000000E+00 0. -1.
         -2    1    5    5    0  503  0.67616691332E+02 -0.84406426766E+02  0.11521284953E+02  0.10876213419E+03  0.00000000000E+00 0.  1.
         -3    1    6    6    0  502  0.23297467225E+02  0.61526634638E+02 -0.81364439686E+01  0.66291028574E+02  0.00000000000E+00 0.  1.
<mgrwt>
<rscale>  0 0.32101038E+04</rscale>
<asrwt>0</asrwt>
<pdfrwt beam="1">  1        2 0.33812329E+00 0.32101038E+04</pdfrwt>
<pdfrwt beam="2">  1       -2 0.18033348E+00 0.32101038E+04</pdfrwt>
<totfact> 0.78587171E-01</totfact>
</mgrwt>
</event>
<event>
12    1  0.1980523E-007  0.3921075E+04  0.7818608E-02  0.8020660E-01
         -3   -1    0    0    0  501 -0.00000000000E+00  0.00000000000E+00  0.18360755013E+04  0.18360755013E+04  0.00000000000E+00 0.  1.
          3   -1    0    0  501    0  0.00000000000E+00 -0.00000000000E+00 -0.20934361867E+04  0.20934361867E+04  0.00000000000E+00 0. -1.
         23    2    1    2    0    0 -0.12012475680E+04  0.12090968979E+04 -0.86064606922E+03  0.19118823980E+04  0.98344390592E+02 0.  0.
        254    2    1    2    0    0  0.12012475680E+04 -0.12090968979E+04  0.60328538390E+03  0.20176292900E+04  0.89552424277E+03 0.  0.
        -24    2    4    4    0    0  0.12202923176E+04 -0.12783446075E+04  0.66864932142E+03  0.18911600537E+04  0.78205868743E+02 0.  0.
         24    2    4    4    0    0 -0.19044749677E+02  0.69247709521E+02 -0.65363937518E+02  0.12646923629E+03  0.81018983179E+02 0.  0.
         13    1    3    3    0    0 -0.90653858417E+03  0.85631015921E+03 -0.64925022042E+03  0.14059179002E+04  0.00000000000E+00 0. -1.
        -13    1    3    3    0    0 -0.29470898379E+03  0.35278673873E+03 -0.21139584880E+03  0.50596449780E+03  0.00000000000E+00 0.  1.
          2    1    6    6  502    0  0.16877601942E+02 -0.10089540408E+02 -0.20857740349E+02  0.28665268278E+02  0.00000000000E+00 0. -1.
          3    1    5    5  503    0  0.70457568253E+03 -0.69863496999E+03  0.40473277957E+03  0.10715998957E+04  0.00000000000E+00 0. -1.
         -4    1    5    5    0  503  0.51571663511E+03 -0.57970963747E+03  0.26391654184E+03  0.81956015799E+03  0.00000000000E+00 0.  1.
         -1    1    6    6    0  502 -0.35922351619E+02  0.79337249930E+02 -0.44506197168E+02  0.97803968011E+02  0.00000000000E+00 0.  1.
<mgrwt>
<rscale>  0 0.39210748E+04</rscale>
<asrwt>0</asrwt>
<pdfrwt beam="1">  1        3 0.32206711E+00 0.39210748E+04</pdfrwt>
<pdfrwt beam="2">  1       -3 0.28247315E+00 0.39210748E+04</pdfrwt>
<totfact> 0.28522792E-03</totfact>
</mgrwt>
</event>
<event>
12    1  0.1980523E-007  0.1513703E+04  0.7818608E-02  0.8875391E-01
          2   -1    0    0  501    0  0.00000000000E+00  0.00000000000E+00  0.70679645385E+03  0.70679645385E+03  0.00000000000E+00 0. -1.
         -2   -1    0    0    0  501 -0.00000000000E+00 -0.00000000000E+00 -0.81045155470E+03  0.81045155470E+03  0.00000000000E+00 0.  1.
         23    2    1    2    0    0  0.41294860883E+03  0.24475307824E+03  0.29217563728E+02  0.48941920486E+03  0.90812274560E+02 0.  0.
        254    2    1    2    0    0 -0.41294860883E+03 -0.24475307824E+03 -0.13287266458E+03  0.10278288037E+04  0.89908079829E+03 0.  0.
        -24    2    4    4    0    0 -0.14662901640E+03 -0.97581505730E+02  0.37926047704E+03  0.42672020123E+03  0.85025890070E+02 0.  0.
         24    2    4    4    0    0 -0.26631959243E+03 -0.14717157251E+03 -0.51213314162E+03  0.60110860246E+03  0.80408955579E+02 0.  0.
         13    1    3    3    0    0  0.29426539423E+03  0.13234665356E+03  0.42361654791E+02  0.32542628773E+03  0.00000000000E+00 0. -1.
        -13    1    3    3    0    0  0.11868321459E+03  0.11240642468E+03 -0.13144091063E+02  0.16399291712E+03  0.00000000000E+00 0.  1.
          4    1    6    6  502    0 -0.51768009658E+02 -0.65682837853E+02 -0.16469264353E+03  0.18471012112E+03  0.00000000000E+00 0. -1.
          1    1    5    5  503    0 -0.32346674896E+01 -0.13163244238E+02  0.11362369432E+01  0.13602393430E+02  0.00000000000E+00 0. -1.
         -2    1    5    5    0  503 -0.14339434891E+03 -0.84418261492E+02  0.37812424010E+03  0.41311780780E+03  0.00000000000E+00 0.  1.
         -3    1    6    6    0  502 -0.21455158277E+03 -0.81488734661E+02 -0.34744049809E+03  0.41639848133E+03  0.00000000000E+00 0.  1.
<mgrwt>
<rscale>  0 0.15137031E+04</rscale>
<asrwt>0</asrwt>
<pdfrwt beam="1">  1        2 0.10873792E+00 0.15137031E+04</pdfrwt>
<pdfrwt beam="2">  1       -2 0.12468485E+00 0.15137031E+04</pdfrwt>
<totfact> 0.18846143E+01</totfact>
</mgrwt>
</event>
<event>
12    1  0.1980523E-007  0.2866360E+04  0.7818608E-02  0.8282957E-01
         -2   -1    0    0    0  501 -0.00000000000E+00  0.00000000000E+00  0.17840750107E+04  0.17840750107E+04  0.00000000000E+00 0.  1.
          2   -1    0    0  501    0  0.00000000000E+00 -0.00000000000E+00 -0.11512995930E+04  0.11512995930E+04  0.00000000000E+00 0. -1.
         23    2    1    2    0    0  0.50257751072E+03  0.56407921487E+03  0.13569180443E+04  0.15559535048E+04  0.94843108761E+02 0.  0.
        254    2    1    2    0    0 -0.50257751072E+03 -0.56407921487E+03 -0.72414262658E+03  0.13794210988E+04  0.89869377953E+03 0.  0.
        -24    2    4    4    0    0  0.15730156542E+03 -0.14940137763E+03 -0.52070105047E+03  0.56949501661E+03  0.78297099988E+02 0.  0.
         24    2    4    4    0    0 -0.65987907614E+03 -0.41467783724E+03 -0.20344157611E+03  0.80992608222E+03  0.84815564315E+02 0.  0.
         11    1    3    3    0    0  0.29631411435E+03  0.36703921044E+03  0.92506407889E+03  0.10383946198E+04  0.00000000000E+00 0.  1.
        -11    1    3    3    0    0  0.20626339637E+03  0.19704000443E+03  0.43185396541E+03  0.51755888503E+03  0.00000000000E+00 0. -1.
          4    1    6    6  502    0 -0.45613823848E+03 -0.32726483402E+03 -0.16286849190E+03  0.58454299230E+03  0.00000000000E+00 0. -1.
          1    1    5    5  503    0  0.12235189013E+03 -0.73891644201E+02 -0.38052779218E+03  0.40648660583E+03  0.00000000000E+00 0. -1.
         -2    1    5    5    0  503  0.34949675290E+02 -0.75509733430E+02 -0.14017325829E+03  0.16300841078E+03  0.00000000000E+00 0.  1.
         -3    1    6    6    0  502 -0.20374083765E+03 -0.87413003215E+02 -0.40573084209E+02  0.22538308992E+03  0.00000000000E+00 0.  1.
<mgrwt>
<rscale>  0 0.28663599E+04</rscale>
<asrwt>0</asrwt>
<pdfrwt beam="1">  1        2 0.17712301E+00 0.28663599E+04</pdfrwt>
<pdfrwt beam="2">  1       -2 0.27447308E+00 0.28663599E+04</pdfrwt>
<totfact> 0.79821175E-01</totfact>
</mgrwt>
</event>
<event>
12    1  0.1980523E-007  0.2197127E+04  0.7818608E-02  0.8519625E-01
          4   -1    0    0  501    0  0.00000000000E+00  0.00000000000E+00  0.74561044534E+03  0.74561044534E+03  0.00000000000E+00 0. -1.
         -4   -1    0    0    0  501 -0.00000000000E+00 -0.00000000000E+00 -0.16185960217E+04  0.16185960217E+04  0.00000000000E+00 0.  1.
         23    2    1    2    0    0 -0.25121461442E+03 -0.18639531924E+03 -0.12848002735E+04  0.13255017513E+04  0.91603232410E+02 0.  0.
        254    2    1    2    0    0  0.25121461442E+03  0.18639531924E+03  0.41181469715E+03  0.10387047158E+04  0.90081304627E+03 0.  0.
        -24    2    4    4    0    0  0.91536009948E+01  0.41629665437E+03  0.52723235217E+03  0.67653468629E+03  0.79614921490E+02 0.  0.
         24    2    4    4    0    0  0.24206101342E+03 -0.22990133513E+03 -0.11541765502E+03  0.36217002953E+03  0.79985855509E+02 0.  0.
         11    1    3    3    0    0 -0.16587018603E+03 -0.16006229117E+03 -0.10307327525E+04  0.10561926258E+04  0.00000000000E+00 0. -1.
        -11    1    3    3    0    0 -0.85344428385E+02 -0.26333028068E+02 -0.25406752102E+03  0.26930912547E+03  0.00000000000E+00 0.  1.
          4    1    6    6  502    0  0.23172438243E+03 -0.22653534873E+03 -0.12533739422E+03  0.34745347318E+03  0.00000000000E+00 0. -1.
          1    1    5    5  503    0  0.20746428477E+02  0.35971504802E+03  0.48844255763E+03  0.60696084072E+03  0.00000000000E+00 0. -1.
         -2    1    5    5    0  503 -0.11592827482E+02  0.56581606351E+02  0.38789794542E+02  0.69573845567E+02  0.00000000000E+00 0.  1.
         -1    1    6    6    0  502  0.10336630991E+02 -0.33659864030E+01  0.99197392025E+01  0.14716556342E+02  0.00000000000E+00 0.  1.
<mgrwt>
<rscale>  0 0.21971273E+04</rscale>
<asrwt>0</asrwt>
<pdfrwt beam="1">  1        4 0.11470930E+00 0.21971273E+04</pdfrwt>
<pdfrwt beam="2">  1       -4 0.24901477E+00 0.21971273E+04</pdfrwt>
<totfact> 0.69284365E-02</totfact>
</mgrwt>
</event>
<event>
12    1  0.1980523E-007  0.4156177E+04  0.7818608E-02  0.7973761E-01
          1   -1    0    0  501    0  0.00000000000E+00  0.00000000000E+00  0.31720039369E+04  0.31720039369E+04  0.00000000000E+00 0. -1.
         -1   -1    0    0    0  501 -0.00000000000E+00 -0.00000000000E+00 -0.13614269827E+04  0.13614269827E+04  0.00000000000E+00 0.  1.
         23    2    1    2    0    0  0.81293344597E+03  0.17587591414E+04  0.13060295436E+04  0.23383802735E+04  0.90634595019E+02 0.  0.
        254    2    1    2    0    0 -0.81293344597E+03 -0.17587591414E+04  0.50454741056E+03  0.21950506460E+04  0.89976927265E+03 0.  0.
        -24    2    4    4    0    0 -0.92027103022E+03 -0.17410648183E+04  0.56039315496E+03  0.20490627409E+04  0.80075948948E+02 0.  0.
         24    2    4    4    0    0  0.10733758424E+03 -0.17694323166E+02 -0.55845744399E+02  0.14598790513E+03  0.79745063877E+02 0.  0.
         13    1    3    3    0    0  0.70627618158E+03  0.15768162171E+04  0.11400188382E+04  0.20699802846E+04  0.00000000000E+00 0.  1.
        -13    1    3    3    0    0  0.10665726440E+03  0.18194292434E+03  0.16601070538E+03  0.26839998895E+03  0.00000000000E+00 0. -1.
          4    1    6    6  502    0  0.12480358237E+02  0.26023747773E+02 -0.21671790583E+02  0.36092399435E+02  0.00000000000E+00 0. -1.
          3    1    5    5  503    0 -0.83941796915E+03 -0.15752113353E+04  0.48406859615E+03  0.18493879213E+04  0.00000000000E+00 0. -1.
         -4    1    5    5    0  503 -0.80853061064E+02 -0.16585348298E+03  0.76324558816E+02  0.19967481959E+03  0.00000000000E+00 0.  1.
         -3    1    6    6    0  502  0.94857226004E+02 -0.43718070939E+02 -0.34173953816E+02  0.10989550569E+03  0.00000000000E+00 0.  1.
<mgrwt>
<rscale>  0 0.41561770E+04</rscale>
<asrwt>0</asrwt>
<pdfrwt beam="1">  1        1 0.48800060E+00 0.41561770E+04</pdfrwt>
<pdfrwt beam="2">  1       -1 0.20945031E+00 0.41561770E+04</pdfrwt>
<totfact> 0.44668059E-02</totfact>
</mgrwt>
</event>
<event>
12    1  0.1980523E-007  0.3146928E+04  0.7818608E-02  0.8202976E-01
         -2   -1    0    0    0  501 -0.00000000000E+00  0.00000000000E+00  0.69167836947E+03  0.69167836947E+03  0.00000000000E+00 0.  1.
          2   -1    0    0  501    0  0.00000000000E+00 -0.00000000000E+00 -0.35793940637E+04  0.35793940637E+04  0.00000000000E+00 0. -1.
         23    2    1    2    0    0  0.32080911877E+03  0.91329488017E+03 -0.27810020049E+04  0.29460762754E+04  0.91472619952E+02 0.  0.
        254    2    1    2    0    0 -0.32080911877E+03 -0.91329488017E+03 -0.10671368939E+03  0.13249961579E+04  0.89844364208E+03 0.  0.
        -24    2    4    4    0    0 -0.44147719702E+03 -0.10271163810E+04 -0.18685741446E+02  0.11209836629E+04  0.79906445050E+02 0.  0.
         24    2    4    4    0    0  0.12066807825E+03  0.11382150079E+03 -0.88027947942E+02  0.20401249498E+03  0.79724897858E+02 0.  0.
         13    1    3    3    0    0  0.27952388774E+02  0.75326571846E+02 -0.16394646963E+03  0.18257566478E+03  0.00000000000E+00 0.  1.
        -13    1    3    3    0    0  0.29285673000E+03  0.83796830832E+03 -0.26170555353E+04  0.27635006106E+04  0.00000000000E+00 0. -1.
          4    1    6    6  502    0  0.26251680692E+01  0.15483545095E+02  0.12786594335E+02  0.20251633781E+02  0.00000000000E+00 0. -1.
          3    1    5    5  503    0 -0.24138287770E+02 -0.66847379908E+02  0.17954806801E+02  0.73304871763E+02  0.00000000000E+00 0. -1.
         -4    1    5    5    0  503 -0.41733890925E+03 -0.96026900105E+03 -0.36640548248E+02  0.10476787911E+04  0.00000000000E+00 0.  1.
         -3    1    6    6    0  502  0.11804291018E+03  0.98337955697E+02 -0.10081454228E+03  0.18376086120E+03  0.00000000000E+00 0.  1.
<mgrwt>
<rscale>  0 0.31469283E+04</rscale>
<asrwt>0</asrwt>
<pdfrwt beam="1">  1        2 0.55067602E+00 0.31469283E+04</pdfrwt>
<pdfrwt beam="2">  1       -2 0.10641206E+00 0.31469283E+04</pdfrwt>
<totfact> 0.42950166E-01</totfact>
</mgrwt>
</event>
<event>
12    1  0.1980523E-007  0.4297086E+04  0.7818608E-02  0.7947157E-01
         -2   -1    0    0    0  501 -0.00000000000E+00  0.00000000000E+00  0.17366824352E+04  0.17366824352E+04  0.00000000000E+00 0.  1.
          2   -1    0    0  501    0  0.00000000000E+00 -0.00000000000E+00 -0.26580772328E+04  0.26580772328E+04  0.00000000000E+00 0. -1.
         23    2    1    2    0    0 -0.30462336696E+02 -0.20264382783E+04 -0.77751460546E+03  0.21726424627E+04  0.92012277937E+02 0.  0.
        254    2    1    2    0    0  0.30462336696E+02  0.20264382783E+04 -0.14388019210E+03  0.22221172054E+04  0.89984627305E+03 0.  0.
        -24    2    4    4    0    0  0.15545639236E+03  0.10455364164E+04  0.34658151180E+03  0.11152225783E+04  0.79306788541E+02 0.  0.
         24    2    4    4    0    0 -0.12499405567E+03  0.98090186185E+03 -0.49046170390E+03  0.11068946271E+04  0.82891833327E+02 0.  0.
         11    1    3    3    0    0 -0.57076721336E+02 -0.12409668373E+04 -0.45144880452E+03  0.13217649059E+04  0.00000000000E+00 0.  1.
        -11    1    3    3    0    0  0.26614384640E+02 -0.78547144097E+03 -0.32606580095E+03  0.85087755676E+03  0.00000000000E+00 0. -1.
          4    1    6    6  502    0 -0.36965679110E+02  0.55293035756E+03 -0.24707707913E+03  0.60674996891E+03  0.00000000000E+00 0. -1.
          3    1    5    5  503    0  0.37029330174E+02  0.32485292998E+03  0.14426307445E+03  0.35736876200E+03  0.00000000000E+00 0. -1.
         -4    1    5    5    0  503  0.11842706219E+03  0.72068348646E+03  0.20231843736E+03  0.75785381625E+03  0.00000000000E+00 0.  1.
         -3    1    6    6    0  502 -0.88028376556E+02  0.42797150428E+03 -0.24338462478E+03  0.50014465821E+03  0.00000000000E+00 0.  1.
<mgrwt>
<rscale>  0 0.42970855E+04</rscale>
<asrwt>0</asrwt>
<pdfrwt beam="1">  1        2 0.40893496E+00 0.42970855E+04</pdfrwt>
<pdfrwt beam="2">  1       -2 0.26718191E+00 0.42970855E+04</pdfrwt>
<totfact> 0.10922034E-01</totfact>
</mgrwt>
</event>
<event>
12    1  0.1980523E-007  0.2947719E+04  0.7818608E-02  0.8258820E-01
          2   -1    0    0  501    0  0.00000000000E+00  0.00000000000E+00  0.35426094306E+04  0.35426094306E+04  0.00000000000E+00 0.  1.
         -2   -1    0    0    0  501 -0.00000000000E+00 -0.00000000000E+00 -0.61318141012E+03  0.61318141012E+03  0.00000000000E+00 0. -1.
         23    2    1    2    0    0 -0.87868116641E+03  0.98622093936E+03  0.10678795127E+04  0.17009972084E+04  0.91173000888E+02 0.  0.
        254    2    1    2    0    0  0.87868116641E+03 -0.98622093936E+03  0.18615485079E+04  0.24547936323E+04  0.90329208831E+03 0.  0.
        -24    2    4    4    0    0  0.59811329631E+03 -0.91452642722E+02  0.10385253350E+04  0.12045802477E+04  0.79847359083E+02 0.  0.
         24    2    4    4    0    0  0.28056787009E+03 -0.89476829664E+03  0.82302317290E+03  0.12502133846E+04  0.79609858324E+02 0.  0.
         13    1    3    3    0    0 -0.34302664549E+03  0.40795014996E+03  0.48524372680E+03  0.72079961069E+03  0.00000000000E+00 0. -1.
        -13    1    3    3    0    0 -0.53565452092E+03  0.57827078940E+03  0.58263578586E+03  0.98019759774E+03  0.00000000000E+00 0.  1.
          2    1    6    6  502    0  0.91158404241E+02 -0.20880179108E+03  0.16879272448E+03  0.28354722087E+03  0.00000000000E+00 0. -1.
          1    1    5    5  503    0  0.39479006086E+03 -0.36509118870E+02  0.73540967541E+03  0.83547561221E+03  0.00000000000E+00 0. -1.
         -2    1    5    5    0  503  0.20332323545E+03 -0.54943523852E+02  0.30311565956E+03  0.36910463551E+03  0.00000000000E+00 0.  1.
         -1    1    6    6    0  502  0.18940946585E+03 -0.68596650556E+03  0.65423044842E+03  0.96666616375E+03  0.00000000000E+00 0.  1.
<mgrwt>
<rscale>  0 0.29477193E+04</rscale>
<asrwt>0</asrwt>
<pdfrwt beam="1">  1        2 0.54501682E+00 0.29477193E+04</pdfrwt>
<pdfrwt beam="2">  1       -2 0.94335604E-01 0.29477193E+04</pdfrwt>
<totfact> 0.61755139E-01</totfact>
</mgrwt>
</event>
<event>
12    1  0.1980523E-007  0.1702499E+04  0.7818608E-02  0.8759940E-01
         -2   -1    0    0    0  501 -0.00000000000E+00  0.00000000000E+00  0.24780992812E+03  0.24780992812E+03  0.00000000000E+00 0. -1.
          2   -1    0    0  501    0  0.00000000000E+00 -0.00000000000E+00 -0.29241190682E+04  0.29241190682E+04  0.00000000000E+00 0.  1.
         23    2    1    2    0    0 -0.99278506597E+02 -0.40672321389E+03 -0.17907128156E+04  0.18411568791E+04  0.89029607601E+02 0.  0.
        254    2    1    2    0    0  0.99278506597E+02  0.40672321389E+03 -0.88559632445E+03  0.13307721172E+04  0.90077388025E+03 0.  0.
        -24    2    4    4    0    0  0.16004440744E+03 -0.23117667852E+03 -0.50025696796E+03  0.57877613067E+03  0.75285499206E+02 0.  0.
         24    2    4    4    0    0 -0.60765900843E+02  0.63789989241E+03 -0.38533935649E+03  0.75199598649E+03  0.80017351878E+02 0.  0.
         13    1    3    3    0    0  0.99479090077E+01 -0.12180114568E+03 -0.46645805608E+03  0.48220078605E+03  0.00000000000E+00 0.  1.
        -13    1    3    3    0    0 -0.10922641560E+03 -0.28492206820E+03 -0.13242547595E+04  0.13589560931E+04  0.00000000000E+00 0. -1.
          2    1    6    6  502    0  0.18305731786E+02  0.19535039263E+03 -0.11728786613E+03  0.22858984942E+03  0.00000000000E+00 0. -1.
          1    1    5    5  503    0  0.80077859736E+02 -0.12549390045E+03 -0.18980306654E+03  0.24121854560E+03  0.00000000000E+00 0. -1.
         -2    1    5    5    0  503  0.79966547704E+02 -0.10568277807E+03 -0.31045390142E+03  0.33755758507E+03  0.00000000000E+00 0.  1.
         -1    1    6    6    0  502 -0.79071632629E+02  0.44254949978E+03 -0.26805149036E+03  0.52340613707E+03  0.00000000000E+00 0.  1.
<mgrwt>
<rscale>  0 0.17024990E+04</rscale>
<asrwt>0</asrwt>
<pdfrwt beam="1">  1        2 0.44986446E+00 0.17024990E+04</pdfrwt>
<pdfrwt beam="2">  1       -2 0.38124605E-01 0.17024990E+04</pdfrwt>
<totfact> 0.12047500E+01</totfact>
</mgrwt>
</event>
<event>
12    1  0.1980523E-007  0.1408703E+04  0.7818608E-02  0.8947543E-01
          1   -1    0    0  501    0  0.00000000000E+00  0.00000000000E+00  0.79390049463E+03  0.79390049463E+03  0.00000000000E+00 0. -1.
         -1   -1    0    0    0  501 -0.00000000000E+00 -0.00000000000E+00 -0.62490330626E+03  0.62490330626E+03  0.00000000000E+00 0.  1.
         23    2    1    2    0    0  0.22281866978E+03 -0.33456826395E+03  0.12629081956E+03  0.43286808612E+03  0.99203457729E+02 0.  0.
        254    2    1    2    0    0 -0.22281866978E+03  0.33456826395E+03  0.42706368804E+02  0.98593571477E+03  0.89925597961E+03 0.  0.
        -24    2    4    4    0    0  0.19492688330E+03 -0.76034203500E+02  0.27150092037E+03  0.35189186414E+03  0.79608067138E+02 0.  0.
         24    2    4    4    0    0 -0.41774555309E+03  0.41060246745E+03 -0.22879455156E+03  0.63404385062E+03  0.80987185952E+02 0.  0.
         11    1    3    3    0    0  0.15359737556E+03 -0.14126083731E+03  0.61075132720E+02  0.21743263273E+03  0.00000000000E+00 0.  1.
        -11    1    3    3    0    0  0.69221294223E+02 -0.19330742664E+03  0.65215686844E+02  0.21543545339E+03  0.00000000000E+00 0. -1.
          2    1    6    6  502    0 -0.30807528419E+03  0.34566785579E+03 -0.16529727784E+03  0.49165011676E+03  0.00000000000E+00 0. -1.
          1    1    5    5  503    0  0.19355574594E+03 -0.75046527653E+02  0.22796922860E+03  0.30832738653E+03  0.00000000000E+00 0. -1.
         -2    1    5    5    0  503  0.13711373678E+01 -0.98767584663E+00  0.43531691771E+02  0.43564477613E+02  0.00000000000E+00 0.  1.
         -1    1    6    6    0  502 -0.10967026890E+03  0.64934611664E+02 -0.63497273727E+02  0.14239373386E+03  0.00000000000E+00 0.  1.
<mgrwt>
<rscale>  0 0.14087030E+04</rscale>
<asrwt>0</asrwt>
<pdfrwt beam="1">  1        1 0.12213854E+00 0.14087030E+04</pdfrwt>
<pdfrwt beam="2">  1       -1 0.96138970E-01 0.14087030E+04</pdfrwt>
<totfact> 0.22743591E+01</totfact>
</mgrwt>
</event>
<event>
12    1  0.1980523E-007  0.1391216E+04  0.7818608E-02  0.8960201E-01
          2   -1    0    0  501    0  0.00000000000E+00  0.00000000000E+00  0.74605459962E+03  0.74605459962E+03  0.00000000000E+00 0. -1.
         -2   -1    0    0    0  501 -0.00000000000E+00 -0.00000000000E+00 -0.64857293041E+03  0.64857293041E+03  0.00000000000E+00 0.  1.
         23    2    1    2    0    0  0.26186506084E+03 -0.26020997997E+03  0.17377158679E+03  0.41836568270E+03  0.92470191556E+02 0.  0.
        254    2    1    2    0    0 -0.26186506084E+03  0.26020997997E+03 -0.76289917572E+02  0.97626184733E+03  0.90054677794E+03 0.  0.
        -24    2    4    4    0    0  0.28829414568E+03 -0.70563237761E+01  0.12940548706E+03  0.32607598440E+03  0.80102817597E+02 0.  0.
         24    2    4    4    0    0 -0.55015920651E+03  0.26726630375E+03 -0.20569540464E+03  0.65018586293E+03  0.79527524981E+02 0.  0.
         13    1    3    3    0    0  0.10658717097E+03 -0.51678148764E+02  0.75226245816E+02  0.14032264299E+03  0.00000000000E+00 0. -1.
        -13    1    3    3    0    0  0.15527788986E+03 -0.20853183121E+03  0.98545340970E+02  0.27804303971E+03  0.00000000000E+00 0.  1.
          4    1    6    6  502    0 -0.21755915047E+02  0.15695046537E+02 -0.27516920294E+02  0.38429613943E+02  0.00000000000E+00 0. -1.
          3    1    5    5  503    0  0.82162868796E+02  0.12687276374E+02  0.24317579916E+01  0.83172215538E+02  0.00000000000E+00 0. -1.
         -4    1    5    5    0  503  0.20613127688E+03 -0.19743600150E+02  0.12697372907E+03  0.24290376887E+03  0.00000000000E+00 0.  1.
         -3    1    6    6    0  502 -0.52840329147E+03  0.25157125721E+03 -0.17817848434E+03  0.61175624898E+03  0.00000000000E+00 0.  1.
<mgrwt>
<rscale>  0 0.13912165E+04</rscale>
<asrwt>0</asrwt>
<pdfrwt beam="1">  1        2 0.11477763E+00 0.13912165E+04</pdfrwt>
<pdfrwt beam="2">  1       -2 0.99780451E-01 0.13912165E+04</pdfrwt>
<totfact> 0.30540711E+01</totfact>
</mgrwt>
</event>
<event>
12    1  0.1980523E-007  0.1142170E+04  0.7818608E-02  0.9165038E-01
         -3   -1    0    0    0  501 -0.00000000000E+00  0.00000000000E+00  0.42761155934E+03  0.42761155934E+03  0.00000000000E+00 0.  1.
          3   -1    0    0  501    0  0.00000000000E+00 -0.00000000000E+00 -0.76269643463E+03  0.76269643463E+03  0.00000000000E+00 0. -1.
         23    2    1    2    0    0 -0.12214728901E+03 -0.33325990517E+02  0.96168238035E+02  0.18350419335E+03  0.91623561993E+02 0.  0.
        254    2    1    2    0    0  0.12214728901E+03  0.33325990517E+02 -0.43125311332E+03  0.10068038006E+04  0.90091290553E+03 0.  0.
        -24    2    4    4    0    0  0.12123684549E+03 -0.38269730098E+03 -0.10382804702E+02  0.40967854924E+03  0.81074744458E+02 0.  0.
         24    2    4    4    0    0  0.91044351958E+00  0.41602329150E+03 -0.42087030862E+03  0.59712525139E+03  0.79690282888E+02 0.  0.
         13    1    3    3    0    0 -0.82925332000E+02 -0.64813324597E+02  0.73260017801E+02  0.12823575141E+03  0.00000000000E+00 0.  1.
        -13    1    3    3    0    0 -0.39221957013E+02  0.31487334080E+02  0.22908220234E+02  0.55268441933E+02  0.00000000000E+00 0. -1.
          2    1    6    6  502    0 -0.17912147625E+02  0.10087514889E+03 -0.14700183245E+03  0.17918197298E+03  0.00000000000E+00 0. -1.
          3    1    5    5  503    0  0.81531544424E+02 -0.14269500871E+03  0.15332788296E+02  0.16505863395E+03  0.00000000000E+00 0. -1.
         -4    1    5    5    0  503  0.39705301069E+02 -0.24000229228E+03 -0.25715592998E+02  0.24461991529E+03  0.00000000000E+00 0.  1.
         -1    1    6    6    0  502  0.18822591145E+02  0.31514814261E+03 -0.27386847617E+03  0.41794327841E+03  0.00000000000E+00 0.  1.
<mgrwt>
<rscale>  0 0.11421695E+04</rscale>
<asrwt>0</asrwt>
<pdfrwt beam="1">  1        3 0.11733791E+00 0.11421695E+04</pdfrwt>
<pdfrwt beam="2">  1       -3 0.65786395E-01 0.11421695E+04</pdfrwt>
<totfact> 0.34655990E+00</totfact>
</mgrwt>
</event>
<event>
12    1  0.1980523E-007  0.1772770E+04  0.7818608E-02  0.8720915E-01
         -2   -1    0    0    0  501 -0.00000000000E+00  0.00000000000E+00  0.61106895042E+03  0.61106895042E+03  0.00000000000E+00 0.  1.
          2   -1    0    0  501    0  0.00000000000E+00 -0.00000000000E+00 -0.12857448528E+04  0.12857448528E+04  0.00000000000E+00 0. -1.
         23    2    1    2    0    0  0.15766522387E+03  0.43269995564E+03 -0.75671243502E+03  0.89052702359E+03  0.91307699587E+02 0.  0.
        254    2    1    2    0    0 -0.15766522387E+03 -0.43269995564E+03  0.82036532620E+02  0.10062867796E+04  0.89095202775E+03 0.  0.
        -24    2    4    4    0    0 -0.38832556855E+03  0.77088198384E+02 -0.91874258814E+02  0.41488483807E+03  0.83361933234E+02 0.  0.
         24    2    4    4    0    0  0.23066034468E+03 -0.50978815403E+03  0.17391079143E+03  0.59140194156E+03  0.80144472764E+02 0.  0.
         13    1    3    3    0    0  0.89323940876E+02  0.32321726212E+03 -0.48398910841E+03  0.58880694799E+03  0.00000000000E+00 0.  1.
        -13    1    3    3    0    0  0.68341282993E+02  0.10948269352E+03 -0.27272332662E+03  0.30172007560E+03  0.00000000000E+00 0. -1.
          4    1    6    6  502    0  0.15052158531E+02 -0.27365368184E+02 -0.85405543080E+01  0.32378571929E+02  0.00000000000E+00 0. -1.
          3    1    5    5  503    0 -0.23859523621E+02 -0.15607141071E+02 -0.59645602262E+01  0.29127919571E+02  0.00000000000E+00 0. -1.
         -4    1    5    5    0  503 -0.36446604493E+03  0.92695339455E+02 -0.85909698588E+02  0.38575691850E+03  0.00000000000E+00 0.  1.
         -3    1    6    6    0  502  0.21560818615E+03 -0.48242278584E+03  0.18245134574E+03  0.55902336964E+03  0.00000000000E+00 0.  1.
<mgrwt>
<rscale>  0 0.17727704E+04</rscale>
<asrwt>0</asrwt>
<pdfrwt beam="1">  1        2 0.19780690E+00 0.17727704E+04</pdfrwt>
<pdfrwt beam="2">  1       -2 0.94010610E-01 0.17727704E+04</pdfrwt>
<totfact> 0.15229804E+01</totfact>
</mgrwt>
</event>
<event>
12    1  0.1980523E-007  0.1790537E+04  0.7818608E-02  0.8711348E-01
          2   -1    0    0  501    0  0.00000000000E+00  0.00000000000E+00  0.16971440322E+04  0.16971440322E+04  0.00000000000E+00 0. -1.
         -2   -1    0    0    0  501 -0.00000000000E+00 -0.00000000000E+00 -0.47226751897E+03  0.47226751897E+03  0.00000000000E+00 0.  1.
         23    2    1    2    0    0 -0.60075067517E+03 -0.27756745125E+03  0.38397600951E+03  0.77071336649E+03  0.92824854977E+02 0.  0.
        254    2    1    2    0    0  0.60075067517E+03  0.27756745125E+03  0.84090050367E+03  0.13986981846E+04  0.90072076189E+03 0.  0.
        -24    2    4    4    0    0  0.44839530277E+03  0.28337071731E+03  0.10180885837E+04  0.11508193875E+04  0.80768727982E+02 0.  0.
         24    2    4    4    0    0  0.15235537240E+03 -0.58032660593E+01 -0.17718808008E+03  0.24787879709E+03  0.82476935725E+02 0.  0.
         13    1    3    3    0    0 -0.40349645571E+03 -0.22035620202E+03  0.23031169990E+03  0.51420786132E+03  0.00000000000E+00 0.  1.
        -13    1    3    3    0    0 -0.19725421947E+03 -0.57211249232E+02  0.15366430961E+03  0.25650550517E+03  0.00000000000E+00 0. -1.
          2    1    6    6  502    0  0.41862263396E+02 -0.24722903477E+02 -0.15303216441E+02  0.50969201351E+02  0.00000000000E+00 0. -1.
          3    1    5    5  503    0  0.81361185104E+01  0.21620636520E+02  0.62256779045E+02  0.66404479405E+02  0.00000000000E+00 0. -1.
         -4    1    5    5    0  503  0.44025918426E+03  0.26175008079E+03  0.95583180470E+03  0.10844149081E+04  0.00000000000E+00 0.  1.
         -1    1    6    6    0  502  0.11049310901E+03  0.18919637418E+02 -0.16188486364E+03  0.19690959573E+03  0.00000000000E+00 0.  1.
<mgrwt>
<rscale>  0 0.17905374E+04</rscale>
<asrwt>0</asrwt>
<pdfrwt beam="1">  1        2 0.26109908E+00 0.17905374E+04</pdfrwt>
<pdfrwt beam="2">  1       -2 0.72656542E-01 0.17905374E+04</pdfrwt>
<totfact> 0.15927844E+01</totfact>
</mgrwt>
</event>
<event>
12    1  0.1980523E-007  0.1934391E+04  0.7818608E-02  0.8637925E-01
          1   -1    0    0  501    0  0.00000000000E+00  0.00000000000E+00  0.10449190921E+04  0.10449190921E+04  0.00000000000E+00 0. -1.
         -1   -1    0    0    0  501 -0.00000000000E+00 -0.00000000000E+00 -0.89525284173E+03  0.89525284173E+03  0.00000000000E+00 0.  1.
         23    2    1    2    0    0 -0.30544553367E+03  0.50815335835E+03 -0.38942533865E+03  0.71500339259E+03  0.89782778887E+02 0.  0.
        254    2    1    2    0    0  0.30544553367E+03 -0.50815335835E+03  0.53909158899E+03  0.12251685412E+04  0.92676933667E+03 0.  0.
        -24    2    4    4    0    0  0.11897727513E+03 -0.29423062277E+03 -0.23105235981E+03  0.40056981109E+03  0.79647531082E+02 0.  0.
         24    2    4    4    0    0  0.18646825855E+03 -0.21392273559E+03  0.77014394880E+03  0.82459873012E+03  0.79423016747E+02 0.  0.
         13    1    3    3    0    0 -0.29441617058E+03  0.50871622820E+03 -0.38688537364E+03  0.70367135416E+03  0.00000000000E+00 0.  1.
        -13    1    3    3    0    0 -0.11029363092E+02 -0.56286984448E+00 -0.25399650118E+01  0.11332038428E+02  0.00000000000E+00 0. -1.
          2    1    6    6  502    0  0.18460056207E+03 -0.18330902798E+03  0.63925043275E+03  0.69015989671E+03  0.00000000000E+00 0. -1.
          3    1    5    5  503    0  0.12319838185E+03 -0.26717538774E+03 -0.22951234237E+03  0.37314399956E+03  0.00000000000E+00 0. -1.
         -4    1    5    5    0  503 -0.42211067224E+01 -0.27055235027E+02 -0.15400174426E+01  0.27425811529E+02  0.00000000000E+00 0.  1.
         -1    1    6    6    0  502  0.18676964754E+01 -0.30613707605E+02  0.13089351605E+03  0.13443883340E+03  0.00000000000E+00 0.  1.
<mgrwt>
<rscale>  0 0.19343906E+04</rscale>
<asrwt>0</asrwt>
<pdfrwt beam="1">  1        1 0.16075678E+00 0.19343906E+04</pdfrwt>
<pdfrwt beam="2">  1       -1 0.13773121E+00 0.19343906E+04</pdfrwt>
<totfact> 0.56988749E+00</totfact>
</mgrwt>
</event>
<event>
12    1  0.1980523E-007  0.1599817E+04  0.7818608E-02  0.8820661E-01
         -1   -1    0    0    0  501 -0.00000000000E+00  0.00000000000E+00  0.40744517277E+03  0.40744517277E+03  0.00000000000E+00 0.  1.
          1   -1    0    0  501    0  0.00000000000E+00 -0.00000000000E+00 -0.15704034828E+04  0.15704034828E+04  0.00000000000E+00 0. -1.
         23    2    1    2    0    0 -0.12625266150E+03  0.52743884813E+03 -0.35704389117E+03  0.65567946386E+03  0.91124892673E+02 0.  0.
        254    2    1    2    0    0  0.12625266150E+03 -0.52743884813E+03 -0.80591441885E+03  0.13221691917E+04  0.89694026997E+03 0.  0.
        -24    2    4    4    0    0 -0.36417180100E+03 -0.11730739446E+03 -0.40470901640E+03  0.56321789021E+03  0.83921859263E+02 0.  0.
         24    2    4    4    0    0  0.49042446250E+03 -0.41013145366E+03 -0.40120540245E+03  0.75895130148E+03  0.79481698310E+02 0.  0.
         11    1    3    3    0    0 -0.11402000357E+03  0.48703857508E+03 -0.35507670328E+03  0.61342204072E+03  0.00000000000E+00 0. -1.
        -11    1    3    3    0    0 -0.12232657934E+02  0.40400273052E+02 -0.19671878836E+01  0.42257423146E+02  0.00000000000E+00 0.  1.
          4    1    6    6  502    0  0.42052257314E+03 -0.31377769950E+03 -0.33855903197E+03  0.62443406165E+03  0.00000000000E+00 0. -1.
          1    1    5    5  503    0 -0.33866284250E+03 -0.82807461024E+02 -0.36509638631E+03  0.50482171882E+03  0.00000000000E+00 0. -1.
         -2    1    5    5    0  503 -0.25508958493E+02 -0.34499933441E+02 -0.39612630087E+02  0.58396171392E+02  0.00000000000E+00 0.  1.
         -3    1    6    6    0  502  0.69901889356E+02 -0.96353754162E+02 -0.62646370488E+02  0.13451723983E+03  0.00000000000E+00 0.  1.
<mgrwt>
<rscale>  0 0.15998166E+04</rscale>
<asrwt>0</asrwt>
<pdfrwt beam="1">  1        1 0.24160053E+00 0.15998166E+04</pdfrwt>
<pdfrwt beam="2">  1       -1 0.62683873E-01 0.15998166E+04</pdfrwt>
<totfact> 0.14484572E+01</totfact>
</mgrwt>
</event>
<event>
12    1  0.1980523E-007  0.1805596E+04  0.7818608E-02  0.8703329E-01
          2   -1    0    0  501    0  0.00000000000E+00  0.00000000000E+00  0.71677379063E+03  0.71677379063E+03  0.00000000000E+00 0. -1.
         -2   -1    0    0    0  501 -0.00000000000E+00 -0.00000000000E+00 -0.11371007476E+04  0.11371007476E+04  0.00000000000E+00 0.  1.
         23    2    1    2    0    0  0.57971815310E+03  0.19319268681E+03 -0.45456897392E+03  0.76689293028E+03  0.89973680581E+02 0.  0.
        254    2    1    2    0    0 -0.57971815310E+03 -0.19319268681E+03  0.34242016909E+02  0.10869816080E+04  0.89830949517E+03 0.  0.
        -24    2    4    4    0    0 -0.30466463498E+03 -0.46416844204E+03  0.27496633093E+03  0.62458278112E+03  0.78894137497E+02 0.  0.
         24    2    4    4    0    0 -0.27505351812E+03  0.27097575523E+03 -0.24072431402E+03  0.46239882686E+03  0.82354003987E+02 0.  0.
         11    1    3    3    0    0  0.26669018294E+03  0.77056496729E+02 -0.26063608050E+03  0.38077883847E+03  0.00000000000E+00 0.  1.
        -11    1    3    3    0    0  0.31302797016E+03  0.11613619008E+03 -0.19393289341E+03  0.38611409181E+03  0.00000000000E+00 0. -1.
          2    1    6    6  502    0 -0.15348831424E+03  0.19244798235E+03 -0.11959800388E+03  0.27367603302E+03  0.00000000000E+00 0. -1.
          1    1    5    5  503    0 -0.90762414473E+02 -0.12793002805E+03  0.39679232391E+02  0.16179724794E+03  0.00000000000E+00 0. -1.
         -2    1    5    5    0  503 -0.21390222051E+03 -0.33623841399E+03  0.23528709854E+03  0.46278553318E+03  0.00000000000E+00 0.  1.
         -1    1    6    6    0  502 -0.12156520387E+03  0.78527772883E+02 -0.12112631014E+03  0.18872279384E+03  0.00000000000E+00 0.  1.
<mgrwt>
<rscale>  0 0.18055958E+04</rscale>
<asrwt>0</asrwt>
<pdfrwt beam="1">  1        2 0.11027289E+00 0.18055958E+04</pdfrwt>
<pdfrwt beam="2">  1       -2 0.17493857E+00 0.18055958E+04</pdfrwt>
<totfact> 0.73733032E+00</totfact>
</mgrwt>
</event>
<event>
12    1  0.1980523E-007  0.1635582E+04  0.7818608E-02  0.8798982E-01
          1   -1    0    0  501    0  0.00000000000E+00  0.00000000000E+00  0.18911248324E+04  0.18911248324E+04  0.00000000000E+00 0. -1.
         -1   -1    0    0    0  501 -0.00000000000E+00 -0.00000000000E+00 -0.35364258805E+03  0.35364258805E+03  0.00000000000E+00 0.  1.
         23    2    1    2    0    0 -0.50793314760E+03  0.55248801085E+02  0.89631341060E+03  0.10354414044E+04  0.87821748558E+02 0.  0.
        254    2    1    2    0    0  0.50793314760E+03 -0.55248801085E+02  0.64116883370E+03  0.12093260160E+04  0.88900136511E+03 0.  0.
        -24    2    4    4    0    0  0.57651379056E+02  0.10463030215E+03  0.70554121510E+03  0.72064244832E+03  0.85240544869E+02 0.  0.
         24    2    4    4    0    0  0.45028176854E+03 -0.15987910323E+03 -0.64372381394E+02  0.48868356766E+03  0.79704623977E+02 0.  0.
         13    1    3    3    0    0 -0.15019269249E+03 -0.23756738749E+02  0.26393122720E+03  0.30460124787E+03  0.00000000000E+00 0.  1.
        -13    1    3    3    0    0 -0.35774045511E+03  0.79005539834E+02  0.63238218341E+03  0.73084015656E+03  0.00000000000E+00 0. -1.
          4    1    6    6  502    0  0.15264299576E+03 -0.17339901142E+02 -0.74861865417E+01  0.15380701972E+03  0.00000000000E+00 0. -1.
          1    1    5    5  503    0 -0.46468965047E+00  0.32960785604E+02  0.40293327947E+03  0.40427942939E+03  0.00000000000E+00 0. -1.
         -2    1    5    5    0  503  0.58116068707E+02  0.71669516542E+02  0.30260793563E+03  0.31636301894E+03  0.00000000000E+00 0.  1.
         -3    1    6    6    0  502  0.29763877278E+03 -0.14253920209E+03 -0.56886194853E+02  0.33487654794E+03  0.00000000000E+00 0.  1.
<mgrwt>
<rscale>  0 0.16355822E+04</rscale>
<asrwt>0</asrwt>
<pdfrwt beam="1">  1        1 0.29094228E+00 0.16355822E+04</pdfrwt>
<pdfrwt beam="2">  1       -1 0.54406553E-01 0.16355822E+04</pdfrwt>
<totfact> 0.11535115E+01</totfact>
</mgrwt>
</event>
<event>
12    1  0.1980523E-007  0.1376158E+04  0.7818608E-02  0.8971260E-01
          1   -1    0    0  501    0  0.00000000000E+00  0.00000000000E+00  0.61329723215E+03  0.61329723215E+03  0.00000000000E+00 0. -1.
         -1   -1    0    0    0  501 -0.00000000000E+00 -0.00000000000E+00 -0.77197949585E+03  0.77197949585E+03  0.00000000000E+00 0.  1.
         23    2    1    2    0    0 -0.15801398980E+03 -0.35100885300E+03 -0.36539483340E+02  0.39777467297E+03  0.93348383786E+02 0.  0.
        254    2    1    2    0    0  0.15801398980E+03  0.35100885300E+03 -0.12214278037E+03  0.98750205503E+03  0.90114694364E+03 0.  0.
        -24    2    4    4    0    0 -0.35565125474E+03  0.24275089754E+03  0.18296170308E+02  0.43846806958E+03  0.80645427239E+02 0.  0.
         24    2    4    4    0    0  0.51366524454E+03  0.10825795547E+03 -0.14043895067E+03  0.54903398545E+03  0.78380162988E+02 0.  0.
         13    1    3    3    0    0 -0.15155097481E+03 -0.26991595968E+03 -0.24254227336E+01  0.30956131207E+03  0.00000000000E+00 0. -1.
        -13    1    3    3    0    0 -0.64630149904E+01 -0.81092893323E+02 -0.34114060607E+02  0.88213360901E+02  0.00000000000E+00 0.  1.
          4    1    6    6  502    0  0.44648053983E+03  0.83164953384E+02 -0.14613084359E+03  0.47709066787E+03  0.00000000000E+00 0. -1.
          1    1    5    5  503    0 -0.23052890955E+03  0.12840943887E+03  0.42400890664E+02  0.26726465845E+03  0.00000000000E+00 0. -1.
         -2    1    5    5    0  503 -0.12512234520E+03  0.11434145867E+03 -0.24104720356E+02  0.17120341112E+03  0.00000000000E+00 0.  1.
         -3    1    6    6    0  502  0.67184704709E+02  0.25093002082E+02  0.56918929206E+01  0.71943317587E+02  0.00000000000E+00 0.  1.
<mgrwt>
<rscale>  0 0.13761583E+04</rscale>
<asrwt>0</asrwt>
<pdfrwt beam="1">  1        1 0.94353420E-01 0.13761583E+04</pdfrwt>
<pdfrwt beam="2">  1       -1 0.11876608E+00 0.13761583E+04</pdfrwt>
<totfact> 0.20584841E+01</totfact>
</mgrwt>
</event>
<event>
12    1  0.1980523E-007  0.2561009E+04  0.7818608E-02  0.8381567E-01
         -2   -1    0    0    0  501 -0.00000000000E+00  0.00000000000E+00  0.49729396334E+03  0.49729396334E+03  0.00000000000E+00 0.  1.
          2   -1    0    0  501    0  0.00000000000E+00 -0.00000000000E+00 -0.32972293250E+04  0.32972293250E+04  0.00000000000E+00 0. -1.
         23    2    1    2    0    0  0.10271169002E+04  0.43963009145E+03 -0.11281846945E+04  0.15904011169E+04  0.91275756045E+02 0.  0.
        254    2    1    2    0    0 -0.10271169002E+04 -0.43963009145E+03 -0.16717506672E+04  0.22041221715E+04  0.90286239788E+03 0.  0.
        -24    2    4    4    0    0 -0.11231396897E+04 -0.25245395631E+03 -0.11212564314E+04  0.16090407304E+04  0.81365377830E+02 0.  0.
         24    2    4    4    0    0  0.96022789442E+02 -0.18717613514E+03 -0.55049423582E+03  0.59508144105E+03  0.82599855658E+02 0.  0.
         13    1    3    3    0    0  0.24184372261E+03  0.65522057839E+02 -0.27383996069E+03  0.37117361207E+03  0.00000000000E+00 0.  1.
        -13    1    3    3    0    0  0.78527317762E+03  0.37410803361E+03 -0.85434473383E+03  0.12192275048E+04  0.00000000000E+00 0. -1.
          4    1    6    6  502    0  0.98906940009E+02 -0.10687029628E+03 -0.34995976199E+03  0.37904574661E+03  0.00000000000E+00 0. -1.
          1    1    5    5  503    0 -0.78733386704E+03 -0.21466987429E+03 -0.78718159681E+03  0.11338574158E+04  0.00000000000E+00 0. -1.
         -2    1    5    5    0  503 -0.33580582264E+03 -0.37784082017E+02 -0.33407483457E+03  0.47518331459E+03  0.00000000000E+00 0.  1.
         -3    1    6    6    0  502 -0.28841505667E+01 -0.80305838868E+02 -0.20053447383E+03  0.21603569445E+03  0.00000000000E+00 0.  1.
<mgrwt>
<rscale>  0 0.25610094E+04</rscale>
<asrwt>0</asrwt>
<pdfrwt beam="1">  1        2 0.50726609E+00 0.25610094E+04</pdfrwt>
<pdfrwt beam="2">  1       -2 0.76506758E-01 0.25610094E+04</pdfrwt>
<totfact> 0.15171875E+00</totfact>
</mgrwt>
</event>
<event>
12    1  0.1980523E-007  0.1657453E+04  0.7818608E-02  0.8786009E-01
         -2   -1    0    0    0  501 -0.00000000000E+00  0.00000000000E+00  0.57103582088E+03  0.57103582088E+03  0.00000000000E+00 0. -1.
          2   -1    0    0  501    0  0.00000000000E+00 -0.00000000000E+00 -0.12027050801E+04  0.12027050801E+04  0.00000000000E+00 0.  1.
         23    2    1    2    0    0 -0.19866174970E+03  0.48892335757E+03  0.30752920854E+02  0.53709092965E+03  0.94912508174E+02 0.  0.
        254    2    1    2    0    0  0.19866174970E+03 -0.48892335757E+03 -0.66242218012E+03  0.12366499714E+04  0.90110347164E+03 0.  0.
        -24    2    4    4    0    0  0.49276377986E+03 -0.43325813710E+03 -0.22052396797E+03  0.69704395232E+03  0.81918831253E+02 0.  0.
         24    2    4    4    0    0 -0.29410203016E+03 -0.55665220463E+02 -0.44189821215E+03  0.53960601905E+03  0.79410358120E+02 0.  0.
         11    1    3    3    0    0 -0.56092827057E+02  0.24467783348E+03  0.39667166957E+02  0.25413998422E+03  0.00000000000E+00 0. -1.
        -11    1    3    3    0    0 -0.14256892264E+03  0.24424552408E+03 -0.89142461031E+01  0.28295094543E+03  0.00000000000E+00 0.  1.
          2    1    6    6  502    0 -0.75044971860E+02  0.16408025782E+02 -0.83833001667E+02  0.11370551121E+03  0.00000000000E+00 0. -1.
          1    1    5    5  503    0  0.69024937930E+02 -0.29742575087E+02 -0.37225455881E+02  0.83873699063E+02  0.00000000000E+00 0. -1.
         -2    1    5    5    0  503  0.42373884193E+03 -0.40351556202E+03 -0.18329851209E+03  0.61317025326E+03  0.00000000000E+00 0.  1.
         -1    1    6    6    0  502 -0.21905705830E+03 -0.72073246246E+02 -0.35806521048E+03  0.42590050783E+03  0.00000000000E+00 0.  1.
<mgrwt>
<rscale>  0 0.16574531E+04</rscale>
<asrwt>0</asrwt>
<pdfrwt beam="1">  1        2 0.18503155E+00 0.16574531E+04</pdfrwt>
<pdfrwt beam="2">  1       -2 0.87851666E-01 0.16574531E+04</pdfrwt>
<totfact> 0.20131650E+01</totfact>
</mgrwt>
</event>
<event>
12    1  0.1980523E-007  0.1346102E+04  0.7818608E-02  0.8993784E-01
         -2   -1    0    0    0  501 -0.00000000000E+00  0.00000000000E+00  0.43958985903E+03  0.43958985903E+03  0.00000000000E+00 0.  1.
          2   -1    0    0  501    0  0.00000000000E+00 -0.00000000000E+00 -0.10305006189E+04  0.10305006189E+04  0.00000000000E+00 0. -1.
         23    2    1    2    0    0 -0.28405504447E+03  0.16407904322E+03  0.36898364276E+01  0.34243171899E+03  0.98166524661E+02 0.  0.
        254    2    1    2    0    0  0.28405504447E+03 -0.16407904322E+03 -0.59460059625E+03  0.11276587589E+04  0.90025285711E+03 0.  0.
        -24    2    4    4    0    0 -0.11963244831E+03  0.24880697922E+03 -0.43874151807E+03  0.52443928308E+03  0.79533680667E+02 0.  0.
         24    2    4    4    0    0  0.40368749278E+03 -0.41288602244E+03 -0.15585907818E+03  0.60321947581E+03  0.78378724106E+02 0.  0.
         13    1    3    3    0    0 -0.61521168006E+02 -0.45877553940E+01  0.12995718423E+02  0.63045938090E+02  0.00000000000E+00 0.  1.
        -13    1    3    3    0    0 -0.22253387646E+03  0.16866679861E+03 -0.93058819950E+01  0.27938578090E+03  0.00000000000E+00 0. -1.
          4    1    6    6  502    0  0.13923686017E+03 -0.11856671298E+03 -0.16095921453E+02  0.18358662082E+03  0.00000000000E+00 0. -1.
          1    1    5    5  503    0 -0.54077535673E+02  0.10973253548E+03 -0.26844169108E+03  0.29500262832E+03  0.00000000000E+00 0. -1.
         -2    1    5    5    0  503 -0.65554912636E+02  0.13907444375E+03 -0.17029982699E+03  0.22943665476E+03  0.00000000000E+00 0.  1.
         -3    1    6    6    0  502  0.26445063261E+03 -0.29431930946E+03 -0.13976315673E+03  0.41963285499E+03  0.00000000000E+00 0.  1.
<mgrwt>
<rscale>  0 0.13461020E+04</rscale>
<asrwt>0</asrwt>
<pdfrwt beam="1">  1        2 0.15853856E+00 0.13461020E+04</pdfrwt>
<pdfrwt beam="2">  1       -2 0.67629209E-01 0.13461020E+04</pdfrwt>
<totfact> 0.47158789E+01</totfact>
</mgrwt>
</event>
<event>
12    1  0.1980523E-007  0.2569330E+04  0.7818608E-02  0.8378694E-01
          1   -1    0    0  501    0  0.00000000000E+00  0.00000000000E+00  0.22065793244E+04  0.22065793244E+04  0.00000000000E+00 0. -1.
         -1   -1    0    0    0  501 -0.00000000000E+00 -0.00000000000E+00 -0.74792849430E+03  0.74792849430E+03  0.00000000000E+00 0.  1.
         23    2    1    2    0    0 -0.28032309368E+03 -0.75485655452E+03 -0.26334918651E+03  0.85213740859E+03  0.91629222023E+02 0.  0.
        254    2    1    2    0    0  0.28032309368E+03  0.75485655452E+03  0.17220000166E+04  0.21023704101E+04  0.89793531464E+03 0.  0.
        -24    2    4    4    0    0 -0.21925582559E+03 -0.21560647459E+02  0.61667277647E+03  0.65992198867E+03  0.81692957546E+02 0.  0.
         24    2    4    4    0    0  0.49957891927E+03  0.77641720198E+03  0.11053272401E+04  0.14424484214E+04  0.80662088769E+02 0.  0.
         13    1    3    3    0    0 -0.13231376810E+03 -0.37812026383E+03 -0.83496833542E+02  0.40921093382E+03  0.00000000000E+00 0. -1.
        -13    1    3    3    0    0 -0.14800932558E+03 -0.37673629070E+03 -0.17985235297E+03  0.44292647478E+03  0.00000000000E+00 0.  1.
          4    1    6    6  502    0  0.51916470538E+02  0.11112301569E+03  0.11452343360E+03  0.16780721490E+03  0.00000000000E+00 0. -1.
          1    1    5    5  503    0 -0.35724085942E+02 -0.32930252870E+02  0.17194967059E+03  0.17868212301E+03  0.00000000000E+00 0. -1.
         -2    1    5    5    0  503 -0.18353173965E+03  0.11369605412E+02  0.44472310589E+03  0.48123986566E+03  0.00000000000E+00 0.  1.
         -3    1    6    6    0  502  0.44766244873E+03  0.66529418630E+03  0.99080380649E+03  0.12746412065E+04  0.00000000000E+00 0.  1.
<mgrwt>
<rscale>  0 0.25693295E+04</rscale>
<asrwt>0</asrwt>
<pdfrwt beam="1">  1        1 0.33947374E+00 0.25693295E+04</pdfrwt>
<pdfrwt beam="2">  1       -1 0.11506592E+00 0.25693295E+04</pdfrwt>
<totfact> 0.13047870E+00</totfact>
</mgrwt>
</event>
<event>
12    1  0.1980523E-007  0.1986746E+04  0.7818608E-02  0.8612842E-01
          1   -1    0    0  501    0  0.00000000000E+00  0.00000000000E+00  0.12971720783E+04  0.12971720783E+04  0.00000000000E+00 0. -1.
         -1   -1    0    0    0  501 -0.00000000000E+00 -0.00000000000E+00 -0.76072406636E+03  0.76072406636E+03  0.00000000000E+00 0.  1.
         23    2    1    2    0    0 -0.74602430775E+03 -0.24438093111E+03  0.38835300636E+03  0.88057263366E+03  0.91190999405E+02 0.  0.
        254    2    1    2    0    0  0.74602430775E+03  0.24438093111E+03  0.14809500556E+03  0.11773235110E+04  0.86480299003E+03 0.  0.
        -24    2    4    4    0    0  0.20471092551E+03  0.52591422613E+02 -0.34760295181E+03  0.41441174683E+03  0.78973812414E+02 0.  0.
         24    2    4    4    0    0  0.54131338224E+03  0.19178950849E+03  0.49569795738E+03  0.76291176414E+03  0.80712462222E+02 0.  0.
         11    1    3    3    0    0 -0.54852752236E+03 -0.20711116219E+03  0.25502057463E+03  0.63938483699E+03  0.00000000000E+00 0.  1.
        -11    1    3    3    0    0 -0.19749678539E+03 -0.37269768917E+02  0.13333243173E+03  0.24118779667E+03  0.00000000000E+00 0. -1.
          2    1    6    6  502    0  0.13992689195E+03  0.16753731541E+02  0.10089741527E+03  0.17332198654E+03  0.00000000000E+00 0. -1.
          1    1    5    5  503    0  0.20848418511E+03  0.57179776065E+02 -0.34644136571E+03  0.40835866846E+03  0.00000000000E+00 0. -1.
         -2    1    5    5    0  503 -0.37732596060E+01 -0.45883534513E+01 -0.11615861021E+01  0.60530783673E+01  0.00000000000E+00 0.  1.
         -1    1    6    6    0  502  0.40138649029E+03  0.17503577695E+03  0.39480054210E+03  0.58958977760E+03  0.00000000000E+00 0.  1.
<mgrwt>
<rscale>  0 0.19867461E+04</rscale>
<asrwt>0</asrwt>
<pdfrwt beam="1">  1        1 0.19956493E+00 0.19867461E+04</pdfrwt>
<pdfrwt beam="2">  1       -1 0.11703447E+00 0.19867461E+04</pdfrwt>
<totfact> 0.55538329E+00</totfact>
</mgrwt>
</event>
<event>
12    1  0.1980523E-007  0.1550628E+04  0.7818608E-02  0.8851467E-01
          2   -1    0    0  501    0  0.00000000000E+00  0.00000000000E+00  0.16284265658E+04  0.16284265658E+04  0.00000000000E+00 0. -1.
         -2   -1    0    0    0  501 -0.00000000000E+00 -0.00000000000E+00 -0.36913649630E+03  0.36913649630E+03  0.00000000000E+00 0.  1.
         23    2    1    2    0    0 -0.26619398259E+02  0.50417730616E+03  0.39377037189E+03  0.64665591422E+03  0.90583757973E+02 0.  0.
        254    2    1    2    0    0  0.26619398259E+02 -0.50417730616E+03  0.86551969759E+03  0.13509071479E+04  0.90604769565E+03 0.  0.
        -24    2    4    4    0    0  0.32983275767E+03  0.62387537447E+02  0.49923161209E+03  0.60689917432E+03  0.80078414234E+02 0.  0.
         24    2    4    4    0    0 -0.30321335941E+03 -0.56656484361E+03  0.36628808551E+03  0.74400797353E+03  0.80292214829E+02 0.  0.
         11    1    3    3    0    0 -0.47547681308E+02  0.45963642679E+03  0.33952822119E+03  0.57341593963E+03  0.00000000000E+00 0. -1.
        -11    1    3    3    0    0  0.20928283049E+02  0.44540879366E+02  0.54242150697E+02  0.73239974592E+02  0.00000000000E+00 0.  1.
          4    1    6    6  502    0 -0.12793723422E+03 -0.17500984485E+03  0.97007459364E+02  0.23750121866E+03  0.00000000000E+00 0. -1.
          1    1    5    5  503    0  0.30061069759E+03  0.32085711305E+02  0.45002186921E+03  0.54214017296E+03  0.00000000000E+00 0. -1.
         -2    1    5    5    0  503  0.29222060079E+02  0.30301826142E+02  0.49209742878E+02  0.64759001359E+02  0.00000000000E+00 0.  1.
         -3    1    6    6    0  502 -0.17527612519E+03 -0.39155499876E+03  0.26928062614E+03  0.50650675487E+03  0.00000000000E+00 0.  1.
<mgrwt>
<rscale>  0 0.15506278E+04</rscale>
<asrwt>0</asrwt>
<pdfrwt beam="1">  1        2 0.25052716E+00 0.15506278E+04</pdfrwt>
<pdfrwt beam="2">  1       -2 0.56790231E-01 0.15506278E+04</pdfrwt>
<totfact> 0.30086118E+01</totfact>
</mgrwt>
</event>
<event>
12    1  0.1980523E-007  0.2571713E+04  0.7818608E-02  0.8377874E-01
         -2   -1    0    0    0  501 -0.00000000000E+00  0.00000000000E+00  0.74084257260E+03  0.74084257260E+03  0.00000000000E+00 0.  1.
          2   -1    0    0  501    0  0.00000000000E+00 -0.00000000000E+00 -0.22318198496E+04  0.22318198496E+04  0.00000000000E+00 0. -1.
         23    2    1    2    0    0  0.43462819540E+03  0.95625727747E+03 -0.11249748615E+04  0.15418095727E+04  0.90987200213E+02 0.  0.
        254    2    1    2    0    0 -0.43462819540E+03 -0.95625727747E+03 -0.36600241548E+03  0.14308528494E+04  0.90002914379E+03 0.  0.
        -24    2    4    4    0    0  0.20937487258E+02 -0.91481521513E+03 -0.26298507429E+03  0.95535095236E+03  0.78797440679E+02 0.  0.
         24    2    4    4    0    0 -0.45556568266E+03 -0.41442062332E+02 -0.10301734119E+03  0.47550189709E+03  0.78942674131E+02 0.  0.
         11    1    3    3    0    0  0.29215252107E+03  0.71373932868E+03 -0.86370740464E+03  0.11579151116E+04  0.00000000000E+00 0.  1.
        -11    1    3    3    0    0  0.14247567433E+03  0.24251794878E+03 -0.26126745685E+03  0.38389446110E+03  0.00000000000E+00 0. -1.
          2    1    6    6  502    0 -0.44122711317E+03 -0.54726763427E+02 -0.10011903816E+03  0.45574138043E+03  0.00000000000E+00 0. -1.
          3    1    5    5  503    0  0.41730256432E+02 -0.28050798500E+03 -0.90414484283E+02  0.29765907162E+03  0.00000000000E+00 0. -1.
         -4    1    5    5    0  503 -0.20792769173E+02 -0.63430723013E+03 -0.17257059000E+03  0.65769188073E+03  0.00000000000E+00 0.  1.
         -1    1    6    6    0  502 -0.14338569490E+02  0.13284701095E+02 -0.28983030362E+01  0.19760516660E+02  0.00000000000E+00 0.  1.
<mgrwt>
<rscale>  0 0.25717132E+04</rscale>
<asrwt>0</asrwt>
<pdfrwt beam="1">  1        2 0.34335690E+00 0.25717132E+04</pdfrwt>
<pdfrwt beam="2">  1       -2 0.11397578E+00 0.25717132E+04</pdfrwt>
<totfact> 0.26473055E+00</totfact>
</mgrwt>
</event>
<event>
12    1  0.1980523E-007  0.1464663E+04  0.7818608E-02  0.8908298E-01
         -3   -1    0    0    0  501 -0.00000000000E+00  0.00000000000E+00  0.35736642065E+03  0.35736642065E+03  0.00000000000E+00 0.  1.
          3   -1    0    0  501    0  0.00000000000E+00 -0.00000000000E+00 -0.15007270364E+04  0.15007270364E+04  0.00000000000E+00 0. -1.
         23    2    1    2    0    0 -0.71502792945E+02 -0.37125862906E+03 -0.49488760642E+02  0.39228146533E+03  0.92141150186E+02 0.  0.
        254    2    1    2    0    0  0.71502792945E+02  0.37125862906E+03 -0.10938718551E+04  0.14658119917E+04  0.89950182914E+03 0.  0.
        -24    2    4    4    0    0  0.72518900095E+02 -0.57532282307E+02  0.12410746291E+03  0.17210718616E+03  0.75161604561E+02 0.  0.
         24    2    4    4    0    0 -0.10161071500E+01  0.42879091137E+03 -0.12179793180E+04  0.12937048056E+04  0.79597906048E+02 0.  0.
         11    1    3    3    0    0 -0.28273600516E+02 -0.21848390726E+03 -0.72326403615E+02  0.23187436874E+03  0.00000000000E+00 0. -1.
        -11    1    3    3    0    0 -0.43229192428E+02 -0.15277472180E+03  0.22837642973E+02  0.16040709658E+03  0.00000000000E+00 0.  1.
          4    1    6    6  502    0 -0.37625993528E+02  0.15594582738E+03 -0.42179945655E+03  0.45127552339E+03  0.00000000000E+00 0. -1.
          3    1    5    5  503    0  0.50594665795E+02 -0.43153901312E+02  0.27423606529E+02  0.71931450704E+02  0.00000000000E+00 0. -1.
         -4    1    5    5    0  503  0.21924234299E+02 -0.14378380996E+02  0.96683856383E+02  0.10017573546E+03  0.00000000000E+00 0.  1.
         -3    1    6    6    0  502  0.36609886378E+02  0.27284508399E+03 -0.79617986149E+03  0.84242928218E+03  0.00000000000E+00 0.  1.
<mgrwt>
<rscale>  0 0.14646630E+04</rscale>
<asrwt>0</asrwt>
<pdfrwt beam="1">  1        3 0.23088108E+00 0.14646630E+04</pdfrwt>
<pdfrwt beam="2">  1       -3 0.54979449E-01 0.14646630E+04</pdfrwt>
<totfact> 0.79159384E-01</totfact>
</mgrwt>
</event>
<event>
12    1  0.1980523E-007  0.1087293E+04  0.7818608E-02  0.9217666E-01
          2   -1    0    0  501    0  0.00000000000E+00  0.00000000000E+00  0.20207368255E+04  0.20207368255E+04  0.00000000000E+00 0. -1.
         -2   -1    0    0    0  501 -0.00000000000E+00 -0.00000000000E+00 -0.14625939398E+03  0.14625939398E+03  0.00000000000E+00 0.  1.
         23    2    1    2    0    0 -0.10670149442E+02  0.13810540259E+03  0.19085099124E+03  0.25241737902E+03  0.90019320488E+02 0.  0.
        254    2    1    2    0    0  0.10670149442E+02 -0.13810540259E+03  0.16836264403E+04  0.19145788404E+04  0.90101453462E+03 0.  0.
        -24    2    4    4    0    0 -0.11116294844E+03 -0.21074740829E+03  0.30410762685E+02  0.25309365276E+03  0.79749052467E+02 0.  0.
         24    2    4    4    0    0  0.12183309789E+03  0.72642005705E+02  0.16532156776E+04  0.16614851877E+04  0.85386108840E+02 0.  0.
         11    1    3    3    0    0  0.18597325242E+00  0.11215236064E+03  0.79254854875E+02  0.13732996252E+03  0.00000000000E+00 0.  1.
        -11    1    3    3    0    0 -0.10856122694E+02  0.25953041948E+02  0.11159613636E+03  0.11508741650E+03  0.00000000000E+00 0. -1.
          2    1    6    6  502    0  0.45992152102E+02 -0.13477045070E+02  0.35754271215E+03  0.36074048818E+03  0.00000000000E+00 0. -1.
          3    1    5    5  503    0 -0.42187107639E+02 -0.94615477347E+02 -0.25853983250E+02  0.10677204248E+03  0.00000000000E+00 0. -1.
         -4    1    5    5    0  503 -0.68975840804E+02 -0.11613193095E+03  0.56264745935E+02  0.14632161028E+03  0.00000000000E+00 0.  1.
         -1    1    6    6    0  502  0.75840945783E+02  0.86119050775E+02  0.12956729654E+04  0.13007446995E+04  0.00000000000E+00 0.  1.
<mgrwt>
<rscale>  0 0.10872934E+04</rscale>
<asrwt>0</asrwt>
<pdfrwt beam="1">  1        2 0.31088257E+00 0.10872934E+04</pdfrwt>
<pdfrwt beam="2">  1       -2 0.22501447E-01 0.10872934E+04</pdfrwt>
<totfact> 0.11239752E+02</totfact>
</mgrwt>
</event>
<event>
12    1  0.1980523E-007  0.1551563E+04  0.7818608E-02  0.8850870E-01
          1   -1    0    0  501    0  0.00000000000E+00  0.00000000000E+00  0.18404786717E+04  0.18404786717E+04  0.00000000000E+00 0. -1.
         -1   -1    0    0    0  501 -0.00000000000E+00 -0.00000000000E+00 -0.32700040636E+03  0.32700040636E+03  0.00000000000E+00 0.  1.
         23    2    1    2    0    0  0.15671231870E+03 -0.29275897567E+03 -0.33416891082E+02  0.34595949411E+03  0.91130205147E+02 0.  0.
        254    2    1    2    0    0 -0.15671231870E+03  0.29275897567E+03  0.15468951564E+04  0.18215195839E+04  0.90265297932E+03 0.  0.
        -24    2    4    4    0    0 -0.31039202109E+03 -0.16827717515E+03  0.10948325987E+04  0.11530124610E+04  0.78223408498E+02 0.  0.
         24    2    4    4    0    0  0.15367970239E+03  0.46103615082E+03  0.45206255772E+03  0.66850712293E+03  0.79808734074E+02 0.  0.
         13    1    3    3    0    0  0.53296111009E+02 -0.92421024155E+02  0.31685193704E+02  0.11129273406E+03  0.00000000000E+00 0. -1.
        -13    1    3    3    0    0  0.10341620769E+03 -0.20033795152E+03 -0.65102084787E+02  0.23466676005E+03  0.00000000000E+00 0.  1.
          4    1    6    6  502    0  0.19408808376E+02  0.12376822437E+02  0.31861275649E+02  0.39306850067E+02  0.00000000000E+00 0. -1.
          3    1    5    5  503    0 -0.23475102998E+03 -0.88542889741E+02  0.72428665537E+03  0.76651095788E+03  0.00000000000E+00 0. -1.
         -4    1    5    5    0  503 -0.75640991113E+02 -0.79734285405E+02  0.37054594333E+03  0.38650150314E+03  0.00000000000E+00 0.  1.
         -3    1    6    6    0  502  0.13427089402E+03  0.44865932838E+03  0.42020128207E+03  0.62920027287E+03  0.00000000000E+00 0.  1.
<mgrwt>
<rscale>  0 0.15515634E+04</rscale>
<asrwt>0</asrwt>
<pdfrwt beam="1">  1        1 0.28315056E+00 0.15515634E+04</pdfrwt>
<pdfrwt beam="2">  1       -1 0.50307756E-01 0.15515634E+04</pdfrwt>
<totfact> 0.14616806E+01</totfact>
</mgrwt>
</event>
<event>
12    1  0.1980523E-007  0.2495709E+04  0.7818608E-02  0.8404516E-01
         -1   -1    0    0    0  501 -0.00000000000E+00  0.00000000000E+00  0.71776812381E+03  0.71776812381E+03  0.00000000000E+00 0.  1.
          1   -1    0    0  501    0  0.00000000000E+00 -0.00000000000E+00 -0.21694199361E+04  0.21694199361E+04  0.00000000000E+00 0. -1.
         23    2    1    2    0    0  0.33063166767E+03  0.93984951676E+03 -0.14263239952E+03  0.10105498988E+04  0.90734132078E+02 0.  0.
        254    2    1    2    0    0 -0.33063166767E+03 -0.93984951676E+03 -0.13090194127E+04  0.18766381611E+04  0.90310827197E+03 0.  0.
        -24    2    4    4    0    0 -0.59208072908E+03 -0.38782716041E+03 -0.84740433622E+03  0.11069310301E+04  0.78947452610E+02 0.  0.
         24    2    4    4    0    0  0.26144906141E+03 -0.55202235635E+03 -0.46161507651E+03  0.76970713097E+03  0.79223071007E+02 0.  0.
         11    1    3    3    0    0  0.47618790212E+02  0.18133348357E+03 -0.59509222174E+02  0.19669959067E+03  0.00000000000E+00 0. -1.
        -11    1    3    3    0    0  0.28301287745E+03  0.75851603319E+03 -0.83123177342E+02  0.81385030812E+03  0.00000000000E+00 0.  1.
          2    1    6    6  502    0  0.20273320902E+03 -0.42986835524E+03 -0.31578590814E+03  0.57062097460E+03  0.00000000000E+00 0. -1.
          1    1    5    5  503    0 -0.55419428605E+03 -0.34567174008E+03 -0.80190329914E+03  0.10342481132E+04  0.00000000000E+00 0. -1.
         -2    1    5    5    0  503 -0.37886443035E+02 -0.42155420323E+02 -0.45501037081E+02  0.72682916865E+02  0.00000000000E+00 0.  1.
         -1    1    6    6    0  502  0.58715852398E+02 -0.12215400111E+03 -0.14582916837E+03  0.19908615637E+03  0.00000000000E+00 0.  1.
<mgrwt>
<rscale>  0 0.24957087E+04</rscale>
<asrwt>0</asrwt>
<pdfrwt beam="1">  1        1 0.33375690E+00 0.24957087E+04</pdfrwt>
<pdfrwt beam="2">  1       -1 0.11042587E+00 0.24957087E+04</pdfrwt>
<totfact> 0.15357772E+00</totfact>
</mgrwt>
</event>
<event>
12    1  0.1980523E-007  0.1423510E+04  0.7818608E-02  0.8936974E-01
         -1   -1    0    0    0  501 -0.00000000000E+00  0.00000000000E+00  0.23145393995E+03  0.23145393995E+03  0.00000000000E+00 0.  1.
          1   -1    0    0  501    0  0.00000000000E+00 -0.00000000000E+00 -0.21887526591E+04  0.21887526591E+04  0.00000000000E+00 0. -1.
         23    2    1    2    0    0  0.14983227245E+03  0.38751698367E+03 -0.50913262458E+03  0.66599383300E+03  0.10822492169E+03 0.  0.
        254    2    1    2    0    0 -0.14983227245E+03 -0.38751698367E+03 -0.14481660946E+04  0.17542127661E+04  0.89858681752E+03 0.  0.
        -24    2    4    4    0    0  0.60901320598E+02 -0.62814353620E+03 -0.11237099265E+04  0.12910916658E+04  0.76944250363E+02 0.  0.
         24    2    4    4    0    0 -0.21073359305E+03  0.24062655253E+03 -0.32445616809E+03  0.46312110027E+03  0.83063611072E+02 0.  0.
         13    1    3    3    0    0  0.71398748912E+02  0.97716648870E+02 -0.20877991841E+03  0.24132007613E+03  0.00000000000E+00 0. -1.
        -13    1    3    3    0    0  0.78433523535E+02  0.28980033480E+03 -0.30035270617E+03  0.42467375687E+03  0.00000000000E+00 0.  1.
          2    1    6    6  502    0 -0.15203292328E+03  0.21963330418E+03 -0.24826863924E+03  0.36467809819E+03  0.00000000000E+00 0. -1.
          1    1    5    5  503    0  0.43684254846E+02 -0.57507025721E+03 -0.10571901676E+04  0.12042695567E+04  0.00000000000E+00 0. -1.
         -2    1    5    5    0  503  0.17217065752E+02 -0.53073278995E+02 -0.66519758925E+02  0.86822109073E+02  0.00000000000E+00 0.  1.
         -1    1    6    6    0  502 -0.58700669762E+02  0.20993248345E+02 -0.76187528842E+02  0.98443002076E+02  0.00000000000E+00 0.  1.
<mgrwt>
<rscale>  0 0.14235103E+04</rscale>
<asrwt>0</asrwt>
<pdfrwt beam="1">  1        1 0.33673117E+00 0.14235103E+04</pdfrwt>
<pdfrwt beam="2">  1       -1 0.35608299E-01 0.14235103E+04</pdfrwt>
<totfact> 0.16261336E+01</totfact>
</mgrwt>
</event>
<event>
12    1  0.1980523E-007  0.2073111E+04  0.7818608E-02  0.8573182E-01
          1   -1    0    0  501    0  0.00000000000E+00  0.00000000000E+00  0.12348200061E+04  0.12348200061E+04  0.00000000000E+00 0. -1.
         -1   -1    0    0    0  501 -0.00000000000E+00 -0.00000000000E+00 -0.87012458672E+03  0.87012458672E+03  0.00000000000E+00 0.  1.
         23    2    1    2    0    0 -0.79541719795E+02 -0.12770331876E+03  0.98547640549E+03  0.10011258375E+04  0.91946582287E+02 0.  0.
        254    2    1    2    0    0  0.79541719795E+02  0.12770331876E+03 -0.62078098607E+03  0.11038187553E+04  0.90022874267E+03 0.  0.
        -24    2    4    4    0    0 -0.11938296642E+03 -0.23974208589E+03 -0.61810165737E+03  0.67825081170E+03  0.79031286902E+02 0.  0.
         24    2    4    4    0    0  0.19892468622E+03  0.36744540465E+03 -0.26793287040E+01  0.42556794363E+03  0.80707742233E+02 0.  0.
         11    1    3    3    0    0 -0.16476519445E+02 -0.10882319049E+03  0.64975769466E+03  0.65901367532E+03  0.00000000000E+00 0.  1.
        -11    1    3    3    0    0 -0.63065200349E+02 -0.18880128272E+02  0.33571871083E+03  0.34211216222E+03  0.00000000000E+00 0. -1.
          2    1    6    6  502    0  0.46885385692E+02  0.15276059888E+03  0.22183632232E+02  0.16132623314E+03  0.00000000000E+00 0. -1.
          1    1    5    5  503    0 -0.10527472643E+02 -0.10646977576E+03 -0.22549584369E+03  0.24958969601E+03  0.00000000000E+00 0. -1.
         -2    1    5    5    0  503 -0.10885549378E+03 -0.13327231013E+03 -0.39260581368E+03  0.42866111569E+03  0.00000000000E+00 0.  1.
         -1    1    6    6    0  502  0.15203930052E+03  0.21468480577E+03 -0.24862960936E+02  0.26424171048E+03  0.00000000000E+00 0.  1.
<mgrwt>
<rscale>  0 0.20731109E+04</rscale>
<asrwt>0</asrwt>
<pdfrwt beam="1">  1        1 0.18997231E+00 0.20731109E+04</pdfrwt>
<pdfrwt beam="2">  1       -1 0.13386532E+00 0.20731109E+04</pdfrwt>
<totfact> 0.43737688E+00</totfact>
</mgrwt>
</event>
<event>
12    1  0.1980523E-007  0.3347589E+04  0.7818608E-02  0.8150891E-01
          1   -1    0    0  501    0  0.00000000000E+00  0.00000000000E+00  0.21862544438E+04  0.21862544438E+04  0.00000000000E+00 0. -1.
         -1   -1    0    0    0  501 -0.00000000000E+00 -0.00000000000E+00 -0.12814559667E+04  0.12814559667E+04  0.00000000000E+00 0.  1.
         23    2    1    2    0    0 -0.38431308273E+03 -0.12849597287E+04 -0.38755979596E+03  0.13989978203E+04  0.90411591771E+02 0.  0.
        254    2    1    2    0    0  0.38431308273E+03  0.12849597287E+04  0.12923582731E+04  0.20687125902E+04  0.90031318165E+03 0.  0.
        -24    2    4    4    0    0  0.25024274215E+03  0.10263674890E+04  0.13931884855E+04  0.17502567090E+04  0.79829435865E+02 0.  0.
         24    2    4    4    0    0  0.13407034058E+03  0.25859223970E+03 -0.10083021243E+03  0.31845588122E+03  0.80016335150E+02 0.  0.
         13    1    3    3    0    0 -0.16857689638E+02 -0.14201168279E+03 -0.27757300158E+02  0.14567761483E+03  0.00000000000E+00 0. -1.
        -13    1    3    3    0    0 -0.36745539309E+03 -0.11429480459E+04 -0.35980249580E+03  0.12533202055E+04  0.00000000000E+00 0.  1.
          4    1    6    6  502    0  0.13243652505E+03  0.25765072129E+03 -0.84150257833E+02  0.30166967571E+03  0.00000000000E+00 0. -1.
          3    1    5    5  503    0  0.23710171875E+03  0.86267238882E+03  0.11559820894E+04  0.14617508223E+04  0.00000000000E+00 0. -1.
         -4    1    5    5    0  503  0.13141023408E+02  0.16369510014E+03  0.23720639608E+03  0.28850588668E+03  0.00000000000E+00 0.  1.
         -1    1    6    6    0  502  0.16338155231E+01  0.94151840414E+00 -0.16679954593E+02  0.16786205506E+02  0.00000000000E+00 0.  1.
<mgrwt>
<rscale>  0 0.33475895E+04</rscale>
<asrwt>0</asrwt>
<pdfrwt beam="1">  1        1 0.33634684E+00 0.33475895E+04</pdfrwt>
<pdfrwt beam="2">  1       -1 0.19714707E+00 0.33475895E+04</pdfrwt>
<totfact> 0.28972565E-01</totfact>
</mgrwt>
</event>
<event>
12    1  0.1980523E-007  0.2111110E+04  0.7818608E-02  0.8556365E-01
          2   -1    0    0  501    0  0.00000000000E+00  0.00000000000E+00  0.21121939243E+04  0.21121939243E+04  0.00000000000E+00 0.  1.
         -2   -1    0    0    0  501 -0.00000000000E+00 -0.00000000000E+00 -0.52750683834E+03  0.52750683834E+03  0.00000000000E+00 0. -1.
         23    2    1    2    0    0  0.60361739343E+03 -0.25503182708E+03  0.13465939065E+04  0.15004468845E+04  0.92900559609E+02 0.  0.
        254    2    1    2    0    0 -0.60361739343E+03  0.25503182708E+03  0.23809317949E+03  0.11392538781E+04  0.90100823865E+03 0.  0.
        -24    2    4    4    0    0 -0.67007458270E+03 -0.14676288148E+03  0.21293912674E+03  0.72247602505E+03  0.78033616597E+02 0.  0.
         24    2    4    4    0    0  0.66457189271E+02  0.40179470856E+03  0.25154052757E+02  0.41677785302E+03  0.84944137916E+02 0.  0.
         13    1    3    3    0    0  0.29632571411E+03 -0.16034768183E+03  0.76433349138E+03  0.83529994251E+03  0.00000000000E+00 0.  1.
        -13    1    3    3    0    0  0.30729167932E+03 -0.94684145245E+02  0.58226041508E+03  0.66514694204E+03  0.00000000000E+00 0. -1.
          4    1    6    6  502    0  0.47185043738E+02  0.12131505892E+03 -0.21069185204E+02  0.13186236172E+03  0.00000000000E+00 0. -1.
          3    1    5    5  503    0 -0.30387393733E+03 -0.54379183843E+02  0.13456652202E+03  0.33675601594E+03  0.00000000000E+00 0. -1.
         -4    1    5    5    0  503 -0.36620064536E+03 -0.92383697641E+02  0.78372604714E+02  0.38572000911E+03  0.00000000000E+00 0.  1.
         -3    1    6    6    0  502  0.19272145533E+02  0.28047964964E+03  0.46223237961E+02  0.28491549130E+03  0.00000000000E+00 0.  1.
<mgrwt>
<rscale>  0 0.21111104E+04</rscale>
<asrwt>0</asrwt>
<pdfrwt beam="1">  1        2 0.32495291E+00 0.21111104E+04</pdfrwt>
<pdfrwt beam="2">  1       -2 0.81154899E-01 0.21111104E+04</pdfrwt>
<totfact> 0.71269212E+00</totfact>
</mgrwt>
</event>
<event>
12    1  0.1980523E-007  0.2018721E+04  0.7818608E-02  0.8597918E-01
         -1   -1    0    0    0  501 -0.00000000000E+00  0.00000000000E+00  0.23495024825E+04  0.23495024825E+04  0.00000000000E+00 0.  1.
          1   -1    0    0  501    0  0.00000000000E+00 -0.00000000000E+00 -0.43362744062E+03  0.43362744062E+03  0.00000000000E+00 0. -1.
         23    2    1    2    0    0 -0.62462184215E+03 -0.36543812748E+03  0.28606626103E+03  0.78358951239E+03  0.92093145870E+02 0.  0.
        254    2    1    2    0    0  0.62462184215E+03  0.36543812748E+03  0.16298087808E+04  0.19995404107E+04  0.90453729679E+03 0.  0.
        -24    2    4    4    0    0  0.11320584687E+03  0.35024069828E+03  0.13690488033E+04  0.14198883863E+04  0.79399578473E+02 0.  0.
         24    2    4    4    0    0  0.51141599528E+03  0.15197429206E+02  0.26075997746E+03  0.57965202441E+03  0.78888665047E+02 0.  0.
         11    1    3    3    0    0 -0.14610256566E+03 -0.13049689992E+03  0.63780589911E+02  0.20601787358E+03  0.00000000000E+00 0.  1.
        -11    1    3    3    0    0 -0.47851927649E+03 -0.23494122756E+03  0.22228567112E+03  0.57757163881E+03  0.00000000000E+00 0. -1.
          4    1    6    6  502    0  0.40761396768E+03 -0.17884675304E+02  0.21819717602E+03  0.46268673623E+03  0.00000000000E+00 0. -1.
          1    1    5    5  503    0  0.64294945954E+02  0.25930401657E+03  0.10925397134E+04  0.11247290511E+04  0.00000000000E+00 0. -1.
         -2    1    5    5    0  503  0.48910900919E+02  0.90936681705E+02  0.27650908992E+03  0.29515933514E+03  0.00000000000E+00 0.  1.
         -3    1    6    6    0  502  0.10380202759E+03  0.33082104510E+02  0.42562801445E+02  0.11696528818E+03  0.00000000000E+00 0.  1.
<mgrwt>
<rscale>  0 0.20187211E+04</rscale>
<asrwt>0</asrwt>
<pdfrwt beam="1">  1        1 0.66711915E-01 0.20187211E+04</pdfrwt>
<pdfrwt beam="2">  1       -1 0.36146191E+00 0.20187211E+04</pdfrwt>
<totfact> 0.65098760E-01</totfact>
</mgrwt>
</event>
<event>
12    1  0.1980523E-007  0.2174464E+04  0.7818608E-02  0.8529132E-01
         -2   -1    0    0    0  501 -0.00000000000E+00  0.00000000000E+00  0.90434665107E+03  0.90434665107E+03  0.00000000000E+00 0.  1.
          2   -1    0    0  501    0  0.00000000000E+00 -0.00000000000E+00 -0.13071026809E+04  0.13071026809E+04  0.00000000000E+00 0. -1.
         23    2    1    2    0    0  0.94458660837E+02  0.83193719316E+03  0.16297499209E+03  0.85813733603E+03  0.93791830498E+02 0.  0.
        254    2    1    2    0    0 -0.94458660837E+02 -0.83193719316E+03 -0.56573102196E+03  0.13533119960E+04  0.90019988740E+03 0.  0.
        -24    2    4    4    0    0 -0.34653604225E+03 -0.10192661238E+03 -0.42428486144E+03  0.56299810302E+03  0.80454692031E+02 0.  0.
         24    2    4    4    0    0  0.25207738141E+03 -0.73001058078E+03 -0.14144616052E+03  0.79031389296E+03  0.90169722181E+02 0.  0.
         13    1    3    3    0    0  0.92916082575E+02  0.40624300965E+03  0.86853096742E+02  0.42568796284E+03  0.00000000000E+00 0. -1.
        -13    1    3    3    0    0  0.15425782625E+01  0.42569418351E+03  0.76121895350E+02  0.43244937319E+03  0.00000000000E+00 0.  1.
          2    1    6    6  502    0 -0.47623707926E+01 -0.48707402234E+02 -0.15928485703E+02  0.51466570361E+02  0.00000000000E+00 0. -1.
          1    1    5    5  503    0 -0.17590715822E+03 -0.84528336336E+02 -0.18763498911E+03  0.27073096811E+03  0.00000000000E+00 0. -1.
         -2    1    5    5    0  503 -0.17062888403E+03 -0.17398276044E+02 -0.23664987233E+03  0.29226713491E+03  0.00000000000E+00 0.  1.
         -1    1    6    6    0  502  0.25683975220E+03 -0.68130317855E+03 -0.12551767482E+03  0.73884732259E+03  0.00000000000E+00 0.  1.
<mgrwt>
<rscale>  0 0.21744645E+04</rscale>
<asrwt>0</asrwt>
<pdfrwt beam="1">  1        2 0.20109272E+00 0.21744645E+04</pdfrwt>
<pdfrwt beam="2">  1       -2 0.13913026E+00 0.21744645E+04</pdfrwt>
<totfact> 0.54756054E+00</totfact>
</mgrwt>
</event>
<event>
12    1  0.1980523E-007  0.3628047E+04  0.7818608E-02  0.8084097E-01
          2   -1    0    0  501    0  0.00000000000E+00  0.00000000000E+00  0.35240378979E+04  0.35240378979E+04  0.00000000000E+00 0. -1.
         -2   -1    0    0    0  501 -0.00000000000E+00 -0.00000000000E+00 -0.93378152241E+03  0.93378152241E+03  0.00000000000E+00 0.  1.
         23    2    1    2    0    0  0.16891566681E+04  0.19432946810E+03  0.11468255026E+04  0.20529226143E+04  0.90930385920E+02 0.  0.
        254    2    1    2    0    0 -0.16891566681E+04 -0.19432946810E+03  0.14434308728E+04  0.24048968060E+04  0.89945637541E+03 0.  0.
        -24    2    4    4    0    0 -0.31427028183E+03  0.23421131597E+03  0.63668646426E+03  0.75188943326E+03  0.79670041460E+02 0.  0.
         24    2    4    4    0    0 -0.13748863863E+04 -0.42854078407E+03  0.80674440859E+03  0.16530073728E+04  0.87390244214E+02 0.  0.
         13    1    3    3    0    0  0.44919256887E+03  0.39498442712E+02  0.25864156216E+03  0.51983607857E+03  0.00000000000E+00 0.  1.
        -13    1    3    3    0    0  0.12399640993E+04  0.15483102539E+03  0.88818394044E+03  0.15330865357E+04  0.00000000000E+00 0. -1.
          4    1    6    6  502    0 -0.13021306552E+04 -0.41618137934E+03  0.78350457049E+03  0.15756365684E+04  0.00000000000E+00 0. -1.
          3    1    5    5  503    0 -0.30030498326E+03  0.23803645795E+03  0.59463113095E+03  0.70741121011E+03  0.00000000000E+00 0. -1.
         -4    1    5    5    0  503 -0.13965298571E+02 -0.38251419847E+01  0.42055333302E+02  0.44478223149E+02  0.00000000000E+00 0.  1.
         -3    1    6    6    0  502 -0.72755731056E+02 -0.12359404733E+02  0.23239838100E+02  0.77370804324E+02  0.00000000000E+00 0.  1.
<mgrwt>
<rscale>  0 0.36280471E+04</rscale>
<asrwt>0</asrwt>
<pdfrwt beam="1">  1        2 0.54215967E+00 0.36280471E+04</pdfrwt>
<pdfrwt beam="2">  1       -2 0.14365870E+00 0.36280471E+04</pdfrwt>
<totfact> 0.21312852E-01</totfact>
</mgrwt>
</event>
<event>
12    1  0.1980523E-007  0.2026909E+04  0.7818608E-02  0.8594142E-01
          1   -1    0    0  501    0  0.00000000000E+00  0.00000000000E+00  0.81836031842E+03  0.81836031842E+03  0.00000000000E+00 0. -1.
         -1   -1    0    0    0  501 -0.00000000000E+00 -0.00000000000E+00 -0.12550580893E+04  0.12550580893E+04  0.00000000000E+00 0.  1.
         23    2    1    2    0    0 -0.36708169942E+03  0.18188654003E+03 -0.89149178504E+03  0.98442287105E+03  0.80616987972E+02 0.  0.
        254    2    1    2    0    0  0.36708169942E+03 -0.18188654003E+03  0.45479401416E+03  0.10889955367E+04  0.90068973353E+03 0.  0.
        -24    2    4    4    0    0  0.52140787751E+03 -0.36085607850E+03  0.52826829242E+03  0.82931955347E+03  0.81364911812E+02 0.  0.
         24    2    4    4    0    0 -0.15432617809E+03  0.17896953846E+03 -0.73474278266E+02  0.25967598320E+03  0.78654190894E+02 0.  0.
         13    1    3    3    0    0 -0.36002478615E+02 -0.65072960388E+01 -0.75700189974E+02  0.84077595888E+02  0.00000000000E+00 0. -1.
        -13    1    3    3    0    0 -0.33107922081E+03  0.18839383607E+03 -0.81579159507E+03  0.90034527516E+03  0.00000000000E+00 0.  1.
          2    1    6    6  502    0 -0.45331613674E+02  0.10681613085E+03 -0.52220013583E+02  0.12724610338E+03  0.00000000000E+00 0. -1.
          1    1    5    5  503    0  0.80589955009E+02 -0.81706686531E+02  0.12640758041E+03  0.17073253896E+03  0.00000000000E+00 0. -1.
         -2    1    5    5    0  503  0.44081792250E+03 -0.27914939197E+03  0.40186071201E+03  0.65858701452E+03  0.00000000000E+00 0.  1.
         -1    1    6    6    0  502 -0.10899456441E+03  0.72153407615E+02 -0.21254264684E+02  0.13242987982E+03  0.00000000000E+00 0.  1.
<mgrwt>
<rscale>  0 0.20269087E+04</rscale>
<asrwt>0</asrwt>
<pdfrwt beam="1">  1        1 0.12590159E+00 0.20269087E+04</pdfrwt>
<pdfrwt beam="2">  1       -1 0.19308586E+00 0.20269087E+04</pdfrwt>
<totfact> 0.33157878E+00</totfact>
</mgrwt>
</event>
<event>
12    1  0.1980523E-007  0.1509660E+04  0.7818608E-02  0.8878054E-01
          1   -1    0    0  501    0  0.00000000000E+00  0.00000000000E+00  0.61087612064E+03  0.61087612064E+03  0.00000000000E+00 0. -1.
         -1   -1    0    0    0  501 -0.00000000000E+00 -0.00000000000E+00 -0.93270694693E+03  0.93270694693E+03  0.00000000000E+00 0.  1.
         23    2    1    2    0    0 -0.44856133602E+03 -0.36378721124E+02 -0.27320443598E+03  0.53427021720E+03  0.90957779336E+02 0.  0.
        254    2    1    2    0    0  0.44856133602E+03  0.36378721124E+02 -0.48626390300E+02  0.10093128504E+04  0.90211818547E+03 0.  0.
        -24    2    4    4    0    0  0.26536542509E+02  0.40066515456E+03  0.11133746648E+03  0.42400924646E+03  0.78428664874E+02 0.  0.
         24    2    4    4    0    0  0.42202479351E+03 -0.36428643343E+03 -0.15996385678E+03  0.58530360391E+03  0.78627866254E+02 0.  0.
         11    1    3    3    0    0 -0.29374069714E+03  0.25836780755E+01 -0.13575178804E+03  0.32360287468E+03  0.00000000000E+00 0.  1.
        -11    1    3    3    0    0 -0.15482063888E+03 -0.38962399200E+02 -0.13745264795E+03  0.21066734252E+03  0.00000000000E+00 0. -1.
          2    1    6    6  502    0  0.25436898361E+03 -0.24437404386E+03 -0.13494032766E+03  0.37766538783E+03  0.00000000000E+00 0. -1.
          3    1    5    5  503    0  0.44038678817E+02  0.33790687813E+03  0.11247298058E+03  0.35884625522E+03  0.00000000000E+00 0. -1.
         -4    1    5    5    0  503 -0.17502136307E+02  0.62758276425E+02 -0.11355141053E+01  0.65162991240E+02  0.00000000000E+00 0.  1.
         -1    1    6    6    0  502  0.16765580990E+03 -0.11991238957E+03 -0.25023529116E+02  0.20763821608E+03  0.00000000000E+00 0.  1.
<mgrwt>
<rscale>  0 0.15096601E+04</rscale>
<asrwt>0</asrwt>
<pdfrwt beam="1">  1        1 0.93980941E-01 0.15096601E+04</pdfrwt>
<pdfrwt beam="2">  1       -1 0.14349338E+00 0.15096601E+04</pdfrwt>
<totfact> 0.12670833E+01</totfact>
</mgrwt>
</event>
<event>
12    1  0.1980523E-007  0.1830807E+04  0.7818608E-02  0.8690086E-01
         -2   -1    0    0    0  501 -0.00000000000E+00  0.00000000000E+00  0.43502626503E+03  0.43502626503E+03  0.00000000000E+00 0. -1.
          2   -1    0    0  501    0  0.00000000000E+00 -0.00000000000E+00 -0.19262365342E+04  0.19262365342E+04  0.00000000000E+00 0.  1.
         23    2    1    2    0    0 -0.15022618045E+03  0.35801136440E+02 -0.14345472621E+04  0.14457430661E+04  0.91638088010E+02 0.  0.
        254    2    1    2    0    0  0.15022618045E+03 -0.35801136440E+02 -0.56663007067E+02  0.91551973318E+03  0.90061981924E+03 0.  0.
        -24    2    4    4    0    0  0.46790721020E+02  0.40002715610E+03  0.11962899957E+03  0.42754530444E+03  0.79200963477E+02 0.  0.
         24    2    4    4    0    0  0.10343545943E+03 -0.43582829254E+03 -0.17629200664E+03  0.48797442875E+03  0.79968597963E+02 0.  0.
         13    1    3    3    0    0 -0.11901466223E+03 -0.11954788358E+02 -0.84161550250E+03  0.85007297384E+03  0.00000000000E+00 0.  1.
        -13    1    3    3    0    0 -0.31211518222E+02  0.47755924798E+02 -0.59293175962E+03  0.59567009224E+03  0.00000000000E+00 0. -1.
          2    1    6    6  502    0 -0.72696156924E+01 -0.25659494635E+02  0.30162158834E+01  0.26839421296E+02  0.00000000000E+00 0. -1.
          3    1    5    5  503    0  0.13531380935E+02  0.98956730922E+02 -0.50078319515E+01  0.10000305618E+03  0.00000000000E+00 0. -1.
         -4    1    5    5    0  503  0.33259340085E+02  0.30107042518E+03  0.12463683152E+03  0.32754224825E+03  0.00000000000E+00 0.  1.
         -1    1    6    6    0  502  0.11070507512E+03 -0.41016879791E+03 -0.17930822252E+03  0.46113500745E+03  0.00000000000E+00 0.  1.
<mgrwt>
<rscale>  0 0.18308069E+04</rscale>
<asrwt>0</asrwt>
<pdfrwt beam="1">  1        2 0.29634409E+00 0.18308069E+04</pdfrwt>
<pdfrwt beam="2">  1       -2 0.66927116E-01 0.18308069E+04</pdfrwt>
<totfact> 0.14172807E+01</totfact>
</mgrwt>
</event>
<event>
12    1  0.1980523E-007  0.1851391E+04  0.7818608E-02  0.8679438E-01
          2   -1    0    0  501    0  0.00000000000E+00  0.00000000000E+00  0.13130850093E+04  0.13130850093E+04  0.00000000000E+00 0. -1.
         -2   -1    0    0    0  501 -0.00000000000E+00 -0.00000000000E+00 -0.65259475322E+03  0.65259475322E+03  0.00000000000E+00 0.  1.
         23    2    1    2    0    0 -0.55650600987E+03 -0.39988657575E+03  0.83090649920E+02  0.69621606667E+03  0.90578931828E+02 0.  0.
        254    2    1    2    0    0  0.55650600987E+03  0.39988657575E+03  0.57739960614E+03  0.12694636958E+04  0.89918827694E+03 0.  0.
        -24    2    4    4    0    0  0.64340532375E+03  0.31521173505E+03  0.75233422342E+03  0.10423042056E+04  0.84038234081E+02 0.  0.
         24    2    4    4    0    0 -0.86899313878E+02  0.84674840702E+02 -0.17493461729E+03  0.22715949021E+03  0.79233794972E+02 0.  0.
         13    1    3    3    0    0 -0.31717184190E+03 -0.27703683045E+03  0.69748856777E+02  0.42686331037E+03  0.00000000000E+00 0.  1.
        -13    1    3    3    0    0 -0.23933416797E+03 -0.12284974530E+03  0.13341793143E+02  0.26935275629E+03  0.00000000000E+00 0. -1.
          4    1    6    6  502    0  0.37387629042E+01  0.31768002581E+02 -0.13746308872E+02  0.34815877752E+02  0.00000000000E+00 0. -1.
          1    1    5    5  503    0  0.10437675963E+03  0.85139550419E+02  0.12429595977E+03  0.18328321421E+03  0.00000000000E+00 0. -1.
         -2    1    5    5    0  503  0.53902856412E+03  0.23007218463E+03  0.62803826365E+03  0.85902099141E+03  0.00000000000E+00 0.  1.
         -3    1    6    6    0  502 -0.90638076782E+02  0.52906838121E+02 -0.16118830842E+03  0.19234361246E+03  0.00000000000E+00 0.  1.
<mgrwt>
<rscale>  0 0.18513912E+04</rscale>
<asrwt>0</asrwt>
<pdfrwt beam="1">  1        2 0.20201308E+00 0.18513912E+04</pdfrwt>
<pdfrwt beam="2">  1       -2 0.10039919E+00 0.18513912E+04</pdfrwt>
<totfact> 0.12498083E+01</totfact>
</mgrwt>
</event>
<event>
12    1  0.1980523E-007  0.1464220E+04  0.7818608E-02  0.8908601E-01
          3   -1    0    0  501    0  0.00000000000E+00  0.00000000000E+00  0.42123727570E+03  0.42123727570E+03  0.00000000000E+00 0. -1.
         -3   -1    0    0    0  501 -0.00000000000E+00 -0.00000000000E+00 -0.12724067588E+04  0.12724067588E+04  0.00000000000E+00 0.  1.
         23    2    1    2    0    0 -0.50138857569E+02 -0.27822581094E+03 -0.66672117368E+03  0.73005652648E+03  0.92422408087E+02 0.  0.
        254    2    1    2    0    0  0.50138857569E+02  0.27822581094E+03 -0.18444830946E+03  0.96358750805E+03  0.90252767265E+03 0.  0.
        -24    2    4    4    0    0  0.39343926358E+03  0.26825243130E+03  0.11749586821E+03  0.49817388942E+03  0.87281865452E+02 0.  0.
         24    2    4    4    0    0 -0.34330040601E+03  0.99733796432E+01 -0.30194417767E+03  0.46541361863E+03  0.86515391171E+02 0.  0.
         11    1    3    3    0    0  0.12346544510E+02 -0.53589036685E+02 -0.21230602628E+03  0.21931272377E+03  0.00000000000E+00 0.  1.
        -11    1    3    3    0    0 -0.62485402079E+02 -0.22463677425E+03 -0.45441514740E+03  0.51074380271E+03  0.00000000000E+00 0. -1.
          2    1    6    6  502    0 -0.88041245495E+02  0.35800966401E+02 -0.57717419585E+02  0.11119474190E+03  0.00000000000E+00 0. -1.
          3    1    5    5  503    0 -0.36250318837E+01  0.28459424721E+01 -0.31378591225E+01  0.55755183244E+01  0.00000000000E+00 0. -1.
         -4    1    5    5    0  503  0.39706429546E+03  0.26540648882E+03  0.12063372733E+03  0.49259837110E+03  0.00000000000E+00 0.  1.
         -1    1    6    6    0  502 -0.25525916051E+03 -0.25827586757E+02 -0.24422675808E+03  0.35421887672E+03  0.00000000000E+00 0.  1.
<mgrwt>
<rscale>  0 0.14642201E+04</rscale>
<asrwt>0</asrwt>
<pdfrwt beam="1">  1        3 0.64805736E-01 0.14642201E+04</pdfrwt>
<pdfrwt beam="2">  1       -3 0.19575488E+00 0.14642201E+04</pdfrwt>
<totfact> 0.91184555E-01</totfact>
</mgrwt>
</event>
<event>
12    1  0.1980523E-007  0.2088163E+04  0.7818608E-02  0.8566476E-01
         -1   -1    0    0    0  501 -0.00000000000E+00  0.00000000000E+00  0.55824238803E+03  0.55824238803E+03  0.00000000000E+00 0.  1.
          1   -1    0    0  501    0  0.00000000000E+00 -0.00000000000E+00 -0.19527476976E+04  0.19527476976E+04  0.00000000000E+00 0. -1.
         23    2    1    2    0    0 -0.80766880199E+03  0.24541357002E+03 -0.47222913179E+03  0.97138927990E+03  0.89666415782E+02 0.  0.
        254    2    1    2    0    0  0.80766880199E+03 -0.24541357002E+03 -0.92227617777E+03  0.15396008057E+04  0.89845455026E+03 0.  0.
        -24    2    4    4    0    0  0.25600324285E+03  0.35895269391E+02  0.14200809429E+03  0.30579179382E+03  0.80722931129E+02 0.  0.
         24    2    4    4    0    0  0.55166555914E+03 -0.28130883942E+03 -0.10642842721E+04  0.12338090119E+04  0.78192799256E+02 0.  0.
         11    1    3    3    0    0 -0.31802148555E+03  0.11828665713E+03 -0.14561805899E+03  0.36923436681E+03  0.00000000000E+00 0.  1.
        -11    1    3    3    0    0 -0.48964731644E+03  0.12712691289E+03 -0.32661107280E+03  0.60215491308E+03  0.00000000000E+00 0. -1.
          2    1    6    6  502    0  0.94191670781E+02 -0.16667072446E+02 -0.16512303858E+03  0.19082840465E+03  0.00000000000E+00 0. -1.
          3    1    5    5  503    0  0.97119463307E+02 -0.10764738305E+02  0.19084885370E+02  0.99560547374E+02  0.00000000000E+00 0. -1.
         -4    1    5    5    0  503  0.15888377954E+03  0.46660007697E+02  0.12292320892E+03  0.20623124645E+03  0.00000000000E+00 0.  1.
         -1    1    6    6    0  502  0.45747388836E+03 -0.26464176697E+03 -0.89916123348E+03  0.10429806073E+04  0.00000000000E+00 0.  1.
<mgrwt>
<rscale>  0 0.20881633E+04</rscale>
<asrwt>0</asrwt>
<pdfrwt beam="1">  1        1 0.30042272E+00 0.20881633E+04</pdfrwt>
<pdfrwt beam="2">  1       -1 0.85883446E-01 0.20881633E+04</pdfrwt>
<totfact> 0.39534699E+00</totfact>
</mgrwt>
</event>
<event>
12    1  0.1980523E-007  0.1779398E+04  0.7818608E-02  0.8717333E-01
          2   -1    0    0  501    0  0.00000000000E+00  0.00000000000E+00  0.21606821370E+04  0.21606821370E+04  0.00000000000E+00 0.  1.
         -2   -1    0    0    0  501 -0.00000000000E+00 -0.00000000000E+00 -0.36634911356E+03  0.36634911356E+03  0.00000000000E+00 0. -1.
         23    2    1    2    0    0  0.52400961841E+03  0.39549233645E+03  0.59644406450E+03  0.89166327912E+03  0.91200947853E+02 0.  0.
        254    2    1    2    0    0 -0.52400961841E+03 -0.39549233645E+03  0.11978889589E+04  0.16353679714E+04  0.89916081746E+03 0.  0.
        -24    2    4    4    0    0 -0.37946635006E+03 -0.68057059608E+03  0.87657689970E+03  0.11755950537E+04  0.80409092898E+02 0.  0.
         24    2    4    4    0    0 -0.14454326835E+03  0.28507825964E+03  0.32131205924E+03  0.45977291769E+03  0.77377812580E+02 0.  0.
         11    1    3    3    0    0  0.40058833536E+03  0.27093543816E+03  0.47860916642E+03  0.68039970625E+03  0.00000000000E+00 0.  1.
        -11    1    3    3    0    0  0.12342128305E+03  0.12455689828E+03  0.11783489807E+03  0.21126357287E+03  0.00000000000E+00 0. -1.
          2    1    6    6  502    0 -0.76572649241E+02  0.11562849740E+03  0.18841742362E+03  0.23395393894E+03  0.00000000000E+00 0. -1.
          3    1    5    5  503    0 -0.23926178879E+03 -0.41725756895E+03  0.48193925366E+03  0.68089318298E+03  0.00000000000E+00 0. -1.
         -4    1    5    5    0  503 -0.14020456127E+03 -0.26331302714E+03  0.39463764604E+03  0.49470187076E+03  0.00000000000E+00 0.  1.
         -1    1    6    6    0  502 -0.67970619110E+02  0.16944976224E+03  0.13289463562E+03  0.22581897875E+03  0.00000000000E+00 0.  1.
<mgrwt>
<rscale>  0 0.17793976E+04</rscale>
<asrwt>0</asrwt>
<pdfrwt beam="1">  1        2 0.33241263E+00 0.17793976E+04</pdfrwt>
<pdfrwt beam="2">  1       -2 0.56361403E-01 0.17793976E+04</pdfrwt>
<totfact> 0.15183037E+01</totfact>
</mgrwt>
</event>
<event>
12    1  0.1980523E-007  0.2717536E+04  0.7818608E-02  0.8329338E-01
          1   -1    0    0  501    0  0.00000000000E+00  0.00000000000E+00  0.18012683918E+04  0.18012683918E+04  0.00000000000E+00 0. -1.
         -1   -1    0    0    0  501 -0.00000000000E+00 -0.00000000000E+00 -0.10249721979E+04  0.10249721979E+04  0.00000000000E+00 0.  1.
         23    2    1    2    0    0  0.11505246710E+04  0.91000671852E+02  0.71738423220E+03  0.13623295656E+04  0.96506827668E+02 0.  0.
        254    2    1    2    0    0 -0.11505246710E+04 -0.91000671852E+02  0.58911961633E+02  0.14639110241E+04  0.89865272854E+03 0.  0.
        -24    2    4    4    0    0 -0.12296052550E+04 -0.21268474415E+03 -0.68323529949E+02  0.12523510268E+04  0.80938903671E+02 0.  0.
         24    2    4    4    0    0  0.79080583996E+02  0.12168407229E+03  0.12723549158E+03  0.21155999732E+03  0.86648773404E+02 0.  0.
         11    1    3    3    0    0  0.52962207867E+03  0.69755619042E+02  0.28557322352E+03  0.60573712004E+03  0.00000000000E+00 0.  1.
        -11    1    3    3    0    0  0.62090259233E+03  0.21245052810E+02  0.43181100868E+03  0.75659244554E+03  0.00000000000E+00 0. -1.
          2    1    6    6  502    0  0.90801410585E+02  0.89438127244E+02  0.12276249723E+03  0.17695961544E+03  0.00000000000E+00 0. -1.
          3    1    5    5  503    0 -0.11204631641E+04 -0.19590544439E+03 -0.85188558252E+02  0.11406461922E+04  0.00000000000E+00 0. -1.
         -4    1    5    5    0  503 -0.10914209088E+03 -0.16779299753E+02  0.16865028302E+02  0.11170483464E+03  0.00000000000E+00 0.  1.
         -1    1    6    6    0  502 -0.11720826589E+02  0.32245945049E+02  0.44729943535E+01  0.34600381884E+02  0.00000000000E+00 0.  1.
<mgrwt>
<rscale>  0 0.27175357E+04</rscale>
<asrwt>0</asrwt>
<pdfrwt beam="1">  1        1 0.27711821E+00 0.27175357E+04</pdfrwt>
<pdfrwt beam="2">  1       -1 0.15768803E+00 0.27175357E+04</pdfrwt>
<totfact> 0.10787818E+00</totfact>
</mgrwt>
</event>
<event>
12    1  0.1980523E-007  0.3686018E+04  0.7818608E-02  0.8071067E-01
          2   -1    0    0  501    0  0.00000000000E+00  0.00000000000E+00  0.37408663118E+04  0.37408663118E+04  0.00000000000E+00 0. -1.
         -2   -1    0    0    0  501 -0.00000000000E+00 -0.00000000000E+00 -0.90799352901E+03  0.90799352901E+03  0.00000000000E+00 0.  1.
         23    2    1    2    0    0 -0.74351155885E+03 -0.15631119055E+04  0.13833744487E+04  0.22178596987E+04  0.95123659405E+02 0.  0.
        254    2    1    2    0    0  0.74351155885E+03  0.15631119055E+04  0.14494983340E+04  0.24310001421E+04  0.90143663299E+03 0.  0.
        -24    2    4    4    0    0  0.49754473628E+03  0.15306283689E+04  0.95860354125E+03  0.18751200772E+04  0.82344316463E+02 0.  0.
         24    2    4    4    0    0  0.24596682257E+03  0.32483536544E+02  0.49089479276E+03  0.55588006482E+03  0.80436875618E+02 0.  0.
         13    1    3    3    0    0 -0.30090591369E+03 -0.57550383911E+03  0.56904281167E+03  0.86345744495E+03  0.00000000000E+00 0. -1.
        -13    1    3    3    0    0 -0.44260564516E+03 -0.98760806635E+03  0.81433163706E+03  0.13544022538E+04  0.00000000000E+00 0.  1.
          2    1    6    6  502    0  0.15888513008E+03  0.50943175369E+02  0.36872820692E+03  0.40472235206E+03  0.00000000000E+00 0. -1.
          1    1    5    5  503    0  0.26575421655E+03  0.94479317750E+03  0.57427875927E+03  0.11371260023E+04  0.00000000000E+00 0. -1.
         -2    1    5    5    0  503  0.23179051973E+03  0.58583519142E+03  0.38432478199E+03  0.73799407490E+03  0.00000000000E+00 0.  1.
         -1    1    6    6    0  502  0.87081692496E+02 -0.18459638826E+02  0.12216658583E+03  0.15115771276E+03  0.00000000000E+00 0.  1.
<mgrwt>
<rscale>  0 0.36860181E+04</rscale>
<asrwt>0</asrwt>
<pdfrwt beam="1">  1        2 0.57551789E+00 0.36860181E+04</pdfrwt>
<pdfrwt beam="2">  1       -2 0.13969131E+00 0.36860181E+04</pdfrwt>
<totfact> 0.15874067E-01</totfact>
</mgrwt>
</event>
<event>
12    1  0.1980523E-007  0.3840248E+04  0.7818608E-02  0.8037572E-01
          2   -1    0    0  501    0  0.00000000000E+00  0.00000000000E+00  0.15484921835E+04  0.15484921835E+04  0.00000000000E+00 0. -1.
         -2   -1    0    0    0  501 -0.00000000000E+00 -0.00000000000E+00 -0.23809463194E+04  0.23809463194E+04  0.00000000000E+00 0.  1.
         23    2    1    2    0    0  0.14860768590E+04  0.85224571642E+03  0.21486599955E+03  0.17289291225E+04  0.91001761891E+02 0.  0.
        254    2    1    2    0    0 -0.14860768590E+04 -0.85224571642E+03 -0.10473201354E+04  0.22005093804E+04  0.90034153234E+03 0.  0.
        -24    2    4    4    0    0 -0.88467419954E+03 -0.16877849531E+02 -0.35034608629E+03  0.95483408162E+03  0.77668797550E+02 0.  0.
         24    2    4    4    0    0 -0.60140265949E+03 -0.83536786689E+03 -0.69697404915E+03  0.12456752987E+04  0.80059308199E+02 0.  0.
         13    1    3    3    0    0  0.12348148755E+04  0.74278943669E+03  0.16598301270E+03  0.14505358612E+04  0.00000000000E+00 0.  1.
        -13    1    3    3    0    0  0.25126198349E+03  0.10945627973E+03  0.48882986858E+02  0.27839326128E+03  0.00000000000E+00 0. -1.
          4    1    6    6  502    0 -0.26981545759E+02 -0.60459755767E+02 -0.28440473321E+02  0.72057243923E+02  0.00000000000E+00 0. -1.
          1    1    5    5  503    0 -0.28978563756E+03 -0.34412871980E+02 -0.13941284637E+03  0.32341289898E+03  0.00000000000E+00 0. -1.
         -2    1    5    5    0  503 -0.59488856198E+03  0.17535022449E+02 -0.21093323993E+03  0.63142118264E+03  0.00000000000E+00 0.  1.
         -3    1    6    6    0  502 -0.57442111373E+03 -0.77490811112E+03 -0.66853357583E+03  0.11736180548E+04  0.00000000000E+00 0.  1.
<mgrwt>
<rscale>  0 0.38402483E+04</rscale>
<asrwt>0</asrwt>
<pdfrwt beam="1">  1        2 0.23822957E+00 0.38402483E+04</pdfrwt>
<pdfrwt beam="2">  1       -2 0.36629943E+00 0.38402483E+04</pdfrwt>
<totfact> 0.11673397E-01</totfact>
</mgrwt>
</event>
<event>
12    1  0.1980523E-007  0.1801044E+04  0.7818608E-02  0.8705745E-01
         -2   -1    0    0    0  501 -0.00000000000E+00  0.00000000000E+00  0.28959844153E+03  0.28959844153E+03  0.00000000000E+00 0.  1.
          2   -1    0    0  501    0  0.00000000000E+00 -0.00000000000E+00 -0.28002202905E+04  0.28002202905E+04  0.00000000000E+00 0. -1.
         23    2    1    2    0    0  0.40724532407E+03  0.50964977402E+03 -0.67037803847E+03  0.93998769979E+03  0.92620273984E+02 0.  0.
        254    2    1    2    0    0 -0.40724532407E+03 -0.50964977402E+03 -0.18402438105E+04  0.21498310322E+04  0.89982472682E+03 0.  0.
        -24    2    4    4    0    0 -0.25652819813E+03  0.20175572000E+03 -0.88135987157E+03  0.94308822958E+03  0.78154325314E+02 0.  0.
         24    2    4    4    0    0 -0.15071712594E+03 -0.71140549402E+03 -0.95888393889E+03  0.12067428026E+04  0.89198399539E+02 0.  0.
         11    1    3    3    0    0  0.40297221679E+03  0.51375473332E+03 -0.66319652827E+03  0.93067726341E+03  0.00000000000E+00 0. -1.
        -11    1    3    3    0    0  0.42731072807E+01 -0.41049593080E+01 -0.71815102075E+01  0.93104363814E+01  0.00000000000E+00 0.  1.
          4    1    6    6  502    0 -0.82526331871E+02 -0.46591266718E+03 -0.68651735454E+03  0.83378131844E+03  0.00000000000E+00 0. -1.
          1    1    5    5  503    0 -0.25306793496E+03  0.17737514063E+03 -0.83878705736E+03  0.89390662142E+03  0.00000000000E+00 0. -1.
         -2    1    5    5    0  503 -0.34602631704E+01  0.24380579366E+02 -0.42572814208E+02  0.49181608158E+02  0.00000000000E+00 0.  1.
         -3    1    6    6    0  502 -0.68190794071E+02 -0.24549282683E+03 -0.27236658435E+03  0.37296148420E+03  0.00000000000E+00 0.  1.
<mgrwt>
<rscale>  0 0.18010435E+04</rscale>
<asrwt>0</asrwt>
<pdfrwt beam="1">  1        2 0.43080314E+00 0.18010435E+04</pdfrwt>
<pdfrwt beam="2">  1       -2 0.44553604E-01 0.18010435E+04</pdfrwt>
<totfact> 0.10452753E+01</totfact>
</mgrwt>
</event>
<event>
12    1  0.1980523E-007  0.1500371E+04  0.7818608E-02  0.8884206E-01
          2   -1    0    0  501    0  0.00000000000E+00  0.00000000000E+00  0.26462487949E+04  0.26462487949E+04  0.00000000000E+00 0. -1.
         -2   -1    0    0    0  501 -0.00000000000E+00 -0.00000000000E+00 -0.21267020435E+03  0.21267020435E+03  0.00000000000E+00 0.  1.
         23    2    1    2    0    0  0.46147516963E+03 -0.84672346314E+02  0.63796135209E+03  0.79705924956E+03  0.90443474794E+02 0.  0.
        254    2    1    2    0    0 -0.46147516963E+03  0.84672346314E+02  0.17956172385E+04  0.20618597497E+04  0.89827368987E+03 0.  0.
        -24    2    4    4    0    0 -0.67276527254E+03  0.20423496298E+03  0.15688193067E+04  0.17210869263E+04  0.81370503539E+02 0.  0.
         24    2    4    4    0    0  0.21129010291E+03 -0.11956261667E+03  0.22679793176E+03  0.34077282337E+03  0.75829337340E+02 0.  0.
         11    1    3    3    0    0  0.21895211129E+03 -0.85881516716E+02  0.30602547187E+03  0.38596275906E+03  0.00000000000E+00 0.  1.
        -11    1    3    3    0    0  0.24252305834E+03  0.12091704018E+01  0.33193588022E+03  0.41109649049E+03  0.00000000000E+00 0. -1.
          4    1    6    6  502    0  0.50873068194E+02 -0.40374423515E+02  0.10799630844E+03  0.12602129097E+03  0.00000000000E+00 0. -1.
          3    1    5    5  503    0 -0.35669781301E+02  0.25512758092E+02  0.68525104468E+02  0.81356770252E+02  0.00000000000E+00 0. -1.
         -4    1    5    5    0  503 -0.63709549124E+03  0.17872220489E+03  0.15002942022E+04  0.16397301561E+04  0.00000000000E+00 0.  1.
         -3    1    6    6    0  502  0.16041703472E+03 -0.79188193154E+02  0.11880162332E+03  0.21475153240E+03  0.00000000000E+00 0.  1.
<mgrwt>
<rscale>  0 0.15003710E+04</rscale>
<asrwt>0</asrwt>
<pdfrwt beam="1">  1        2 0.40711518E+00 0.15003710E+04</pdfrwt>
<pdfrwt beam="2">  1       -2 0.32718495E-01 0.15003710E+04</pdfrwt>
<totfact> 0.24146587E+01</totfact>
</mgrwt>
</event>
<event>
12    1  0.1980523E-007  0.1137150E+04  0.7818608E-02  0.9169721E-01
         -2   -1    0    0    0  501 -0.00000000000E+00  0.00000000000E+00  0.24866229975E+03  0.24866229975E+03  0.00000000000E+00 0.  1.
          2   -1    0    0  501    0  0.00000000000E+00 -0.00000000000E+00 -0.13000656454E+04  0.13000656454E+04  0.00000000000E+00 0. -1.
         23    2    1    2    0    0 -0.19022763143E+03 -0.58725588209E+02 -0.17526233194E+03  0.28136865041E+03  0.93894547051E+02 0.  0.
        254    2    1    2    0    0  0.19022763143E+03  0.58725588209E+02 -0.87614101374E+03  0.12673592948E+04  0.89383514117E+03 0.  0.
        -24    2    4    4    0    0  0.45537790667E+03  0.24464081957E+02 -0.87245080067E+03  0.98774491618E+03  0.80635542244E+02 0.  0.
         24    2    4    4    0    0 -0.26515027524E+03  0.34261506252E+02 -0.36902130721E+01  0.27961437858E+03  0.81805035078E+02 0.  0.
         13    1    3    3    0    0 -0.10253594856E+03  0.74296495769E+01 -0.12123196425E+03  0.15895285337E+03  0.00000000000E+00 0. -1.
        -13    1    3    3    0    0 -0.87691682875E+02 -0.66155237786E+02 -0.54030367693E+02  0.12241579704E+03  0.00000000000E+00 0.  1.
          2    1    6    6  502    0 -0.50360443665E+02 -0.26317187498E+01 -0.32184463733E+02  0.59824242038E+02  0.00000000000E+00 0. -1.
          3    1    5    5  503    0  0.28042394755E+03 -0.19969381936E+02 -0.49237789670E+03  0.56698532585E+03  0.00000000000E+00 0. -1.
         -4    1    5    5    0  503  0.17495395913E+03  0.44433463893E+02 -0.38007290397E+03  0.42075959033E+03  0.00000000000E+00 0.  1.
         -1    1    6    6    0  502 -0.21478983157E+03  0.36893225002E+02  0.28494250660E+02  0.21979013654E+03  0.00000000000E+00 0.  1.
<mgrwt>
<rscale>  0 0.11371496E+04</rscale>
<asrwt>0</asrwt>
<pdfrwt beam="1">  1        2 0.20001010E+00 0.11371496E+04</pdfrwt>
<pdfrwt beam="2">  1       -2 0.38255739E-01 0.11371496E+04</pdfrwt>
<totfact> 0.10557523E+02</totfact>
</mgrwt>
</event>
<event>
12    1  0.1980523E-007  0.3345953E+04  0.7818608E-02  0.8151300E-01
         -1   -1    0    0    0  501 -0.00000000000E+00  0.00000000000E+00  0.18983766475E+04  0.18983766475E+04  0.00000000000E+00 0.  1.
          1   -1    0    0  501    0  0.00000000000E+00 -0.00000000000E+00 -0.14743389765E+04  0.14743389765E+04  0.00000000000E+00 0. -1.
         23    2    1    2    0    0 -0.93973299701E+03  0.63602039046E+03  0.12610977484E+04  0.16989174299E+04  0.91284499159E+02 0.  0.
        254    2    1    2    0    0  0.93973299701E+03 -0.63602039046E+03 -0.83706007745E+03  0.16737981940E+04  0.90183744564E+03 0.  0.
        -24    2    4    4    0    0  0.56057220554E+03 -0.49232572817E+03 -0.10909417831E+02  0.74993716718E+03  0.75239079508E+02 0.  0.
         24    2    4    4    0    0  0.37916079147E+03 -0.14369466229E+03 -0.82615065962E+03  0.92386102686E+03  0.81137061799E+02 0.  0.
         11    1    3    3    0    0 -0.53880002559E+03  0.41317101345E+03  0.72296653627E+03  0.99181468355E+03  0.00000000000E+00 0. -1.
        -11    1    3    3    0    0 -0.40093297142E+03  0.22284937700E+03  0.53813121217E+03  0.70710274636E+03  0.00000000000E+00 0.  1.
          4    1    6    6  502    0  0.28211470646E+03 -0.69217479334E+02 -0.60534149475E+03  0.67142988637E+03  0.00000000000E+00 0. -1.
          3    1    5    5  503    0  0.35393239280E+03 -0.28245742773E+03  0.23351743787E+02  0.45342655535E+03  0.00000000000E+00 0. -1.
         -4    1    5    5    0  503  0.20663981274E+03 -0.20986830043E+03 -0.34261161618E+02  0.29651061183E+03  0.00000000000E+00 0.  1.
         -3    1    6    6    0  502  0.97046085012E+02 -0.74477182956E+02 -0.22080916487E+03  0.25243114049E+03  0.00000000000E+00 0.  1.
<mgrwt>
<rscale>  0 0.33459532E+04</rscale>
<asrwt>0</asrwt>
<pdfrwt beam="1">  1        1 0.22682138E+00 0.33459532E+04</pdfrwt>
<pdfrwt beam="2">  1       -1 0.29205795E+00 0.33459532E+04</pdfrwt>
<totfact> 0.20941226E-01</totfact>
</mgrwt>
</event>
<event>
12    1  0.1980523E-007  0.2009771E+04  0.7818608E-02  0.8602066E-01
         -2   -1    0    0    0  501 -0.00000000000E+00  0.00000000000E+00  0.13993639088E+04  0.13993639088E+04  0.00000000000E+00 0.  1.
          2   -1    0    0  501    0  0.00000000000E+00 -0.00000000000E+00 -0.72161019171E+03  0.72161019171E+03  0.00000000000E+00 0. -1.
         23    2    1    2    0    0 -0.54458950277E+03 -0.58577499710E+03  0.31443921188E+03  0.86414560681E+03  0.90363366796E+02 0.  0.
        254    2    1    2    0    0  0.54458950277E+03  0.58577499710E+03  0.36331450523E+03  0.12568284937E+04  0.89883833872E+03 0.  0.
        -24    2    4    4    0    0  0.20221893369E+03  0.54400826110E+03 -0.17628336008E+03  0.61162071736E+03  0.78527661236E+02 0.  0.
         24    2    4    4    0    0  0.34237056907E+03  0.41766736001E+02  0.53959786531E+03  0.64520777635E+03  0.78518479441E+02 0.  0.
         13    1    3    3    0    0 -0.43350028783E+03 -0.50318006118E+03  0.23482034186E+03  0.70445245863E+03  0.00000000000E+00 0. -1.
        -13    1    3    3    0    0 -0.11108921494E+03 -0.82594935926E+02  0.79618870012E+02  0.15969314819E+03  0.00000000000E+00 0.  1.
          4    1    6    6  502    0  0.25716528643E+03  0.17880273269E+02  0.45405683173E+03  0.52213149221E+03  0.00000000000E+00 0. -1.
          1    1    5    5  503    0  0.19900156922E+03  0.51865107427E+03 -0.18353437470E+03  0.58505164566E+03  0.00000000000E+00 0. -1.
         -2    1    5    5    0  503  0.32173644739E+01  0.25357186831E+02  0.72510146237E+01  0.26569071704E+02  0.00000000000E+00 0.  1.
         -3    1    6    6    0  502  0.85205282641E+02  0.23886462732E+02  0.85541033576E+02  0.12307628414E+03  0.00000000000E+00 0.  1.
<mgrwt>
<rscale>  0 0.20097714E+04</rscale>
<asrwt>0</asrwt>
<pdfrwt beam="1">  1        2 0.11101695E+00 0.20097714E+04</pdfrwt>
<pdfrwt beam="2">  1       -2 0.21528676E+00 0.20097714E+04</pdfrwt>
<totfact> 0.38728551E+00</totfact>
</mgrwt>
</event>
<event>
12    1  0.1980523E-007  0.1897507E+04  0.7818608E-02  0.8656098E-01
         -2   -1    0    0    0  501 -0.00000000000E+00  0.00000000000E+00  0.36266515963E+03  0.36266515963E+03  0.00000000000E+00 0.  1.
          2   -1    0    0  501    0  0.00000000000E+00 -0.00000000000E+00 -0.24819956104E+04  0.24819956104E+04  0.00000000000E+00 0. -1.
         23    2    1    2    0    0 -0.65985049217E+03 -0.25200239219E+03 -0.11067927438E+04  0.13161964018E+04  0.92059289188E+02 0.  0.
        254    2    1    2    0    0  0.65985049217E+03  0.25200239219E+03 -0.10125377070E+04  0.15284643682E+04  0.90114529304E+03 0.  0.
        -24    2    4    4    0    0  0.35903081808E+03  0.57402517115E+03 -0.48599317721E+03  0.83715140828E+03  0.78899218277E+02 0.  0.
         24    2    4    4    0    0  0.30081967408E+03 -0.32202277896E+03 -0.52654452976E+03  0.69131295993E+03  0.80456946604E+02 0.  0.
         11    1    3    3    0    0 -0.38612663087E+03 -0.14852651350E+03 -0.56287869640E+03  0.69856018147E+03  0.00000000000E+00 0.  1.
        -11    1    3    3    0    0 -0.27372386129E+03 -0.10347587869E+03 -0.54391404735E+03  0.61763622030E+03  0.00000000000E+00 0. -1.
          2    1    6    6  502    0  0.94267869429E+02 -0.98483094762E+02 -0.10862804054E+03  0.17431409109E+03  0.00000000000E+00 0. -1.
          1    1    5    5  503    0  0.59770080974E+02  0.50436804631E+02 -0.64615948457E+02  0.10144729980E+03  0.00000000000E+00 0. -1.
         -2    1    5    5    0  503  0.29926073711E+03  0.52358836652E+03 -0.42137722876E+03  0.73570410849E+03  0.00000000000E+00 0.  1.
         -1    1    6    6    0  502  0.20655180465E+03 -0.22353968420E+03 -0.41791648922E+03  0.51699886884E+03  0.00000000000E+00 0.  1.
<mgrwt>
<rscale>  0 0.18975071E+04</rscale>
<asrwt>0</asrwt>
<pdfrwt beam="1">  1        2 0.38184548E+00 0.18975071E+04</pdfrwt>
<pdfrwt beam="2">  1       -2 0.55794639E-01 0.18975071E+04</pdfrwt>
<totfact> 0.10086643E+01</totfact>
</mgrwt>
</event>
<event>
12    1  0.1980523E-007  0.3262372E+04  0.7818608E-02  0.8172536E-01
         -1   -1    0    0    0  501 -0.00000000000E+00  0.00000000000E+00  0.15284263984E+04  0.15284263984E+04  0.00000000000E+00 0.  1.
          1   -1    0    0  501    0  0.00000000000E+00 -0.00000000000E+00 -0.17408541775E+04  0.17408541775E+04  0.00000000000E+00 0. -1.
         23    2    1    2    0    0  0.70405082496E+02  0.90999489516E+03 -0.12980113669E+04  0.15893339342E+04  0.90007005351E+02 0.  0.
        254    2    1    2    0    0 -0.70405082496E+02 -0.90999489516E+03  0.10855835878E+04  0.16799466416E+04  0.90037848026E+03 0.  0.
        -24    2    4    4    0    0  0.23758674852E+03 -0.41005926194E+03  0.45368576209E+02  0.48262804673E+03  0.79217816187E+02 0.  0.
         24    2    4    4    0    0 -0.30799183102E+03 -0.49993563322E+03  0.10402150116E+04  0.11973185949E+04  0.82036223554E+02 0.  0.
         11    1    3    3    0    0  0.29722408253E+02  0.32667634180E+03 -0.54268977754E+03  0.63412384318E+03  0.00000000000E+00 0. -1.
        -11    1    3    3    0    0  0.40682674243E+02  0.58331855335E+03 -0.75532158939E+03  0.95521009106E+03  0.00000000000E+00 0.  1.
          4    1    6    6  502    0 -0.21780425999E+02 -0.55478120667E+02  0.15768103555E+03  0.16856902979E+03  0.00000000000E+00 0. -1.
          1    1    5    5  503    0 -0.50467036669E+01 -0.75741301705E+01  0.62478031218E+01  0.11039552056E+02  0.00000000000E+00 0. -1.
         -2    1    5    5    0  503  0.24263345219E+03 -0.40248513177E+03  0.39120773087E+02  0.47158849467E+03  0.00000000000E+00 0.  1.
         -3    1    6    6    0  502 -0.28621140502E+03 -0.44445751255E+03  0.88253397606E+03  0.10287495651E+04  0.00000000000E+00 0.  1.
<mgrwt>
<rscale>  0 0.32623718E+04</rscale>
<asrwt>0</asrwt>
<pdfrwt beam="1">  1        1 0.26782372E+00 0.32623718E+04</pdfrwt>
<pdfrwt beam="2">  1       -1 0.23514252E+00 0.32623718E+04</pdfrwt>
<totfact> 0.32467471E-01</totfact>
</mgrwt>
</event>
<event>
12    1  0.1980523E-007  0.2156514E+04  0.7818608E-02  0.8536749E-01
         -1   -1    0    0    0  501 -0.00000000000E+00  0.00000000000E+00  0.15201937213E+04  0.15201937213E+04  0.00000000000E+00 0.  1.
          1   -1    0    0  501    0  0.00000000000E+00 -0.00000000000E+00 -0.76479615735E+03  0.76479615735E+03  0.00000000000E+00 0. -1.
         23    2    1    2    0    0  0.25599419728E+03 -0.63576390486E+03 -0.29212103067E+03  0.75030250141E+03  0.88827784459E+02 0.  0.
        254    2    1    2    0    0 -0.25599419728E+03  0.63576390486E+03  0.10475185946E+04  0.15346873772E+04  0.88782958276E+03 0.  0.
        -24    2    4    4    0    0 -0.27032856118E+02  0.10421212611E+03  0.92938060691E+03  0.93882995562E+03  0.77861611472E+02 0.  0.
         24    2    4    4    0    0 -0.22896134116E+03  0.53155177876E+03  0.11813798770E+03  0.59585742161E+03  0.78223356544E+02 0.  0.
         11    1    3    3    0    0  0.35346998894E+02 -0.60185710549E+02 -0.58583031646E+02  0.91124649146E+02  0.00000000000E+00 0. -1.
        -11    1    3    3    0    0  0.22064719838E+03 -0.57557819431E+03 -0.23353799903E+03  0.65917785226E+03  0.00000000000E+00 0.  1.
          4    1    6    6  502    0 -0.61787433073E+02  0.15353705050E+03 -0.16751986632E+01  0.16551168857E+03  0.00000000000E+00 0. -1.
          3    1    5    5  503    0 -0.54023635343E+02  0.75971549176E+02  0.69328658675E+03  0.69952592577E+03  0.00000000000E+00 0. -1.
         -4    1    5    5    0  503  0.26990779225E+02  0.28240576929E+02  0.23609402016E+03  0.23930402986E+03  0.00000000000E+00 0.  1.
         -3    1    6    6    0  502 -0.16717390808E+03  0.37801472826E+03  0.11981318637E+03  0.43034573305E+03  0.00000000000E+00 0.  1.
<mgrwt>
<rscale>  0 0.21565141E+04</rscale>
<asrwt>0</asrwt>
<pdfrwt beam="1">  1        1 0.11766095E+00 0.21565141E+04</pdfrwt>
<pdfrwt beam="2">  1       -1 0.23387596E+00 0.21565141E+04</pdfrwt>
<totfact> 0.19339247E+00</totfact>
</mgrwt>
</event>
<event>
12    1  0.2353785E-007  0.3634789E+04  0.7818608E-02  0.8082569E-01
          1   -1    0    0  501    0  0.00000000000E+00  0.00000000000E+00  0.28902488935E+04  0.28902488935E+04  0.00000000000E+00 0. -1.
         -1   -1    0    0    0  501 -0.00000000000E+00 -0.00000000000E+00 -0.11427812097E+04  0.11427812097E+04  0.00000000000E+00 0.  1.
         23    2    1    2    0    0  0.83728396933E+03  0.14518584545E+04  0.47429404859E+03  0.17441475252E+04  0.90323461667E+02 0.  0.
        254    2    1    2    0    0 -0.83728396933E+03 -0.14518584545E+04  0.12731736352E+04  0.22888825781E+04  0.89948592746E+03 0.  0.
        -24    2    4    4    0    0 -0.95923364297E+03 -0.13827284355E+04  0.96708768872E+03  0.19426414345E+04  0.80808645233E+02 0.  0.
         24    2    4    4    0    0  0.12194967363E+03 -0.69130019003E+02  0.30608594644E+03  0.34624114359E+03  0.80892771486E+02 0.  0.
         13    1    3    3    0    0  0.42987925216E+03  0.80722131847E+03  0.22461907338E+03  0.94173040545E+03  0.00000000000E+00 0. -1.
        -13    1    3    3    0    0  0.40740471717E+03  0.64463713604E+03  0.24967497521E+03  0.80241711970E+03  0.00000000000E+00 0.  1.
          4    1    6    6  502    0  0.39075328991E+02 -0.12431018230E+01  0.27588048164E+02  0.47849002491E+02  0.00000000000E+00 0. -1.
          1    1    5    5  503    0 -0.22043062581E+03 -0.37039417948E+03  0.26897871740E+03  0.50806599906E+03  0.00000000000E+00 0. -1.
         -2    1    5    5    0  503 -0.73880301715E+03 -0.10123342560E+04  0.69810897132E+03  0.14345754354E+04  0.00000000000E+00 0.  1.
         -3    1    6    6    0  502  0.82874344640E+02 -0.67886917180E+02  0.27849789828E+03  0.29839214110E+03  0.00000000000E+00 0.  1.
<mgrwt>
<rscale>  0 0.36347886E+04</rscale>
<asrwt>0</asrwt>
<pdfrwt beam="1">  1        1 0.44465367E+00 0.36347886E+04</pdfrwt>
<pdfrwt beam="2">  1       -1 0.17581250E+00 0.36347886E+04</pdfrwt>
<totfact> 0.12917409E-01</totfact>
</mgrwt>
</event>
<event>
12    1  0.1980523E-007  0.3004606E+04  0.7818608E-02  0.8242417E-01
          2   -1    0    0  501    0  0.00000000000E+00  0.00000000000E+00  0.31177820343E+04  0.31177820343E+04  0.00000000000E+00 0. -1.
         -2   -1    0    0    0  501 -0.00000000000E+00 -0.00000000000E+00 -0.72388461225E+03  0.72388461225E+03  0.00000000000E+00 0.  1.
         23    2    1    2    0    0 -0.64245290866E+03 -0.10685497783E+04  0.18041520846E+04  0.21949259173E+04  0.90502316761E+02 0.  0.
        254    2    1    2    0    0  0.64245290866E+03  0.10685497783E+04  0.58974533746E+03  0.16467407293E+04  0.89967277268E+03 0.  0.
        -24    2    4    4    0    0  0.43657773557E+03  0.14740824073E+03 -0.95871389958E+02  0.47731442479E+03  0.79425613402E+02 0.  0.
         24    2    4    4    0    0  0.20587517309E+03  0.92114153758E+03  0.68561672742E+03  0.11694263045E+04  0.81248173022E+02 0.  0.
         11    1    3    3    0    0 -0.37527315332E+03 -0.53666562777E+03  0.95069298342E+03  0.11544076768E+04  0.00000000000E+00 0.  1.
        -11    1    3    3    0    0 -0.26717975533E+03 -0.53188415054E+03  0.85345910120E+03  0.10405182404E+04  0.00000000000E+00 0. -1.
          2    1    6    6  502    0  0.34526704177E+02  0.12113601167E+03  0.12622242329E+03  0.17832029264E+03  0.00000000000E+00 0. -1.
          1    1    5    5  503    0  0.28381552400E+01 -0.64694080608E+01 -0.36014610522E+01  0.79296208947E+01  0.00000000000E+00 0. -1.
         -2    1    5    5    0  503  0.43373958033E+03  0.15387764879E+03 -0.92269928905E+02  0.46938480389E+03  0.00000000000E+00 0.  1.
         -1    1    6    6    0  502  0.17134846891E+03  0.80000552591E+03  0.55939430413E+03  0.99110601188E+03  0.00000000000E+00 0.  1.
<mgrwt>
<rscale>  0 0.30046061E+04</rscale>
<asrwt>0</asrwt>
<pdfrwt beam="1">  1        2 0.47965877E+00 0.30046061E+04</pdfrwt>
<pdfrwt beam="2">  1       -2 0.11136686E+00 0.30046061E+04</pdfrwt>
<totfact> 0.79924917E-01</totfact>
</mgrwt>
</event>
<event>
12    1  0.1980523E-007  0.2374124E+04  0.7818608E-02  0.8449255E-01
          2   -1    0    0  501    0  0.00000000000E+00  0.00000000000E+00  0.93415728880E+03  0.93415728880E+03  0.00000000000E+00 0.  1.
         -2   -1    0    0    0  501 -0.00000000000E+00 -0.00000000000E+00 -0.15084361278E+04  0.15084361278E+04  0.00000000000E+00 0. -1.
         23    2    1    2    0    0  0.73843083777E+03 -0.69569766540E+03 -0.24982753004E+03  0.10486917544E+04  0.89806776750E+02 0.  0.
        254    2    1    2    0    0 -0.73843083777E+03  0.69569766540E+03 -0.32445130897E+03  0.13939016622E+04  0.89912059714E+03 0.  0.
        -24    2    4    4    0    0 -0.79364464848E+02 -0.20276627890E+03 -0.45316200794E+01  0.23177161702E+03  0.79275877398E+02 0.  0.
         24    2    4    4    0    0 -0.65906637292E+03  0.89846394430E+03 -0.31991968889E+03  0.11621300452E+04  0.81189232445E+02 0.  0.
         13    1    3    3    0    0  0.67511074255E+03 -0.66511791125E+03 -0.22437872168E+03  0.97391075634E+03  0.00000000000E+00 0.  1.
        -13    1    3    3    0    0  0.63320095225E+02 -0.30579754152E+02 -0.25448808362E+02  0.74780998057E+02  0.00000000000E+00 0. -1.
          2    1    6    6  502    0 -0.92520115053E+02  0.13111701777E+03 -0.17096156883E+02  0.16138129575E+03  0.00000000000E+00 0. -1.
          1    1    5    5  503    0  0.16298614999E+02 -0.28378969988E+02  0.17085250421E+01  0.32770868867E+02  0.00000000000E+00 0. -1.
         -2    1    5    5    0  503 -0.95663079848E+02 -0.17438730891E+03 -0.62401451215E+01  0.19900074815E+03  0.00000000000E+00 0.  1.
         -1    1    6    6    0  502 -0.56654625787E+03  0.76734692653E+03 -0.30282353201E+03  0.10007487494E+04  0.00000000000E+00 0.  1.
<mgrwt>
<rscale>  0 0.23741243E+04</rscale>
<asrwt>0</asrwt>
<pdfrwt beam="1">  1        2 0.14371651E+00 0.23741243E+04</pdfrwt>
<pdfrwt beam="2">  1       -2 0.23206709E+00 0.23741243E+04</pdfrwt>
<totfact> 0.20796199E+00</totfact>
</mgrwt>
</event>
<event>
12    1  0.1980523E-007  0.1668096E+04  0.7818608E-02  0.8779773E-01
         -1   -1    0    0    0  501 -0.00000000000E+00  0.00000000000E+00  0.85893980501E+03  0.85893980501E+03  0.00000000000E+00 0.  1.
          1   -1    0    0  501    0  0.00000000000E+00 -0.00000000000E+00 -0.80987731468E+03  0.80987731468E+03  0.00000000000E+00 0. -1.
         23    2    1    2    0    0 -0.51021831628E+03 -0.18836384791E+03  0.23671686448E+03  0.59980218586E+03  0.89017519492E+02 0.  0.
        254    2    1    2    0    0  0.51021831628E+03  0.18836384791E+03 -0.18765437415E+03  0.10690149338E+04  0.90098562427E+03 0.  0.
        -24    2    4    4    0    0 -0.12480736759E+03  0.30403635145E+03 -0.24282271619E+03  0.41643317722E+03  0.80241744678E+02 0.  0.
         24    2    4    4    0    0  0.63502568386E+03 -0.11567250354E+03  0.55168342037E+02  0.65258175661E+03  0.78623506987E+02 0.  0.
         13    1    3    3    0    0 -0.38906514009E+03 -0.15816661950E+03  0.21911286942E+03  0.47370751767E+03  0.00000000000E+00 0.  1.
        -13    1    3    3    0    0 -0.12115317619E+03 -0.30197228411E+02  0.17603995059E+02  0.12609466819E+03  0.00000000000E+00 0. -1.
          4    1    6    6  502    0  0.16181635266E+03 -0.14215335800E+02  0.44812677878E+02  0.16850751870E+03  0.00000000000E+00 0. -1.
          1    1    5    5  503    0 -0.65898680733E+02  0.11370604304E+03 -0.54488986998E+02  0.14226998999E+03  0.00000000000E+00 0. -1.
         -2    1    5    5    0  503 -0.58908686852E+02  0.19033030840E+03 -0.18833372919E+03  0.27416318723E+03  0.00000000000E+00 0.  1.
         -3    1    6    6    0  502  0.47320933121E+03 -0.10145716774E+03  0.10355664159E+02  0.48407423791E+03  0.00000000000E+00 0.  1.
<mgrwt>
<rscale>  0 0.16680958E+04</rscale>
<asrwt>0</asrwt>
<pdfrwt beam="1">  1        1 0.12459651E+00 0.16680958E+04</pdfrwt>
<pdfrwt beam="2">  1       -1 0.13214458E+00 0.16680958E+04</pdfrwt>
<totfact> 0.10064173E+01</totfact>
</mgrwt>
</event>
<event>
12    1  0.1980523E-007  0.1400801E+04  0.7818608E-02  0.8953239E-01
         -1   -1    0    0    0  501 -0.00000000000E+00  0.00000000000E+00  0.14707976796E+04  0.14707976796E+04  0.00000000000E+00 0.  1.
          1   -1    0    0  501    0  0.00000000000E+00 -0.00000000000E+00 -0.33353384649E+03  0.33353384649E+03  0.00000000000E+00 0. -1.
         23    2    1    2    0    0 -0.93213411524E+02  0.38152446051E+03  0.45885988332E+03  0.61072228201E+03  0.90441468163E+02 0.  0.
        254    2    1    2    0    0  0.93213411524E+02 -0.38152446051E+03  0.67840394983E+03  0.11936092441E+04  0.90012302184E+03 0.  0.
        -24    2    4    4    0    0 -0.23760380383E+03 -0.54578666055E+03  0.36586006441E+03  0.70315185130E+03  0.78932203956E+02 0.  0.
         24    2    4    4    0    0  0.33081721536E+03  0.16426220004E+03  0.31254388541E+03  0.49045739282E+03  0.80266266403E+02 0.  0.
         11    1    3    3    0    0 -0.74545893076E+02  0.32674344856E+03  0.43243679962E+03  0.54710141383E+03  0.00000000000E+00 0.  1.
        -11    1    3    3    0    0 -0.18667518449E+02  0.54781011947E+02  0.26423083703E+02  0.63620868175E+02  0.00000000000E+00 0. -1.
          2    1    6    6  502    0  0.31085592626E+03  0.17260429330E+03  0.30142131746E+03  0.46613137588E+03  0.00000000000E+00 0. -1.
          1    1    5    5  503    0 -0.14889322943E+03 -0.35085616411E+03  0.27755908198E+03  0.47149579601E+03  0.00000000000E+00 0. -1.
         -2    1    5    5    0  503 -0.88710574409E+02 -0.19493049643E+03  0.88300982428E+02  0.23165605528E+03  0.00000000000E+00 0.  1.
         -1    1    6    6    0  502  0.19961289097E+02 -0.83420932604E+01  0.11122567951E+02  0.24326016941E+02  0.00000000000E+00 0.  1.
<mgrwt>
<rscale>  0 0.14008009E+04</rscale>
<asrwt>0</asrwt>
<pdfrwt beam="1">  1        1 0.51312900E-01 0.14008009E+04</pdfrwt>
<pdfrwt beam="2">  1       -1 0.22627656E+00 0.14008009E+04</pdfrwt>
<totfact> 0.74368843E+00</totfact>
</mgrwt>
</event>
<event>
12    1  0.1980523E-007  0.3341421E+04  0.7818608E-02  0.8152435E-01
          1   -1    0    0  501    0  0.00000000000E+00  0.00000000000E+00  0.23191980712E+04  0.23191980712E+04  0.00000000000E+00 0. -1.
         -1   -1    0    0    0  501 -0.00000000000E+00 -0.00000000000E+00 -0.12035508481E+04  0.12035508481E+04  0.00000000000E+00 0.  1.
         23    2    1    2    0    0 -0.10184120956E+03 -0.13948360797E+04 -0.18279538643E+03  0.14133481913E+04  0.90551837284E+02 0.  0.
        254    2    1    2    0    0  0.10184120956E+03  0.13948360797E+04  0.12984426095E+04  0.21094007280E+04  0.89870957481E+03 0.  0.
        -24    2    4    4    0    0 -0.23949048321E+03  0.12429448152E+04  0.88671157258E+03  0.15474573415E+04  0.78098050739E+02 0.  0.
         24    2    4    4    0    0  0.34133169276E+03  0.15189126455E+03  0.41173103690E+03  0.56194338654E+03  0.81729078043E+02 0.  0.
         13    1    3    3    0    0 -0.10911732732E+03 -0.10516067045E+04 -0.15993667971E+03  0.10692815315E+04  0.00000000000E+00 0.  1.
        -13    1    3    3    0    0  0.72761177634E+01 -0.34322937525E+03 -0.22858706718E+02  0.34406665982E+03  0.00000000000E+00 0. -1.
          2    1    6    6  502    0  0.25355345075E+03  0.74981663041E+02  0.30664243851E+03  0.40489651428E+03  0.00000000000E+00 0. -1.
          1    1    5    5  503    0 -0.61820369487E+02  0.40595125199E+03  0.24796587415E+03  0.47969287238E+03  0.00000000000E+00 0. -1.
         -2    1    5    5    0  503 -0.17767011372E+03  0.83699356321E+03  0.63874569843E+03  0.10677644691E+04  0.00000000000E+00 0.  1.
         -1    1    6    6    0  502  0.87778242011E+02  0.76909601512E+02  0.10508859839E+03  0.15704687226E+03  0.00000000000E+00 0.  1.
<mgrwt>
<rscale>  0 0.33414205E+04</rscale>
<asrwt>0</asrwt>
<pdfrwt beam="1">  1        1 0.35679970E+00 0.33414205E+04</pdfrwt>
<pdfrwt beam="2">  1       -1 0.18516167E+00 0.33414205E+04</pdfrwt>
<totfact> 0.28533669E-01</totfact>
</mgrwt>
</event>
<event>
12    1  0.1980523E-007  0.2241911E+04  0.7818608E-02  0.8501184E-01
          2   -1    0    0  501    0  0.00000000000E+00  0.00000000000E+00  0.14562721965E+04  0.14562721965E+04  0.00000000000E+00 0. -1.
         -2   -1    0    0    0  501 -0.00000000000E+00 -0.00000000000E+00 -0.86284751262E+03  0.86284751262E+03  0.00000000000E+00 0.  1.
         23    2    1    2    0    0  0.54025846095E+03  0.75175934205E+03  0.95399438583E+02  0.93512090517E+03  0.91261938477E+02 0.  0.
        254    2    1    2    0    0 -0.54025846095E+03 -0.75175934205E+03  0.49802524529E+03  0.13839988039E+04  0.90022343415E+03 0.  0.
        -24    2    4    4    0    0  0.23876189338E+03 -0.17730725033E+03  0.20076059725E+03  0.36835836614E+03  0.83294452091E+02 0.  0.
         24    2    4    4    0    0 -0.77902035433E+03 -0.57445209173E+03  0.29726464804E+03  0.10156404378E+04  0.79317777176E+02 0.  0.
         11    1    3    3    0    0  0.87079555516E+02  0.85664358352E+02  0.35752889247E+02  0.12727725787E+03  0.00000000000E+00 0. -1.
        -11    1    3    3    0    0  0.45317890544E+03  0.66609498370E+03  0.59646549336E+02  0.80784364731E+03  0.00000000000E+00 0.  1.
          2    1    6    6  502    0 -0.57540712204E+03 -0.46484889298E+03  0.21742317619E+03  0.77100628204E+03  0.00000000000E+00 0. -1.
          1    1    5    5  503    0  0.21704040134E+03 -0.15181634626E+03  0.20454589206E+03  0.33465468884E+03  0.00000000000E+00 0. -1.
         -2    1    5    5    0  503  0.21721492041E+02 -0.25490904071E+02 -0.37852948093E+01  0.33703677301E+02  0.00000000000E+00 0.  1.
         -1    1    6    6    0  502 -0.20361323229E+03 -0.10960319875E+03  0.79841471851E+02  0.24463415576E+03  0.00000000000E+00 0.  1.
<mgrwt>
<rscale>  0 0.22419107E+04</rscale>
<asrwt>0</asrwt>
<pdfrwt beam="1">  1        2 0.22404188E+00 0.22419107E+04</pdfrwt>
<pdfrwt beam="2">  1       -2 0.13274577E+00 0.22419107E+04</pdfrwt>
<totfact> 0.50426662E+00</totfact>
</mgrwt>
</event>
<event>
12    1  0.1980523E-007  0.3288879E+04  0.7818608E-02  0.8165731E-01
          2   -1    0    0  501    0  0.00000000000E+00  0.00000000000E+00  0.22245953235E+04  0.22245953235E+04  0.00000000000E+00 0. -1.
         -2   -1    0    0    0  501 -0.00000000000E+00 -0.00000000000E+00 -0.12155834220E+04  0.12155834220E+04  0.00000000000E+00 0.  1.
         23    2    1    2    0    0  0.84616621778E+03 -0.11127777309E+04 -0.15468026515E+03  0.14094364117E+04  0.91178220531E+02 0.  0.
        254    2    1    2    0    0 -0.84616621778E+03  0.11127777309E+04  0.11636921667E+04  0.20307423337E+04  0.90303013282E+03 0.  0.
        -24    2    4    4    0    0 -0.89366968139E+03  0.11485253681E+04  0.12335631562E+04  0.19094561480E+04  0.81170809058E+02 0.  0.
         24    2    4    4    0    0  0.47503463610E+02 -0.35747637286E+02 -0.69870989512E+02  0.12128618569E+03  0.79334173202E+02 0.  0.
         13    1    3    3    0    0  0.29803769424E+03 -0.39516506019E+03 -0.11027434517E+02  0.49507928284E+03  0.00000000000E+00 0. -1.
        -13    1    3    3    0    0  0.54812852354E+03 -0.71761267067E+03 -0.14365283063E+03  0.91435712890E+03  0.00000000000E+00 0.  1.
          4    1    6    6  502    0  0.32772539541E+02 -0.20726138615E+02 -0.86287615614E+02  0.94600025255E+02  0.00000000000E+00 0. -1.
          1    1    5    5  503    0 -0.41057823105E+03  0.58141854662E+03  0.57182813696E+03  0.91302214014E+03  0.00000000000E+00 0. -1.
         -4    1    5    5    0  503 -0.48309145034E+03  0.56710682153E+03  0.66173501922E+03  0.99643400789E+03  0.00000000000E+00 0.  1.
         -3    1    6    6    0  502  0.14730924070E+02 -0.15021498671E+02  0.16416626102E+02  0.26686160436E+02  0.00000000000E+00 0.  1.
<mgrwt>
<rscale>  0 0.32888790E+04</rscale>
<asrwt>0</asrwt>
<pdfrwt beam="1">  1        2 0.34224543E+00 0.32888790E+04</pdfrwt>
<pdfrwt beam="2">  1       -2 0.18701283E+00 0.32888790E+04</pdfrwt>
<totfact> 0.67885669E-01</totfact>
</mgrwt>
</event>
<event>
12    1  0.1980523E-007  0.2445286E+04  0.7818608E-02  0.8422741E-01
         -1   -1    0    0    0  501 -0.00000000000E+00  0.00000000000E+00  0.78049698072E+03  0.78049698072E+03  0.00000000000E+00 0.  1.
          1   -1    0    0  501    0  0.00000000000E+00 -0.00000000000E+00 -0.19152609972E+04  0.19152609972E+04  0.00000000000E+00 0. -1.
         23    2    1    2    0    0 -0.91990510038E+03 -0.49596602928E+03 -0.64905960601E+03  0.12335325740E+04  0.90091859008E+02 0.  0.
        254    2    1    2    0    0  0.91990510038E+03  0.49596602928E+03 -0.48570441048E+03  0.14622254039E+04  0.89999258977E+03 0.  0.
        -24    2    4    4    0    0  0.86029927183E+03 -0.88131697610E+01 -0.28567743639E+03  0.91009575731E+03  0.80437433721E+02 0.  0.
         24    2    4    4    0    0  0.59605828553E+02  0.50477919904E+03 -0.20002697409E+03  0.55212964662E+03  0.80507525925E+02 0.  0.
         13    1    3    3    0    0 -0.69542073807E+03 -0.33259138791E+03 -0.46091573293E+03  0.89814828793E+03  0.00000000000E+00 0.  1.
        -13    1    3    3    0    0 -0.22448436231E+03 -0.16337464137E+03 -0.18814387309E+03  0.33538428608E+03  0.00000000000E+00 0. -1.
          4    1    6    6  502    0 -0.13719564973E+02  0.21547816532E+03 -0.75333752132E+02  0.22867933969E+03  0.00000000000E+00 0. -1.
          1    1    5    5  503    0  0.20135527278E+03  0.31296051981E+02 -0.59973934743E+02  0.21241530452E+03  0.00000000000E+00 0. -1.
         -2    1    5    5    0  503  0.65894399906E+03 -0.40109221742E+02 -0.22570350165E+03  0.69768045280E+03  0.00000000000E+00 0.  1.
         -3    1    6    6    0  502  0.73325393525E+02  0.28930103372E+03 -0.12469322196E+03  0.32345030693E+03  0.00000000000E+00 0.  1.
<mgrwt>
<rscale>  0 0.24452856E+04</rscale>
<asrwt>0</asrwt>
<pdfrwt beam="1">  1        1 0.29465553E+00 0.24452856E+04</pdfrwt>
<pdfrwt beam="2">  1       -1 0.12007646E+00 0.24452856E+04</pdfrwt>
<totfact> 0.18767533E+00</totfact>
</mgrwt>
</event>
<event>
12    1  0.1980523E-007  0.1395296E+04  0.7818608E-02  0.8957230E-01
          2   -1    0    0  501    0  0.00000000000E+00  0.00000000000E+00  0.53034176290E+03  0.53034176290E+03  0.00000000000E+00 0.  1.
         -2   -1    0    0    0  501 -0.00000000000E+00 -0.00000000000E+00 -0.91773435770E+03  0.91773435770E+03  0.00000000000E+00 0. -1.
         23    2    1    2    0    0 -0.33698565723E+03  0.17553766389E+03 -0.24556933298E+03  0.46168794933E+03  0.92079642913E+02 0.  0.
        254    2    1    2    0    0  0.33698565723E+03 -0.17553766389E+03 -0.14182326182E+03  0.98638817127E+03  0.89915236874E+03 0.  0.
        -24    2    4    4    0    0  0.26684542199E+03  0.20153385555E+03 -0.39219112839E+03  0.52154647964E+03  0.79840309736E+02 0.  0.
         24    2    4    4    0    0  0.70140235235E+02 -0.37707151944E+03  0.25036786658E+03  0.46484169163E+03  0.79316746597E+02 0.  0.
         11    1    3    3    0    0 -0.86314364833E+02  0.55855592146E+01 -0.72572336717E+02  0.11290753786E+03  0.00000000000E+00 0.  1.
        -11    1    3    3    0    0 -0.25067129240E+03  0.16995210467E+03 -0.17299699626E+03  0.34878041148E+03  0.00000000000E+00 0. -1.
          2    1    6    6  502    0 -0.11250030602E+02 -0.13833525139E+03  0.76329021687E+02  0.15839610007E+03  0.00000000000E+00 0. -1.
          1    1    5    5  503    0  0.35066515349E+02  0.50517301974E+02 -0.38628355010E+02  0.72620989447E+02  0.00000000000E+00 0. -1.
         -2    1    5    5    0  503  0.23177890665E+03  0.15101655358E+03 -0.35356277338E+03  0.44892549019E+03  0.00000000000E+00 0.  1.
         -1    1    6    6    0  502  0.81390265837E+02 -0.23873626805E+03  0.17403884489E+03  0.30644559156E+03  0.00000000000E+00 0.  1.
<mgrwt>
<rscale>  0 0.13952962E+04</rscale>
<asrwt>0</asrwt>
<pdfrwt beam="1">  1        2 0.81591040E-01 0.13952962E+04</pdfrwt>
<pdfrwt beam="2">  1       -2 0.14118990E+00 0.13952962E+04</pdfrwt>
<totfact> 0.19645748E+01</totfact>
</mgrwt>
</event>
<event>
12    1  0.1980523E-007  0.2858105E+04  0.7818608E-02  0.8285453E-01
         -2   -1    0    0    0  501 -0.00000000000E+00  0.00000000000E+00  0.10062904889E+04  0.10062904889E+04  0.00000000000E+00 0. -1.
          2   -1    0    0  501    0  0.00000000000E+00 -0.00000000000E+00 -0.20294247998E+04  0.20294247998E+04  0.00000000000E+00 0.  1.
         23    2    1    2    0    0 -0.38178300260E+03 -0.11653637854E+04 -0.87035653291E+03  0.15065402141E+04  0.91169670143E+02 0.  0.
        254    2    1    2    0    0  0.38178300260E+03  0.11653637854E+04 -0.15277777798E+03  0.15291750746E+04  0.90066883262E+03 0.  0.
        -24    2    4    4    0    0 -0.32361618778E+02  0.70628664377E+03 -0.44656710609E+03  0.84000039455E+03  0.79311947835E+02 0.  0.
         24    2    4    4    0    0  0.41414462138E+03  0.45907714164E+03  0.29378932811E+03  0.68917468010E+03  0.79887301753E+02 0.  0.
         13    1    3    3    0    0 -0.92881498883E+02 -0.41548305684E+03 -0.31850055809E+03  0.53169140379E+03  0.00000000000E+00 0. -1.
        -13    1    3    3    0    0 -0.28890150372E+03 -0.74988072857E+03 -0.55185597481E+03  0.97484881026E+03  0.00000000000E+00 0.  1.
          4    1    6    6  502    0  0.34148367754E+03  0.32837902637E+03  0.21739051380E+03  0.52125092084E+03  0.00000000000E+00 0. -1.
          3    1    5    5  503    0 -0.30231222159E+02  0.42278877998E+03 -0.31115764906E+03  0.52581685200E+03  0.00000000000E+00 0. -1.
         -4    1    5    5    0  503 -0.21303966182E+01  0.28349786378E+03 -0.13540945703E+03  0.31418354256E+03  0.00000000000E+00 0.  1.
         -3    1    6    6    0  502  0.72660943836E+02  0.13069811527E+03  0.76398814307E+02  0.16792375925E+03  0.00000000000E+00 0.  1.
<mgrwt>
<rscale>  0 0.28581049E+04</rscale>
<asrwt>0</asrwt>
<pdfrwt beam="1">  1        2 0.31221920E+00 0.28581049E+04</pdfrwt>
<pdfrwt beam="2">  1       -2 0.15481392E+00 0.28581049E+04</pdfrwt>
<totfact> 0.15346444E+00</totfact>
</mgrwt>
</event>
<event>
12    1  0.1980523E-007  0.1125809E+04  0.7818608E-02  0.9180396E-01
         -1   -1    0    0    0  501 -0.00000000000E+00  0.00000000000E+00  0.44470521071E+03  0.44470521071E+03  0.00000000000E+00 0.  1.
          1   -1    0    0  501    0  0.00000000000E+00 -0.00000000000E+00 -0.71252007775E+03  0.71252007775E+03  0.00000000000E+00 0. -1.
         23    2    1    2    0    0 -0.10212058195E+03  0.29551846217E+02  0.11076488762E+03  0.17840831555E+03  0.90877620206E+02 0.  0.
        254    2    1    2    0    0  0.10212058195E+03 -0.29551846217E+02 -0.37857975466E+03  0.97881697292E+03  0.89635824923E+03 0.  0.
        -24    2    4    4    0    0 -0.10553843716E+03 -0.29497957741E+03  0.14278674066E+03  0.35303499547E+03  0.78066266132E+02 0.  0.
         24    2    4    4    0    0  0.20765901910E+03  0.26542773120E+03 -0.52136649532E+03  0.62578197745E+03  0.78777612042E+02 0.  0.
         11    1    3    3    0    0 -0.10394777319E+03  0.16249560016E+02  0.50567413052E+02  0.11673153393E+03  0.00000000000E+00 0. -1.
        -11    1    3    3    0    0  0.18271912388E+01  0.13302286200E+02  0.60197474569E+02  0.61676781615E+02  0.00000000000E+00 0.  1.
          4    1    6    6  502    0  0.14072719036E+03  0.18383880766E+03 -0.28691494291E+03  0.36867469912E+03  0.00000000000E+00 0. -1.
          1    1    5    5  503    0 -0.11144343446E+03 -0.21219591679E+03  0.10063572981E+03  0.25995056511E+03  0.00000000000E+00 0. -1.
         -4    1    5    5    0  503  0.59049973033E+01 -0.82783660621E+02  0.42151010843E+02  0.93084430352E+02  0.00000000000E+00 0.  1.
         -3    1    6    6    0  502  0.66931828740E+02  0.81588923540E+02 -0.23445155240E+03  0.25710727833E+03  0.00000000000E+00 0.  1.
<mgrwt>
<rscale>  0 0.11258088E+04</rscale>
<asrwt>0</asrwt>
<pdfrwt beam="1">  1        1 0.10961847E+00 0.11258088E+04</pdfrwt>
<pdfrwt beam="2">  1       -1 0.68416187E-01 0.11258088E+04</pdfrwt>
<totfact> 0.57058495E+01</totfact>
</mgrwt>
</event>
<event>
12    1  0.1980523E-007  0.2386532E+04  0.7818608E-02  0.8444563E-01
         -1   -1    0    0    0  501 -0.00000000000E+00  0.00000000000E+00  0.48308343294E+03  0.48308343294E+03  0.00000000000E+00 0.  1.
          1   -1    0    0  501    0  0.00000000000E+00 -0.00000000000E+00 -0.29474899263E+04  0.29474899263E+04  0.00000000000E+00 0. -1.
         23    2    1    2    0    0 -0.97783827356E+03  0.29526811042E+03 -0.10458050323E+04  0.14645567112E+04  0.88697511654E+02 0.  0.
        254    2    1    2    0    0  0.97783827356E+03 -0.29526811042E+03 -0.14186014610E+04  0.19660166480E+04  0.89968906220E+03 0.  0.
        -24    2    4    4    0    0  0.34563102062E+03 -0.11612191593E+02 -0.11748073447E+04  0.12272306542E+04  0.79543296432E+02 0.  0.
         24    2    4    4    0    0  0.63220725293E+03 -0.28365591882E+03 -0.24379411627E+03  0.73878599374E+03  0.78882713418E+02 0.  0.
         11    1    3    3    0    0 -0.52849812645E+03  0.17227603461E+03 -0.62931504527E+03  0.83965869731E+03  0.00000000000E+00 0.  1.
        -11    1    3    3    0    0 -0.44934014710E+03  0.12299207580E+03 -0.41648998705E+03  0.62489801394E+03  0.00000000000E+00 0. -1.
          4    1    6    6  502    0  0.12398578273E+03 -0.58514783979E+02 -0.82463735544E+02  0.15998975574E+03  0.00000000000E+00 0. -1.
          1    1    5    5  503    0  0.21246609141E+03  0.12970467194E+02 -0.82800466605E+03  0.85492795019E+03  0.00000000000E+00 0. -1.
         -2    1    5    5    0  503  0.13316492921E+03 -0.24582658787E+02 -0.34680267870E+03  0.37230270404E+03  0.00000000000E+00 0.  1.
         -3    1    6    6    0  502  0.50822147021E+03 -0.22514113484E+03 -0.16133038073E+03  0.57879623800E+03  0.00000000000E+00 0.  1.
<mgrwt>
<rscale>  0 0.23865318E+04</rscale>
<asrwt>0</asrwt>
<pdfrwt beam="1">  1        1 0.45345998E+00 0.23865318E+04</pdfrwt>
<pdfrwt beam="2">  1       -1 0.74320529E-01 0.23865318E+04</pdfrwt>
<totfact> 0.10673749E+00</totfact>
</mgrwt>
</event>
<event>
12    1  0.1980523E-007  0.1705375E+04  0.7818608E-02  0.8758305E-01
         -1   -1    0    0    0  501 -0.00000000000E+00  0.00000000000E+00  0.11823985335E+04  0.11823985335E+04  0.00000000000E+00 0.  1.
          1   -1    0    0  501    0  0.00000000000E+00 -0.00000000000E+00 -0.61491640924E+03  0.61491640924E+03  0.00000000000E+00 0. -1.
         23    2    1    2    0    0 -0.75447745590E+02  0.41480830506E+03  0.67323706043E+03  0.79963157678E+03  0.91674570025E+02 0.  0.
        254    2    1    2    0    0  0.75447745590E+02 -0.41480830506E+03 -0.10575493612E+03  0.99768336600E+03  0.89801430947E+03 0.  0.
        -24    2    4    4    0    0 -0.84415023220E+02  0.21548239370E+03  0.15779209828E+03  0.29167344058E+03  0.81341819020E+02 0.  0.
         24    2    4    4    0    0  0.15986276881E+03 -0.63029069876E+03 -0.26354703440E+03  0.70600992542E+03  0.78552566145E+02 0.  0.
         13    1    3    3    0    0 -0.18877509827E+02  0.24322381238E+03  0.31506320201E+03  0.39847083275E+03  0.00000000000E+00 0. -1.
        -13    1    3    3    0    0 -0.56570235763E+02  0.17158449268E+03  0.35817385841E+03  0.40116074403E+03  0.00000000000E+00 0.  1.
          4    1    6    6  502    0  0.49410547401E+02 -0.13053930992E+03 -0.26940773726E+02  0.14215385650E+03  0.00000000000E+00 0. -1.
          1    1    5    5  503    0 -0.43694850372E+00 -0.38933576977E+01 -0.46472345234E+01  0.60783177667E+01  0.00000000000E+00 0. -1.
         -2    1    5    5    0  503 -0.83978074716E+02  0.21937575140E+03  0.16243933280E+03  0.28559512282E+03  0.00000000000E+00 0.  1.
         -3    1    6    6    0  502  0.11045222141E+03 -0.49975138884E+03 -0.23660626068E+03  0.56385606892E+03  0.00000000000E+00 0.  1.
<mgrwt>
<rscale>  0 0.17053753E+04</rscale>
<asrwt>0</asrwt>
<pdfrwt beam="1">  1        1 0.94602525E-01 0.17053753E+04</pdfrwt>
<pdfrwt beam="2">  1       -1 0.18190747E+00 0.17053753E+04</pdfrwt>
<totfact> 0.63380588E+00</totfact>
</mgrwt>
</event>
<event>
12    1  0.1980523E-007  0.1771318E+04  0.7818608E-02  0.8721703E-01
         -2   -1    0    0    0  501 -0.00000000000E+00  0.00000000000E+00  0.57594379256E+03  0.57594379256E+03  0.00000000000E+00 0.  1.
          2   -1    0    0  501    0  0.00000000000E+00 -0.00000000000E+00 -0.13619241556E+04  0.13619241556E+04  0.00000000000E+00 0. -1.
         23    2    1    2    0    0  0.38044598176E+03  0.15546157114E+03 -0.84724075046E+03  0.94610241305E+03  0.91572056908E+02 0.  0.
        254    2    1    2    0    0 -0.38044598176E+03 -0.15546157114E+03  0.61260387407E+02  0.99176553512E+03  0.90052129150E+03 0.  0.
        -24    2    4    4    0    0 -0.23586814745E+03 -0.87973475179E+02  0.47361326567E+03  0.54263081304E+03  0.82253015283E+02 0.  0.
         24    2    4    4    0    0 -0.14457783431E+03 -0.67488095965E+02 -0.41235287826E+03  0.44913472208E+03  0.78928506226E+02 0.  0.
         11    1    3    3    0    0  0.26285058729E+03  0.14063534909E+03 -0.54051480363E+03  0.61727221353E+03  0.00000000000E+00 0.  1.
        -11    1    3    3    0    0  0.11759539446E+03  0.14826222058E+02 -0.30672594682E+03  0.32883019952E+03  0.00000000000E+00 0. -1.
          2    1    6    6  502    0 -0.84688712479E+02 -0.78127927366E+02 -0.30012594772E+03  0.32148364741E+03  0.00000000000E+00 0. -1.
          3    1    5    5  503    0 -0.10631756639E+03 -0.79990134176E+01  0.14049268438E+03  0.17636780745E+03  0.00000000000E+00 0. -1.
         -4    1    5    5    0  503 -0.12955058106E+03 -0.79974461762E+02  0.33312058129E+03  0.36626300559E+03  0.00000000000E+00 0.  1.
         -1    1    6    6    0  502 -0.59889121826E+02  0.10639831401E+02 -0.11222693054E+03  0.12765107467E+03  0.00000000000E+00 0.  1.
<mgrwt>
<rscale>  0 0.17713179E+04</rscale>
<asrwt>0</asrwt>
<pdfrwt beam="1">  1        2 0.20952679E+00 0.17713179E+04</pdfrwt>
<pdfrwt beam="2">  1       -2 0.88606738E-01 0.17713179E+04</pdfrwt>
<totfact> 0.15777170E+01</totfact>
</mgrwt>
</event>
<event>
12    1  0.1980523E-007  0.2115039E+04  0.7818608E-02  0.8554647E-01
         -2   -1    0    0    0  501 -0.00000000000E+00  0.00000000000E+00  0.97664653685E+03  0.97664653685E+03  0.00000000000E+00 0.  1.
          2   -1    0    0  501    0  0.00000000000E+00 -0.00000000000E+00 -0.11450894471E+04  0.11450894471E+04  0.00000000000E+00 0. -1.
         23    2    1    2    0    0  0.70877101144E+03  0.24581870092E+03 -0.49724558670E+03  0.90473034104E+03  0.92198894384E+02 0.  0.
        254    2    1    2    0    0 -0.70877101144E+03 -0.24581870092E+03  0.32880267648E+03  0.12170056429E+04  0.90011574499E+03 0.  0.
        -24    2    4    4    0    0 -0.23914942265E+03 -0.47689317298E+03 -0.83331556330E+02  0.54607738785E+03  0.81466683073E+02 0.  0.
         24    2    4    4    0    0 -0.46962158879E+03  0.23107447206E+03  0.41213423281E+03  0.67092825503E+03  0.79688451159E+02 0.  0.
         11    1    3    3    0    0  0.26225772215E+03  0.44404101755E+02 -0.17642983439E+03  0.31918383972E+03  0.00000000000E+00 0.  1.
        -11    1    3    3    0    0  0.44651328929E+03  0.20141459917E+03 -0.32081575231E+03  0.58554650131E+03  0.00000000000E+00 0. -1.
          2    1    6    6  502    0 -0.53102371626E+02  0.64876406723E+00  0.34660118772E+02  0.63416138328E+02  0.00000000000E+00 0. -1.
          1    1    5    5  503    0 -0.77351738917E+02 -0.24042623387E+03 -0.51853101171E+02  0.25783097089E+03  0.00000000000E+00 0. -1.
         -2    1    5    5    0  503 -0.16179768373E+03 -0.23646693911E+03 -0.31478455159E+02  0.28824641696E+03  0.00000000000E+00 0.  1.
         -1    1    6    6    0  502 -0.41651921716E+03  0.23042570800E+03  0.37747411404E+03  0.60751211670E+03  0.00000000000E+00 0.  1.
<mgrwt>
<rscale>  0 0.21150391E+04</rscale>
<asrwt>0</asrwt>
<pdfrwt beam="1">  1        2 0.17616761E+00 0.21150391E+04</pdfrwt>
<pdfrwt beam="2">  1       -2 0.15025331E+00 0.21150391E+04</pdfrwt>
<totfact> 0.56125372E+00</totfact>
</mgrwt>
</event>
<event>
12    1  0.1980523E-007  0.3449226E+04  0.7818608E-02  0.8125929E-01
          2   -1    0    0  501    0  0.00000000000E+00  0.00000000000E+00  0.25209676505E+04  0.25209676505E+04  0.00000000000E+00 0. -1.
         -2   -1    0    0    0  501 -0.00000000000E+00 -0.00000000000E+00 -0.11798204556E+04  0.11798204556E+04  0.00000000000E+00 0.  1.
         23    2    1    2    0    0 -0.13564391238E+04  0.23855077123E+03  0.15132684473E+04  0.20481731555E+04  0.90544542559E+02 0.  0.
        254    2    1    2    0    0  0.13564391238E+04 -0.23855077123E+03 -0.17212125242E+03  0.16526149506E+04  0.89703783768E+03 0.  0.
        -24    2    4    4    0    0  0.12131817066E+04  0.13649310973E+03 -0.21024127161E+03  0.12413922904E+04  0.80082483298E+02 0.  0.
         24    2    4    4    0    0  0.14325741720E+03 -0.37504388096E+03  0.38120019192E+02  0.41122266016E+03  0.80438424498E+02 0.  0.
         13    1    3    3    0    0 -0.54650574042E+03  0.84909077052E+02  0.54439850128E+03  0.77604626400E+03  0.00000000000E+00 0. -1.
        -13    1    3    3    0    0 -0.80993338338E+03  0.15364169418E+03  0.96886994605E+03  0.12721268915E+04  0.00000000000E+00 0.  1.
          2    1    6    6  502    0  0.27219990613E+02 -0.11614094250E+03 -0.21757001806E+02  0.12125598353E+03  0.00000000000E+00 0. -1.
          1    1    5    5  503    0  0.29687640346E+02  0.88270363994E+01  0.60069790371E+01  0.31549268740E+02  0.00000000000E+00 0. -1.
         -2    1    5    5    0  503  0.11834940663E+04  0.12766607333E+03 -0.21624825065E+03  0.12098430217E+04  0.00000000000E+00 0.  1.
         -1    1    6    6    0  502  0.11603742659E+03 -0.25890293846E+03  0.59877020998E+02  0.28996667663E+03  0.00000000000E+00 0.  1.
<mgrwt>
<rscale>  0 0.34492255E+04</rscale>
<asrwt>0</asrwt>
<pdfrwt beam="1">  1        2 0.38784118E+00 0.34492255E+04</pdfrwt>
<pdfrwt beam="2">  1       -2 0.18151084E+00 0.34492255E+04</pdfrwt>
<totfact> 0.49434858E-01</totfact>
</mgrwt>
</event>
<event>
12    1  0.1980523E-007  0.4591218E+04  0.7818608E-02  0.7894859E-01
          2   -1    0    0  501    0  0.00000000000E+00  0.00000000000E+00  0.19295939501E+04  0.19295939501E+04  0.00000000000E+00 0. -1.
         -2   -1    0    0    0  501 -0.00000000000E+00 -0.00000000000E+00 -0.27310511208E+04  0.27310511208E+04  0.00000000000E+00 0.  1.
         23    2    1    2    0    0 -0.15662208276E+04  0.91198480438E+03 -0.16635634861E+04  0.24618264859E+04  0.91554411500E+02 0.  0.
        254    2    1    2    0    0  0.15662208276E+04 -0.91198480438E+03  0.86210631541E+03  0.21988185850E+04  0.89822709082E+03 0.  0.
        -24    2    4    4    0    0  0.15571386288E+04 -0.67914305577E+03  0.52122790469E+03  0.17786805074E+04  0.78165332884E+02 0.  0.
         24    2    4    4    0    0  0.90821987415E+01 -0.23284174861E+03  0.34087841072E+03  0.42013807761E+03  0.77589607159E+02 0.  0.
         13    1    3    3    0    0 -0.66602842872E+03  0.42815028917E+03 -0.76580083195E+03  0.11015250575E+04  0.00000000000E+00 0.  1.
        -13    1    3    3    0    0 -0.90019239883E+03  0.48383451521E+03 -0.89776265416E+03  0.13603014284E+04  0.00000000000E+00 0. -1.
          2    1    6    6  502    0 -0.70612536593E+01 -0.10045860902E+03  0.21187542449E+03  0.23459111009E+03  0.00000000000E+00 0. -1.
          3    1    5    5  503    0  0.56789168460E+03 -0.28702349988E+03  0.20700066236E+03  0.66912833533E+03  0.00000000000E+00 0. -1.
         -4    1    5    5    0  503  0.98924694421E+03 -0.39211955589E+03  0.31422724233E+03  0.11095521721E+04  0.00000000000E+00 0.  1.
         -1    1    6    6    0  502  0.16143452401E+02 -0.13238313959E+03  0.12900298623E+03  0.18554696753E+03  0.00000000000E+00 0.  1.
<mgrwt>
<rscale>  0 0.45912176E+04</rscale>
<asrwt>0</asrwt>
<pdfrwt beam="1">  1        2 0.29686061E+00 0.45912176E+04</pdfrwt>
<pdfrwt beam="2">  1       -2 0.42016171E+00 0.45912176E+04</pdfrwt>
<totfact> 0.30096406E-02</totfact>
</mgrwt>
</event>
<event>
12    1  0.1980523E-007  0.2099521E+04  0.7818608E-02  0.8561454E-01
          3   -1    0    0  501    0  0.00000000000E+00  0.00000000000E+00  0.25415104936E+04  0.25415104936E+04  0.00000000000E+00 0. -1.
         -3   -1    0    0    0  501 -0.00000000000E+00 -0.00000000000E+00 -0.43359931037E+03  0.43359931037E+03  0.00000000000E+00 0.  1.
         23    2    1    2    0    0 -0.21286227895E+02 -0.42156582395E+03  0.19138616632E+04  0.19619277059E+04  0.90127740590E+02 0.  0.
        254    2    1    2    0    0  0.21286227895E+02  0.42156582395E+03  0.19404952003E+03  0.10131820981E+04  0.90039541333E+03 0.  0.
        -24    2    4    4    0    0  0.43178842879E+03  0.23330775106E+03 -0.39811803529E+02  0.49841508070E+03  0.77193646320E+02 0.  0.
         24    2    4    4    0    0 -0.41050220089E+03  0.18825807290E+03  0.23386132356E+03  0.51476701744E+03  0.79629169555E+02 0.  0.
         11    1    3    3    0    0  0.24479395050E+02 -0.20987650019E+03  0.81650169836E+03  0.84339931796E+03  0.00000000000E+00 0.  1.
        -11    1    3    3    0    0 -0.45765622945E+02 -0.21168932377E+03  0.10973599649E+04  0.11185283879E+04  0.00000000000E+00 0. -1.
          2    1    6    6  502    0 -0.18869368167E+03  0.62939755230E+02  0.14009709265E+03  0.24329799354E+03  0.00000000000E+00 0. -1.
          3    1    5    5  503    0  0.36249587158E+03  0.22592635974E+03 -0.33886829935E+02  0.42847904755E+03  0.00000000000E+00 0. -1.
         -4    1    5    5    0  503  0.69292557200E+02  0.73813913132E+01 -0.59249735933E+01  0.69936033153E+02  0.00000000000E+00 0.  1.
         -1    1    6    6    0  502 -0.22180851922E+03  0.12531831767E+03  0.93764230902E+02  0.27146902390E+03  0.00000000000E+00 0.  1.
<mgrwt>
<rscale>  0 0.20995211E+04</rscale>
<asrwt>0</asrwt>
<pdfrwt beam="1">  1        3 0.39100160E+00 0.20995211E+04</pdfrwt>
<pdfrwt beam="2">  1       -3 0.66707588E-01 0.20995211E+04</pdfrwt>
<totfact> 0.64904143E-02</totfact>
</mgrwt>
</event>
<event>
12    1  0.1980523E-007  0.2809075E+04  0.7818608E-02  0.8300457E-01
         -1   -1    0    0    0  501 -0.00000000000E+00  0.00000000000E+00  0.93532463394E+03  0.93532463394E+03  0.00000000000E+00 0.  1.
          1   -1    0    0  501    0  0.00000000000E+00 -0.00000000000E+00 -0.21091340347E+04  0.21091340347E+04  0.00000000000E+00 0. -1.
         23    2    1    2    0    0 -0.72844573503E+03  0.90351197836E+03 -0.10536789020E+04  0.15703739374E+04  0.94170010869E+02 0.  0.
        254    2    1    2    0    0  0.72844573503E+03 -0.90351197836E+03 -0.12013049882E+03  0.14740847312E+04  0.90084814160E+03 0.  0.
        -24    2    4    4    0    0  0.80301603380E+03 -0.41345282486E+03  0.12416975996E+03  0.91556983442E+03  0.84095204859E+02 0.  0.
         24    2    4    4    0    0 -0.74570298774E+02 -0.49005915351E+03 -0.24430025877E+03  0.55851489683E+03  0.80855241934E+02 0.  0.
         13    1    3    3    0    0 -0.40574321910E+03  0.52963895106E+03 -0.54634325132E+03  0.86234327654E+03  0.00000000000E+00 0. -1.
        -13    1    3    3    0    0 -0.32270251593E+03  0.37387302730E+03 -0.50733565064E+03  0.70803066088E+03  0.00000000000E+00 0.  1.
          2    1    6    6  502    0 -0.18171027800E+02 -0.10938056526E+03 -0.94032343434E+02  0.14538354762E+03  0.00000000000E+00 0. -1.
          3    1    5    5  503    0  0.36488730135E+03 -0.20842968668E+03  0.19649180986E+02  0.42068012466E+03  0.00000000000E+00 0. -1.
         -4    1    5    5    0  503  0.43812873246E+03 -0.20502313818E+03  0.10452057897E+03  0.49488970975E+03  0.00000000000E+00 0.  1.
         -1    1    6    6    0  502 -0.56399270974E+02 -0.38067858825E+03 -0.15026791534E+03  0.41313134921E+03  0.00000000000E+00 0.  1.
<mgrwt>
<rscale>  0 0.28090746E+04</rscale>
<asrwt>0</asrwt>
<pdfrwt beam="1">  1        1 0.32448215E+00 0.28090746E+04</pdfrwt>
<pdfrwt beam="2">  1       -1 0.14389610E+00 0.28090746E+04</pdfrwt>
<totfact> 0.84723593E-01</totfact>
</mgrwt>
</event>
<event>
12    1  0.1980523E-007  0.1387432E+04  0.7818608E-02  0.8962967E-01
         -1   -1    0    0    0  501 -0.00000000000E+00  0.00000000000E+00  0.27556369990E+03  0.27556369990E+03  0.00000000000E+00 0.  1.
          1   -1    0    0  501    0  0.00000000000E+00 -0.00000000000E+00 -0.17463900272E+04  0.17463900272E+04  0.00000000000E+00 0. -1.
         23    2    1    2    0    0 -0.90761339611E+02  0.38299561203E+03 -0.43039255782E+03  0.59126974159E+03  0.97153970047E+02 0.  0.
        254    2    1    2    0    0  0.90761339611E+02 -0.38299561203E+03 -0.10404337695E+04  0.14306839855E+04  0.89968382119E+03 0.  0.
        -24    2    4    4    0    0  0.15463398640E+02 -0.34268191504E+03  0.29366261997E+02  0.35461880616E+03  0.84982990911E+02 0.  0.
         24    2    4    4    0    0  0.75297940971E+02 -0.40313696986E+02 -0.10698000315E+04  0.10760651793E+04  0.78416763451E+02 0.  0.
         11    1    3    3    0    0 -0.60518984073E+02  0.85004729488E+02 -0.13460897713E+03  0.17031714004E+03  0.00000000000E+00 0.  1.
        -11    1    3    3    0    0 -0.30242355538E+02  0.29799088254E+03 -0.29578358068E+03  0.42095260154E+03  0.00000000000E+00 0. -1.
          4    1    6    6  502    0  0.17916068638E+02  0.83728478718E+01 -0.54446892675E+02  0.57927145786E+02  0.00000000000E+00 0. -1.
          3    1    5    5  503    0 -0.17997791835E+02 -0.13427331964E+03  0.45537038422E+02  0.14292259005E+03  0.00000000000E+00 0. -1.
         -4    1    5    5    0  503  0.33461190475E+02 -0.20840859541E+03 -0.16170776425E+02  0.21169621611E+03  0.00000000000E+00 0.  1.
         -3    1    6    6    0  502  0.57381872333E+02 -0.48686544857E+02 -0.10153531388E+04  0.10181380335E+04  0.00000000000E+00 0.  1.
<mgrwt>
<rscale>  0 0.13874317E+04</rscale>
<asrwt>0</asrwt>
<pdfrwt beam="1">  1        1 0.26867539E+00 0.13874317E+04</pdfrwt>
<pdfrwt beam="2">  1       -1 0.42394415E-01 0.13874317E+04</pdfrwt>
<totfact> 0.23672139E+01</totfact>
</mgrwt>
</event>
<event>
12    1  0.1980523E-007  0.1800528E+04  0.7818608E-02  0.8706019E-01
          2   -1    0    0  501    0  0.00000000000E+00  0.00000000000E+00  0.16430027764E+04  0.16430027764E+04  0.00000000000E+00 0. -1.
         -2   -1    0    0    0  501 -0.00000000000E+00 -0.00000000000E+00 -0.49328902793E+03  0.49328902793E+03  0.00000000000E+00 0.  1.
         23    2    1    2    0    0  0.14856710431E+03  0.49946034744E+03  0.90372795745E+03  0.10476259765E+04  0.96245220135E+02 0.  0.
        254    2    1    2    0    0 -0.14856710431E+03 -0.49946034744E+03  0.24598579099E+03  0.10886658278E+04  0.92366197936E+03 0.  0.
        -24    2    4    4    0    0  0.25943639403E+03 -0.49853568985E+03  0.34012425511E+03  0.66245618823E+03  0.85548908871E+02 0.  0.
         24    2    4    4    0    0 -0.40800349834E+03 -0.92465758604E+00 -0.94138464129E+02  0.42620963957E+03  0.79529219690E+02 0.  0.
         13    1    3    3    0    0  0.57604437588E+02  0.23867569697E+03  0.33459177675E+03  0.41501327282E+03  0.00000000000E+00 0.  1.
        -13    1    3    3    0    0  0.90962666726E+02  0.26078465047E+03  0.56913618071E+03  0.63261270367E+03  0.00000000000E+00 0. -1.
          2    1    6    6  502    0 -0.16309665006E+03 -0.10019185878E+02 -0.76712829500E+02  0.18051526129E+03  0.00000000000E+00 0. -1.
          1    1    5    5  503    0  0.13143453684E+03 -0.20942723322E+03  0.10592995233E+03  0.26899062863E+03  0.00000000000E+00 0. -1.
         -2    1    5    5    0  503  0.12800185718E+03 -0.28910845664E+03  0.23419430278E+03  0.39346555961E+03  0.00000000000E+00 0.  1.
         -1    1    6    6    0  502 -0.24490684828E+03  0.90945282918E+01 -0.17425634629E+02  0.24569437828E+03  0.00000000000E+00 0.  1.
<mgrwt>
<rscale>  0 0.18005280E+04</rscale>
<asrwt>0</asrwt>
<pdfrwt beam="1">  1        2 0.25276966E+00 0.18005280E+04</pdfrwt>
<pdfrwt beam="2">  1       -2 0.75890620E-01 0.18005280E+04</pdfrwt>
<totfact> 0.15492361E+01</totfact>
</mgrwt>
</event>
<event>
12    1  0.1980523E-007  0.4493207E+04  0.7818608E-02  0.7911827E-01
         -2   -1    0    0    0  501 -0.00000000000E+00  0.00000000000E+00  0.28386161203E+04  0.28386161203E+04  0.00000000000E+00 0.  1.
          2   -1    0    0  501    0  0.00000000000E+00 -0.00000000000E+00 -0.17780594255E+04  0.17780594255E+04  0.00000000000E+00 0. -1.
         23    2    1    2    0    0  0.15821704235E+04  0.11741497955E+04  0.14087201593E+04  0.24237198513E+04  0.89635032087E+02 0.  0.
        254    2    1    2    0    0 -0.15821704235E+04 -0.11741497955E+04 -0.34816346450E+03  0.21929556945E+04  0.89774489079E+03 0.  0.
        -24    2    4    4    0    0 -0.10298760249E+04 -0.91189933854E+03 -0.62973555834E+03  0.15150587058E+04  0.81430818911E+02 0.  0.
         24    2    4    4    0    0 -0.55229439866E+03 -0.26225045694E+03  0.28157209384E+03  0.67789698878E+03  0.80355948178E+02 0.  0.
         11    1    3    3    0    0  0.12805623680E+04  0.99302322359E+03  0.11575119344E+04  0.19914238573E+04  0.00000000000E+00 0. -1.
        -11    1    3    3    0    0  0.30160805553E+03  0.18112657188E+03  0.25120822489E+03  0.43229599403E+03  0.00000000000E+00 0.  1.
          4    1    6    6  502    0 -0.11979571009E+03 -0.32337302887E+02  0.83445905615E+02  0.14953237936E+03  0.00000000000E+00 0. -1.
          1    1    5    5  503    0 -0.44801892974E+02 -0.63610824753E+02 -0.41475686848E+02  0.88169037872E+02  0.00000000000E+00 0. -1.
         -2    1    5    5    0  503 -0.98507413189E+03 -0.84828851378E+03 -0.58825987150E+03  0.14268896679E+04  0.00000000000E+00 0.  1.
         -3    1    6    6    0  502 -0.43249868857E+03 -0.22991315405E+03  0.19812618822E+03  0.52836460941E+03  0.00000000000E+00 0.  1.
<mgrwt>
<rscale>  0 0.44932074E+04</rscale>
<asrwt>0</asrwt>
<pdfrwt beam="1">  1        2 0.27354760E+00 0.44932074E+04</pdfrwt>
<pdfrwt beam="2">  1       -2 0.43671017E+00 0.44932074E+04</pdfrwt>
<totfact> 0.28619564E-02</totfact>
</mgrwt>
</event>
<event>
12    1  0.1980523E-007  0.2095687E+04  0.7818608E-02  0.8563146E-01
          2   -1    0    0  501    0  0.00000000000E+00  0.00000000000E+00  0.34940541174E+04  0.34940541174E+04  0.00000000000E+00 0.  1.
         -2   -1    0    0    0  501 -0.00000000000E+00 -0.00000000000E+00 -0.31424122564E+03  0.31424122564E+03  0.00000000000E+00 0. -1.
         23    2    1    2    0    0 -0.37119913247E+03 -0.20434740971E+02  0.26981519896E+04  0.27251712874E+04  0.91257942930E+02 0.  0.
        254    2    1    2    0    0  0.37119913247E+03  0.20434740971E+02  0.48166090219E+03  0.10831240557E+04  0.89607707295E+03 0.  0.
        -24    2    4    4    0    0 -0.96227381276E+02 -0.39713418990E+02 -0.20825542445E+03  0.24378508192E+03  0.72277104224E+02 0.  0.
         24    2    4    4    0    0  0.46742651374E+03  0.60148159961E+02  0.68991632665E+03  0.83933897375E+03  0.80000176102E+02 0.  0.
         11    1    3    3    0    0 -0.53419798124E+02  0.99768182316E+01  0.22340565732E+03  0.22992020237E+03  0.00000000000E+00 0. -1.
        -11    1    3    3    0    0 -0.31777933434E+03 -0.30411559202E+02  0.24747463322E+04  0.24952510850E+04  0.00000000000E+00 0.  1.
          2    1    6    6  502    0  0.59962394821E+02  0.35422313534E+02  0.10850474700E+03  0.12893218842E+03  0.00000000000E+00 0. -1.
          1    1    5    5  503    0 -0.64876094020E+01  0.17652855606E+01 -0.87340401650E+02  0.87598807464E+02  0.00000000000E+00 0. -1.
         -2    1    5    5    0  503 -0.89739771874E+02 -0.41478704551E+02 -0.12091502280E+03  0.15618627445E+03  0.00000000000E+00 0.  1.
         -1    1    6    6    0  502  0.40746411892E+03  0.24725846427E+02  0.58141157965E+03  0.71040678533E+03  0.00000000000E+00 0.  1.
<mgrwt>
<rscale>  0 0.20956869E+04</rscale>
<asrwt>0</asrwt>
<pdfrwt beam="1">  1        2 0.53754676E+00 0.20956869E+04</pdfrwt>
<pdfrwt beam="2">  1       -2 0.48344807E-01 0.20956869E+04</pdfrwt>
<totfact> 0.30806430E+00</totfact>
</mgrwt>
</event>
<event>
12    1  0.1980523E-007  0.1322838E+04  0.7818608E-02  0.9011648E-01
         -2   -1    0    0    0  501 -0.00000000000E+00  0.00000000000E+00  0.19418493692E+03  0.19418493692E+03  0.00000000000E+00 0.  1.
          2   -1    0    0  501    0  0.00000000000E+00 -0.00000000000E+00 -0.22528777895E+04  0.22528777895E+04  0.00000000000E+00 0. -1.
         23    2    1    2    0    0 -0.12775552787E+03 -0.32186103647E+03 -0.49760469179E+03  0.61069933162E+03  0.73669821834E+02 0.  0.
        254    2    1    2    0    0  0.12775552787E+03  0.32186103647E+03 -0.15610881608E+04  0.18363633948E+04  0.90294976067E+03 0.  0.
        -24    2    4    4    0    0 -0.25767664429E+03  0.31115378353E+03 -0.12996476769E+04  0.13634268442E+04  0.81453946840E+02 0.  0.
         24    2    4    4    0    0  0.38543217216E+03  0.10707252948E+02 -0.26144048390E+03  0.47293655059E+03  0.81518400766E+02 0.  0.
         13    1    3    3    0    0 -0.52186986810E+02 -0.21930423962E+03 -0.29313154198E+03  0.36978903717E+03  0.00000000000E+00 0. -1.
        -13    1    3    3    0    0 -0.75568541057E+02 -0.10255679685E+03 -0.20447314981E+03  0.24091029445E+03  0.00000000000E+00 0.  1.
          2    1    6    6  502    0  0.30051434930E+03 -0.23541500028E+02 -0.18516244500E+03  0.35376292541E+03  0.00000000000E+00 0. -1.
          3    1    5    5  503    0 -0.14305550184E+03  0.19772830851E+03 -0.89919750057E+03  0.93172823593E+03  0.00000000000E+00 0. -1.
         -4    1    5    5    0  503 -0.11462114245E+03  0.11342547502E+03 -0.40045017629E+03  0.43169860826E+03  0.00000000000E+00 0.  1.
         -1    1    6    6    0  502  0.84917822855E+02  0.34248752976E+02 -0.76278038907E+02  0.11917362518E+03  0.00000000000E+00 0.  1.
<mgrwt>
<rscale>  0 0.13228378E+04</rscale>
<asrwt>0</asrwt>
<pdfrwt beam="1">  1        2 0.34659657E+00 0.13228378E+04</pdfrwt>
<pdfrwt beam="2">  1       -2 0.29874607E-01 0.13228378E+04</pdfrwt>
<totfact> 0.48875212E+01</totfact>
</mgrwt>
</event>
<event>
12    1  0.1980523E-007  0.2381789E+04  0.7818608E-02  0.8446353E-01
         -2   -1    0    0    0  501 -0.00000000000E+00  0.00000000000E+00  0.15090529625E+04  0.15090529625E+04  0.00000000000E+00 0.  1.
          2   -1    0    0  501    0  0.00000000000E+00 -0.00000000000E+00 -0.93981409575E+03  0.93981409575E+03  0.00000000000E+00 0. -1.
         23    2    1    2    0    0 -0.53609274584E+03 -0.25961455849E+02 -0.64434881021E+03  0.84374757244E+03  0.93033044897E+02 0.  0.
        254    2    1    2    0    0  0.53609274584E+03  0.25961455849E+02  0.12135876769E+04  0.16051194858E+04  0.90307479463E+03 0.  0.
        -24    2    4    4    0    0  0.55118243446E+03 -0.12772446146E+02  0.20727352830E+03  0.59441226117E+03  0.79990057232E+02 0.  0.
         24    2    4    4    0    0 -0.15089688627E+02  0.38733901994E+02  0.10063141486E+04  0.10107072246E+04  0.84456582145E+02 0.  0.
         13    1    3    3    0    0 -0.45711783932E+03 -0.27625020417E+02 -0.49207085513E+03  0.67220055582E+03  0.00000000000E+00 0.  1.
        -13    1    3    3    0    0 -0.78974906520E+02  0.16635645688E+01 -0.15227795508E+03  0.17154701661E+03  0.00000000000E+00 0. -1.
          4    1    6    6  502    0 -0.37936685031E+02 -0.10820825906E+02  0.44707836762E+03  0.44881549566E+03  0.00000000000E+00 0. -1.
          1    1    5    5  503    0  0.34588299286E+03  0.30222547486E+02  0.13585427861E+03  0.37283351799E+03  0.00000000000E+00 0. -1.
         -2    1    5    5    0  503  0.20529944161E+03 -0.42994993632E+02  0.71419249689E+02  0.22157874318E+03  0.00000000000E+00 0.  1.
         -3    1    6    6    0  502  0.22846996404E+02  0.49554727900E+02  0.55923578102E+03  0.56189172896E+03  0.00000000000E+00 0.  1.
<mgrwt>
<rscale>  0 0.23817886E+04</rscale>
<asrwt>0</asrwt>
<pdfrwt beam="1">  1        2 0.14458678E+00 0.23817886E+04</pdfrwt>
<pdfrwt beam="2">  1       -2 0.23216199E+00 0.23817886E+04</pdfrwt>
<totfact> 0.20576184E+00</totfact>
</mgrwt>
</event>
<event>
12    1  0.1980523E-007  0.2223022E+04  0.7818608E-02  0.8508907E-01
          2   -1    0    0  501    0  0.00000000000E+00  0.00000000000E+00  0.14727719953E+04  0.14727719953E+04  0.00000000000E+00 0. -1.
         -2   -1    0    0    0  501 -0.00000000000E+00 -0.00000000000E+00 -0.83886452909E+03  0.83886452909E+03  0.00000000000E+00 0.  1.
         23    2    1    2    0    0  0.88743527477E+03  0.25310267977E+03  0.18052493920E+03  0.94449887486E+03  0.88806179534E+02 0.  0.
        254    2    1    2    0    0 -0.88743527477E+03 -0.25310267977E+03  0.45338252699E+03  0.13671376495E+04  0.90105899004E+03 0.  0.
        -24    2    4    4    0    0 -0.11759308238E+02  0.17297272669E+03 -0.12885289928E+03  0.23004945625E+03  0.79131770855E+02 0.  0.
         24    2    4    4    0    0 -0.87567596653E+03 -0.42607540647E+03  0.58223542627E+03  0.11370881933E+04  0.74985447203E+02 0.  0.
         13    1    3    3    0    0  0.37731935345E+03  0.62274417944E+02  0.71301870093E+02  0.38901407982E+03  0.00000000000E+00 0. -1.
        -13    1    3    3    0    0  0.51011592132E+03  0.19082826183E+03  0.10922306911E+03  0.55548479504E+03  0.00000000000E+00 0.  1.
          2    1    6    6  502    0 -0.40910102808E+03 -0.23105210084E+03  0.30838425669E+03  0.56200495928E+03  0.00000000000E+00 0. -1.
          3    1    5    5  503    0  0.22447749099E+02  0.13096990472E+03 -0.70479756512E+02  0.15041413982E+03  0.00000000000E+00 0. -1.
         -4    1    5    5    0  503 -0.34207057337E+02  0.42002821975E+02 -0.58373142772E+02  0.79635316428E+02  0.00000000000E+00 0.  1.
         -1    1    6    6    0  502 -0.46657493845E+03 -0.19502330563E+03  0.27385116959E+03  0.57508323399E+03  0.00000000000E+00 0.  1.
<mgrwt>
<rscale>  0 0.22230215E+04</rscale>
<asrwt>0</asrwt>
<pdfrwt beam="1">  1        2 0.22658031E+00 0.22230215E+04</pdfrwt>
<pdfrwt beam="2">  1       -2 0.12905608E+00 0.22230215E+04</pdfrwt>
<totfact> 0.53092990E+00</totfact>
</mgrwt>
</event>
<event>
12    1  0.1980523E-007  0.1300460E+04  0.7818608E-02  0.9029200E-01
          1   -1    0    0  501    0  0.00000000000E+00  0.00000000000E+00  0.21978847478E+04  0.21978847478E+04  0.00000000000E+00 0. -1.
         -1   -1    0    0    0  501 -0.00000000000E+00 -0.00000000000E+00 -0.19236632810E+03  0.19236632810E+03  0.00000000000E+00 0.  1.
         23    2    1    2    0    0 -0.11174566596E+03 -0.29625115791E+03  0.70655260140E+03  0.77974106510E+03  0.92345588078E+02 0.  0.
        254    2    1    2    0    0  0.11174566596E+03  0.29625115791E+03  0.12989658183E+04  0.16105100108E+04  0.89787440958E+03 0.  0.
        -24    2    4    4    0    0  0.67739503874E+02  0.60436013692E+03  0.99081495929E+03  0.11652853811E+04  0.79598494395E+02 0.  0.
         24    2    4    4    0    0  0.44006162091E+02 -0.30810897901E+03  0.30815085906E+03  0.44522462977E+03  0.80002086027E+02 0.  0.
         11    1    3    3    0    0 -0.33091986320E+02 -0.10628085093E+03  0.35966573212E+03  0.37649719480E+03  0.00000000000E+00 0. -1.
        -11    1    3    3    0    0 -0.78653679644E+02 -0.18997030698E+03  0.34688686928E+03  0.40324387030E+03  0.00000000000E+00 0.  1.
          2    1    6    6  502    0  0.51496071197E+02 -0.28185649159E+03  0.30376582529E+03  0.41757466855E+03  0.00000000000E+00 0. -1.
          3    1    5    5  503    0  0.48345652847E+02  0.31049115709E+03  0.44010180406E+03  0.54076950609E+03  0.00000000000E+00 0. -1.
         -4    1    5    5    0  503  0.19393851027E+02  0.29386897983E+03  0.55071315523E+03  0.62451587498E+03  0.00000000000E+00 0.  1.
         -1    1    6    6    0  502 -0.74899091064E+01 -0.26252487426E+02  0.43850337615E+01  0.27649961222E+02  0.00000000000E+00 0.  1.
<mgrwt>
<rscale>  0 0.13004599E+04</rscale>
<asrwt>0</asrwt>
<pdfrwt beam="1">  1        1 0.33813610E+00 0.13004599E+04</pdfrwt>
<pdfrwt beam="2">  1       -1 0.29594821E-01 0.13004599E+04</pdfrwt>
<totfact> 0.22496219E+01</totfact>
</mgrwt>
</event>
<event>
12    1  0.1980523E-007  0.1840108E+04  0.7818608E-02  0.8685256E-01
          2   -1    0    0  501    0  0.00000000000E+00  0.00000000000E+00  0.18932716370E+04  0.18932716370E+04  0.00000000000E+00 0. -1.
         -2   -1    0    0    0  501 -0.00000000000E+00 -0.00000000000E+00 -0.44710942649E+03  0.44710942649E+03  0.00000000000E+00 0.  1.
         23    2    1    2    0    0  0.21073875125E+03  0.63913818655E+03  0.29085813175E+03  0.73889469950E+03  0.91970002489E+02 0.  0.
        254    2    1    2    0    0 -0.21073875125E+03 -0.63913818655E+03  0.11553040787E+04  0.16014863640E+04  0.88154558410E+03 0.  0.
        -24    2    4    4    0    0 -0.94995240823E+02 -0.32091114146E+02  0.92817677460E+03  0.93709369546E+03  0.81108161059E+02 0.  0.
         24    2    4    4    0    0 -0.11574351043E+03 -0.60704707240E+03  0.22712730413E+03  0.66439266850E+03  0.89039863841E+02 0.  0.
         11    1    3    3    0    0  0.90130839968E+02  0.19580215256E+03  0.13200497386E+03  0.25275949910E+03  0.00000000000E+00 0.  1.
        -11    1    3    3    0    0  0.12060791128E+03  0.44333603399E+03  0.15885315789E+03  0.48613520040E+03  0.00000000000E+00 0. -1.
          2    1    6    6  502    0 -0.10141441009E+03 -0.29538930695E+03  0.10887341508E+03  0.33074634654E+03  0.00000000000E+00 0. -1.
          1    1    5    5  503    0 -0.44902948158E+02 -0.57242494623E+02  0.50082773347E+03  0.50608437691E+03  0.00000000000E+00 0. -1.
         -2    1    5    5    0  503 -0.50092292665E+02  0.25151380477E+02  0.42734904113E+03  0.43100931855E+03  0.00000000000E+00 0.  1.
         -1    1    6    6    0  502 -0.14329100333E+02 -0.31165776546E+03  0.11825388905E+03  0.33364632196E+03  0.00000000000E+00 0.  1.
<mgrwt>
<rscale>  0 0.18401083E+04</rscale>
<asrwt>0</asrwt>
<pdfrwt beam="1">  1        2 0.29127256E+00 0.18401083E+04</pdfrwt>
<pdfrwt beam="2">  1       -2 0.68786067E-01 0.18401083E+04</pdfrwt>
<totfact> 0.13918322E+01</totfact>
</mgrwt>
</event>
<event>
12    1  0.1980523E-007  0.1871361E+04  0.7818608E-02  0.8669245E-01
          1   -1    0    0  501    0  0.00000000000E+00  0.00000000000E+00  0.61748851686E+03  0.61748851686E+03  0.00000000000E+00 0. -1.
         -1   -1    0    0    0  501 -0.00000000000E+00 -0.00000000000E+00 -0.14178367969E+04  0.14178367969E+04  0.00000000000E+00 0.  1.
         23    2    1    2    0    0 -0.47816899826E+03 -0.51023375978E+03 -0.47382980326E+03  0.84915224588E+03  0.86952709573E+02 0.  0.
        254    2    1    2    0    0  0.47816899826E+03  0.51023375978E+03 -0.32651847677E+03  0.11861730679E+04  0.90078196627E+03 0.  0.
        -24    2    4    4    0    0  0.69974990191E+03  0.16984053804E+03 -0.23497059286E+03  0.76230943759E+03  0.86074186316E+02 0.  0.
         24    2    4    4    0    0 -0.22158090364E+03  0.34039322174E+03 -0.91547883911E+02  0.42386363028E+03  0.79458918702E+02 0.  0.
         13    1    3    3    0    0 -0.31689050497E+03 -0.32646140363E+03 -0.25809086355E+03  0.52307507496E+03  0.00000000000E+00 0. -1.
        -13    1    3    3    0    0 -0.16127849330E+03 -0.18377235615E+03 -0.21573893971E+03  0.32607717092E+03  0.00000000000E+00 0.  1.
          2    1    6    6  502    0 -0.46981778360E+02  0.12077980608E+03 -0.55559122070E+02  0.14100306770E+03  0.00000000000E+00 0. -1.
          3    1    5    5  503    0  0.12314319705E+03  0.53360530632E+02 -0.18433960918E+02  0.13546735446E+03  0.00000000000E+00 0. -1.
         -4    1    5    5    0  503  0.57660670486E+03  0.11648000741E+03 -0.21653663194E+03  0.62684208313E+03  0.00000000000E+00 0.  1.
         -1    1    6    6    0  502 -0.17459912528E+03  0.21961341566E+03 -0.35988761841E+02  0.28286056259E+03  0.00000000000E+00 0.  1.
<mgrwt>
<rscale>  0 0.18713609E+04</rscale>
<asrwt>0</asrwt>
<pdfrwt beam="1">  1        1 0.94998234E-01 0.18713609E+04</pdfrwt>
<pdfrwt beam="2">  1       -1 0.21812874E+00 0.18713609E+04</pdfrwt>
<totfact> 0.34892403E+00</totfact>
</mgrwt>
</event>
<event>
12    1  0.1980523E-007  0.1854658E+04  0.7818608E-02  0.8677761E-01
          1   -1    0    0  501    0  0.00000000000E+00  0.00000000000E+00  0.50865482014E+03  0.50865482014E+03  0.00000000000E+00 0. -1.
         -1   -1    0    0    0  501 -0.00000000000E+00 -0.00000000000E+00 -0.16906148222E+04  0.16906148222E+04  0.00000000000E+00 0.  1.
         23    2    1    2    0    0  0.65046215630E+03 -0.34869546204E+02 -0.13158011875E+03  0.67055350446E+03  0.89508506049E+02 0.  0.
        254    2    1    2    0    0 -0.65046215630E+03  0.34869546204E+02 -0.10503798833E+04  0.15287161379E+04  0.89964338988E+03 0.  0.
        -24    2    4    4    0    0 -0.30377312598E+03 -0.41058135720E+03 -0.34538226427E+03  0.62190925288E+03  0.81406679086E+02 0.  0.
         24    2    4    4    0    0 -0.34668903032E+03  0.44545090340E+03 -0.70499761906E+03  0.90680688503E+03  0.81592234648E+02 0.  0.
         11    1    3    3    0    0  0.47313787761E+03  0.55135452937E+01 -0.68732641742E+02  0.47813599159E+03  0.00000000000E+00 0. -1.
        -11    1    3    3    0    0  0.17732427869E+03 -0.40383091497E+02 -0.62847477003E+02  0.19241751287E+03  0.00000000000E+00 0.  1.
          2    1    6    6  502    0 -0.26928520656E+03  0.28883136775E+03 -0.50968252947E+03  0.64475915062E+03  0.00000000000E+00 0. -1.
          1    1    5    5  503    0 -0.78200818766E+02 -0.16349600924E+03 -0.99904721848E+02  0.20694749706E+03  0.00000000000E+00 0. -1.
         -2    1    5    5    0  503 -0.22557230721E+03 -0.24708534796E+03 -0.24547754242E+03  0.41496175582E+03  0.00000000000E+00 0.  1.
         -1    1    6    6    0  502 -0.77403823764E+02  0.15661953565E+03 -0.19531508960E+03  0.26204773440E+03  0.00000000000E+00 0.  1.
<mgrwt>
<rscale>  0 0.18546583E+04</rscale>
<asrwt>0</asrwt>
<pdfrwt beam="1">  1        1 0.78254588E-01 0.18546583E+04</pdfrwt>
<pdfrwt beam="2">  1       -1 0.26009459E+00 0.18546583E+04</pdfrwt>
<totfact> 0.24361022E+00</totfact>
</mgrwt>
</event>
<event>
12    1  0.1980523E-007  0.1376484E+04  0.7818608E-02  0.8971019E-01
          1   -1    0    0  501    0  0.00000000000E+00  0.00000000000E+00  0.61796235212E+03  0.61796235212E+03  0.00000000000E+00 0. -1.
         -1   -1    0    0    0  501 -0.00000000000E+00 -0.00000000000E+00 -0.76651449058E+03  0.76651449058E+03  0.00000000000E+00 0.  1.
         23    2    1    2    0    0  0.74627180940E+02 -0.33718094645E+03  0.13070264363E+03  0.38033741203E+03  0.91176527423E+02 0.  0.
        254    2    1    2    0    0 -0.74627180940E+02  0.33718094645E+03 -0.27925478209E+03  0.10041394307E+04  0.90058456356E+03 0.  0.
        -24    2    4    4    0    0 -0.11596593038E+02  0.33880933045E+03 -0.58567921483E+03  0.68129417565E+03  0.78837603473E+02 0.  0.
         24    2    4    4    0    0 -0.63030587902E+02 -0.16283840016E+01  0.30642443274E+03  0.32284525502E+03  0.79734679192E+02 0.  0.
         13    1    3    3    0    0  0.31207159329E+02 -0.28928518748E+03  0.12032728069E+03  0.31486260649E+03  0.00000000000E+00 0. -1.
        -13    1    3    3    0    0  0.43420021611E+02 -0.47895758964E+02  0.10375362948E+02  0.65474805534E+02  0.00000000000E+00 0.  1.
          2    1    6    6  502    0 -0.23861595704E+02  0.34848431040E+02  0.83353931254E+02  0.93443387947E+02  0.00000000000E+00 0. -1.
          1    1    5    5  503    0 -0.10160232577E+02  0.22344834297E+02 -0.89316502092E+02  0.92628070754E+02  0.00000000000E+00 0. -1.
         -2    1    5    5    0  503 -0.14363604609E+01  0.31646449615E+03 -0.49636271274E+03  0.58866610490E+03  0.00000000000E+00 0.  1.
         -1    1    6    6    0  502 -0.39168992199E+02 -0.36476815042E+02  0.22307050148E+03  0.22940186708E+03  0.00000000000E+00 0.  1.
<mgrwt>
<rscale>  0 0.13764841E+04</rscale>
<asrwt>0</asrwt>
<pdfrwt beam="1">  1        1 0.95071132E-01 0.13764841E+04</pdfrwt>
<pdfrwt beam="2">  1       -1 0.11792531E+00 0.13764841E+04</pdfrwt>
<totfact> 0.20713141E+01</totfact>
</mgrwt>
</event>
