<event>
12    1  0.2502641E-008  0.2940983E+04  0.7818608E-02  0.8260787E-01
          1   -1    0    0  501    0  0.00000000000E+00  0.00000000000E+00  0.30993204737E+04  0.30993204737E+04  0.00000000000E+00 0. -1.
         -1   -1    0    0    0  501 -0.00000000000E+00 -0.00000000000E+00 -0.69768345357E+03  0.69768345357E+03  0.00000000000E+00 0.  1.
         23    2    1    2    0    0 -0.10565426442E+04  0.20128708425E+03  0.21013241377E+04  0.23623618779E+04  0.91606009687E+02 0.  0.
        254    2    1    2    0    0  0.10565426442E+04 -0.20128708425E+03  0.30031288234E+03  0.14346420493E+04  0.90067260038E+03 0.  0.
        -24    2    4    4    0    0 -0.14464978072E+03  0.13376334429E+02  0.59519023622E+02  0.18820678975E+03  0.10381134886E+03 0.  0.
         24    2    4    4    0    0  0.12011924249E+04 -0.21466341868E+03  0.24079385872E+03  0.12464352596E+04  0.81704032345E+02 0.  0.
         11    1    3    3    0    0 -0.51349225711E+03  0.58365168714E+02  0.95392754963E+03  0.10849232973E+04  0.00000000000E+00 0.  1.
        -11    1    3    3    0    0 -0.54305038709E+03  0.14292191554E+03  0.11473965881E+04  0.12774385806E+04  0.00000000000E+00 0. -1.
          4    1    6    6  502    0  0.29517216602E+03 -0.82639926603E+02  0.40403956329E+02  0.30917380994E+03  0.00000000000E+00 0. -1.
          3    1    5    5  503    0  0.11678240436E+02 -0.63993103333E+01 -0.93182066367E+01  0.16253044249E+02  0.00000000000E+00 0. -1.
         -4    1    5    5    0  503 -0.15632802115E+03  0.19775644762E+02  0.68837230258E+02  0.17195374550E+03  0.00000000000E+00 0.  1.
         -3    1    6    6    0  502  0.90602025889E+03 -0.13202349208E+03  0.20038990239E+03  0.93726144963E+03  0.00000000000E+00 0.  1.
<mgrwt>
<rscale>  0 0.29409826E+04</rscale>
<asrwt>0</asrwt>
<pdfrwt beam="1">  1        1 0.47681853E+00 0.29409826E+04</pdfrwt>
<pdfrwt beam="2">  1       -1 0.10733592E+00 0.29409826E+04</pdfrwt>
<totfact> 0.34919298E-01</totfact>
</mgrwt>
</event>
<event>
12    1  0.2502641E-008  0.1991374E+04  0.7818608E-02  0.8610664E-01
         -2   -1    0    0    0  501 -0.00000000000E+00  0.00000000000E+00  0.30059461458E+03  0.30059461458E+03  0.00000000000E+00 0.  1.
          2   -1    0    0  501    0  0.00000000000E+00 -0.00000000000E+00 -0.32981059069E+04  0.32981059069E+04  0.00000000000E+00 0. -1.
         23    2    1    2    0    0  0.36668989547E+03  0.64567901382E+03 -0.16811935987E+04  0.18401224198E+04  0.90971067401E+02 0.  0.
        254    2    1    2    0    0 -0.36668989547E+03 -0.64567901382E+03 -0.13163176936E+04  0.17585781017E+04  0.89918952449E+03 0.  0.
        -24    2    4    4    0    0 -0.28327844249E+03 -0.81399860386E+03 -0.12872972566E+04  0.15523933294E+04  0.99751787606E+02 0.  0.
         24    2    4    4    0    0 -0.83411452980E+02  0.16831959004E+03 -0.29020437000E+02  0.20618477233E+03  0.79881285040E+02 0.  0.
         11    1    3    3    0    0  0.92234748978E+02  0.12268690504E+03 -0.42879668952E+03  0.45544036550E+03  0.00000000000E+00 0.  1.
        -11    1    3    3    0    0  0.27445514649E+03  0.52299210879E+03 -0.12523969092E+04  0.13846820543E+04  0.00000000000E+00 0. -1.
          4    1    6    6  502    0 -0.55341645153E+00 -0.67859977678E+01 -0.92115969454E+01  0.11454673883E+02  0.00000000000E+00 0. -1.
          1    1    5    5  503    0 -0.53560284702E+02 -0.66628296628E+02 -0.11563938926E+03  0.14380717074E+03  0.00000000000E+00 0. -1.
         -2    1    5    5    0  503 -0.22971815779E+03 -0.74737030724E+03 -0.11716578674E+04  0.14085861586E+04  0.00000000000E+00 0.  1.
         -3    1    6    6    0  502 -0.82858036528E+02  0.17510558781E+03 -0.19808840055E+02  0.19473009845E+03  0.00000000000E+00 0.  1.
<mgrwt>
<rscale>  0 0.19913743E+04</rscale>
<asrwt>0</asrwt>
<pdfrwt beam="1">  1        2 0.50740090E+00 0.19913743E+04</pdfrwt>
<pdfrwt beam="2">  1       -2 0.46245326E-01 0.19913743E+04</pdfrwt>
<totfact> 0.46239297E+00</totfact>
</mgrwt>
</event>
<event>
11    1  0.2502641E-008  0.1678192E+04  0.7818608E-02  0.8773901E-01
          2   -1    0    0  501    0  0.00000000000E+00  0.00000000000E+00  0.16409808157E+04  0.16409808157E+04  0.00000000000E+00 0. -1.
         -2   -1    0    0    0  501 -0.00000000000E+00 -0.00000000000E+00 -0.42906151992E+03  0.42906151992E+03  0.00000000000E+00 0.  1.
         23    2    1    2    0    0 -0.35026232132E+03 -0.14363254525E+03  0.96292336677E+03  0.10386642435E+04  0.91038446486E+02 0.  0.
        254    2    1    2    0    0  0.35026232132E+03  0.14363254525E+03  0.24899592901E+03  0.10313780921E+04  0.92651378532E+03 0.  0.
         24    2    4    4    0    0  0.21961306748E+03  0.51029896341E+03  0.17093085159E+03  0.58679229003E+03  0.80454360690E+02 0.  0.
         11    1    3    3    0    0 -0.20072513810E+02 -0.16727452343E+02  0.24637223363E+02  0.35912480387E+02  0.00000000000E+00 0.  1.
        -11    1    3    3    0    0 -0.33018980751E+03 -0.12690509290E+03  0.93828614340E+03  0.10027517631E+04  0.00000000000E+00 0. -1.
          4    1    5    5  502    0  0.12195561866E+03  0.28254504443E+03  0.52687151870E+02  0.31221917146E+03  0.00000000000E+00 0. -1.
          3    1    4    4  503    0  0.13695174464E+03 -0.38717513223E+03  0.89428893976E+02  0.42030690032E+03  0.00000000000E+00 0. -1.
         -4    1    4    4    0  503 -0.63024908020E+01  0.20508714069E+02 -0.11363816553E+02  0.24278901741E+02  0.00000000000E+00 0.  1.
         -3    1    5    5    0  502  0.97657448812E+02  0.22775391898E+03  0.11824369972E+03  0.27457311857E+03  0.00000000000E+00 0.  1.
<mgrwt>
<rscale>  0 0.16781916E+04</rscale>
<asrwt>0</asrwt>
<pdfrwt beam="1">  1        2 0.25245858E+00 0.16781916E+04</pdfrwt>
<pdfrwt beam="2">  1       -2 0.66009465E-01 0.16781916E+04</pdfrwt>
<totfact> 0.21291771E+01</totfact>
</mgrwt>
</event>
<event>
12    1  0.2502641E-008  0.1862590E+04  0.7818608E-02  0.8673705E-01
         -3   -1    0    0    0  501 -0.00000000000E+00  0.00000000000E+00  0.13067305526E+04  0.13067305526E+04  0.00000000000E+00 0.  1.
          3   -1    0    0  501    0  0.00000000000E+00 -0.00000000000E+00 -0.66372522226E+03  0.66372522226E+03  0.00000000000E+00 0. -1.
         23    2    1    2    0    0  0.10159538162E+03 -0.42495392623E+03  0.83928826330E+03  0.95054448011E+03  0.90678325802E+02 0.  0.
        254    2    1    2    0    0 -0.10159538162E+03  0.42495392623E+03 -0.19628293298E+03  0.10199112947E+04  0.90043578247E+03 0.  0.
        -24    2    4    4    0    0 -0.43109975081E+03  0.25302173562E+03 -0.34150687496E+03  0.61296756548E+03  0.96100451861E+02 0.  0.
         24    2    4    4    0    0  0.32950436918E+03  0.17193219061E+03  0.14522394199E+03  0.40694372925E+03  0.79871133521E+02 0.  0.
         11    1    3    3    0    0  0.72859078212E+02 -0.12555649103E+03  0.25703648479E+03  0.29519592177E+03  0.00000000000E+00 0. -1.
        -11    1    3    3    0    0  0.28736303410E+02 -0.29939743520E+03  0.58225177851E+03  0.65534855834E+03  0.00000000000E+00 0.  1.
          2    1    6    6  502    0  0.21838193308E+03  0.15402770509E+03  0.11018381141E+03  0.28905998500E+03  0.00000000000E+00 0. -1.
          3    1    5    5  503    0 -0.33967198746E+03  0.21826127457E+03 -0.23010421265E+03  0.46471818526E+03  0.00000000000E+00 0. -1.
         -4    1    5    5    0  503 -0.91427763350E+02  0.34760461046E+02 -0.11140266232E+03  0.14824938022E+03  0.00000000000E+00 0.  1.
         -1    1    6    6    0  502  0.11112243610E+03  0.17904485518E+02  0.35040130579E+02  0.11788374425E+03  0.00000000000E+00 0.  1.
<mgrwt>
<rscale>  0 0.18625896E+04</rscale>
<asrwt>0</asrwt>
<pdfrwt beam="1">  1        3 0.10211157E+00 0.18625896E+04</pdfrwt>
<pdfrwt beam="2">  1       -3 0.20103547E+00 0.18625896E+04</pdfrwt>
<totfact> 0.29512631E-01</totfact>
</mgrwt>
</event>
<event>
11    1  0.2502641E-008  0.1453003E+04  0.7818608E-02  0.8916321E-01
         -2   -1    0    0    0  501 -0.00000000000E+00  0.00000000000E+00  0.22336294259E+03  0.22336294259E+03  0.00000000000E+00 0. -1.
          2   -1    0    0  501    0  0.00000000000E+00 -0.00000000000E+00 -0.23629896059E+04  0.23629896059E+04  0.00000000000E+00 0.  1.
         23    2    1    2    0    0  0.34504710078E+03 -0.19373748586E+03 -0.31819192362E+03  0.51583513486E+03  0.90818890775E+02 0.  0.
        254    2    1    2    0    0 -0.34504710078E+03  0.19373748586E+03 -0.18214347397E+04  0.20705174136E+04  0.90156870728E+03 0.  0.
         24    2    4    4    0    0  0.24973919963E+03  0.16000124250E+03 -0.73676284184E+03  0.79814653169E+03  0.79046413629E+02 0.  0.
         13    1    3    3    0    0  0.14119060341E+03 -0.95224998190E+02 -0.19194838651E+03  0.25660625452E+03  0.00000000000E+00 0.  1.
        -13    1    3    3    0    0  0.20385649737E+03 -0.98512487671E+02 -0.12624353710E+03  0.25922888035E+03  0.00000000000E+00 0. -1.
          2    1    5    5  502    0  0.17212606220E+03  0.13966333743E+03 -0.59934022284E+03  0.63901637837E+03  0.00000000000E+00 0. -1.
          1    1    4    4  503    0 -0.36123997751E+03  0.14567934329E+03 -0.78477874100E+03  0.87612468561E+03  0.00000000000E+00 0. -1.
         -2    1    4    4    0  503 -0.23354632291E+03 -0.11194309993E+03 -0.29989315685E+03  0.39624619631E+03  0.00000000000E+00 0.  1.
         -1    1    5    5    0  502  0.77613137432E+02  0.20337905067E+02 -0.13742261900E+03  0.15913015332E+03  0.00000000000E+00 0.  1.
<mgrwt>
<rscale>  0 0.14530028E+04</rscale>
<asrwt>0</asrwt>
<pdfrwt beam="1">  1        2 0.36353686E+00 0.14530028E+04</pdfrwt>
<pdfrwt beam="2">  1       -2 0.34363530E-01 0.14530028E+04</pdfrwt>
<totfact> 0.32183583E+01</totfact>
</mgrwt>
</event>
<event>
11    1  0.2502641E-008  0.1902747E+04  0.7818608E-02  0.8653490E-01
         -2   -1    0    0    0  501 -0.00000000000E+00  0.00000000000E+00  0.24698519918E+03  0.24698519918E+03  0.00000000000E+00 0.  1.
          2   -1    0    0  501    0  0.00000000000E+00 -0.00000000000E+00 -0.36646406652E+04  0.36646406652E+04  0.00000000000E+00 0. -1.
         23    2    1    2    0    0  0.16275054058E+03  0.51030757822E+03 -0.27661605271E+03  0.60974858900E+03  0.91516874575E+02 0.  0.
        254    2    1    2    0    0 -0.16275054058E+03 -0.51030757822E+03 -0.31410394133E+04  0.33018772754E+04  0.86565777463E+03 0.  0.
         24    2    4    4    0    0 -0.51481825807E+02 -0.64812752490E+03 -0.27480920426E+04  0.28250241907E+04  0.77666833299E+02 0.  0.
         11    1    3    3    0    0  0.86803360162E+01  0.46637290166E+02 -0.56735077265E+02  0.73954405275E+02  0.00000000000E+00 0. -1.
        -11    1    3    3    0    0  0.15407020457E+03  0.46367028805E+03 -0.21988097544E+03  0.53579418373E+03  0.00000000000E+00 0.  1.
          4    1    5    5  502    0  0.98367821905E+00 -0.38784595535E+03 -0.15386121882E+04  0.15867428646E+04  0.00000000000E+00 0. -1.
          3    1    4    4  503    0 -0.10596158522E+03 -0.11632349794E+02 -0.24166742626E+03  0.26413313692E+03  0.00000000000E+00 0. -1.
         -4    1    4    4    0  503 -0.53071295542E+01  0.14945229648E+03 -0.15127994451E+03  0.21271994772E+03  0.00000000000E+00 0.  1.
         -3    1    5    5    0  502 -0.52465504027E+02 -0.26028156955E+03 -0.12094798544E+04  0.12382813262E+04  0.00000000000E+00 0.  1.
<mgrwt>
<rscale>  0 0.19027475E+04</rscale>
<asrwt>0</asrwt>
<pdfrwt beam="1">  1        2 0.56379086E+00 0.19027475E+04</pdfrwt>
<pdfrwt beam="2">  1       -2 0.37997724E-01 0.19027475E+04</pdfrwt>
<totfact> 0.38258762E+00</totfact>
</mgrwt>
</event>
<event>
11    1  0.2502641E-008  0.1593816E+04  0.7818608E-02  0.8824356E-01
         -2   -1    0    0    0  501 -0.00000000000E+00  0.00000000000E+00  0.39165721881E+03  0.39165721881E+03  0.00000000000E+00 0.  1.
          2   -1    0    0  501    0  0.00000000000E+00 -0.00000000000E+00 -0.16214743314E+04  0.16214743314E+04  0.00000000000E+00 0. -1.
         23    2    1    2    0    0  0.14543657453E+03  0.72847218264E+02 -0.10280469462E+04  0.10439232824E+04  0.80229554709E+02 0.  0.
        254    2    1    2    0    0 -0.14543657453E+03 -0.72847218264E+02 -0.20177016635E+03  0.96920826780E+03  0.93391378184E+03 0.  0.
         24    2    4    4    0    0  0.18033122591E+03  0.30342992269E+03 -0.97877609198E+02  0.37485464973E+03  0.79667515490E+02 0.  0.
         13    1    3    3    0    0  0.54570258440E+02  0.13627556156E+02 -0.17034215376E+03  0.17938805072E+03  0.00000000000E+00 0.  1.
        -13    1    3    3    0    0  0.90866316093E+02  0.59219662107E+02 -0.85770479247E+03  0.86453523167E+03  0.00000000000E+00 0. -1.
          2    1    5    5  502    0  0.17647621757E+03  0.25478641839E+03 -0.10095143558E+03  0.32596190990E+03  0.00000000000E+00 0. -1.
          1    1    4    4  503    0 -0.26837771655E+03 -0.95061481440E+02 -0.11515188146E+03  0.30712088792E+03  0.00000000000E+00 0. -1.
         -2    1    4    4    0  503 -0.57390083899E+02 -0.28121565951E+03  0.11259324308E+02  0.28723273015E+03  0.00000000000E+00 0.  1.
         -1    1    5    5    0  502  0.38550083467E+01  0.48643504295E+02  0.30738263798E+01  0.48892739830E+02  0.00000000000E+00 0.  1.
<mgrwt>
<rscale>  0 0.15938157E+04</rscale>
<asrwt>0</asrwt>
<pdfrwt beam="1">  1        2 0.24945759E+00 0.15938157E+04</pdfrwt>
<pdfrwt beam="2">  1       -2 0.60254957E-01 0.15938157E+04</pdfrwt>
<totfact> 0.26709150E+01</totfact>
</mgrwt>
</event>
<event>
12    1  0.2502641E-008  0.1972278E+04  0.7818608E-02  0.8619692E-01
         -2   -1    0    0    0  501 -0.00000000000E+00  0.00000000000E+00  0.46864083230E+03  0.46864083230E+03  0.00000000000E+00 0.  1.
          2   -1    0    0  501    0  0.00000000000E+00 -0.00000000000E+00 -0.20750870681E+04  0.20750870681E+04  0.00000000000E+00 0. -1.
         23    2    1    2    0    0 -0.17686269192E+03  0.16736785884E+03 -0.15892457205E+04  0.16101526427E+04  0.87161691928E+02 0.  0.
        254    2    1    2    0    0  0.17686269192E+03 -0.16736785884E+03 -0.17200515272E+02  0.93357525772E+03  0.90109627240E+03 0.  0.
        -24    2    4    4    0    0  0.50380797870E+03 -0.14428518181E+03 -0.17625950169E+03  0.56053821474E+03  0.92168243775E+02 0.  0.
         24    2    4    4    0    0 -0.32694528677E+03 -0.23082677032E+02  0.15905898642E+03  0.37303704298E+03  0.80192541731E+02 0.  0.
         11    1    3    3    0    0 -0.99531901302E+02  0.11947819759E+03 -0.12199107907E+04  0.12297820849E+04  0.00000000000E+00 0. -1.
        -11    1    3    3    0    0 -0.77330790619E+02  0.47889661252E+02 -0.36933492980E+03  0.38037055775E+03  0.00000000000E+00 0.  1.
          2    1    6    6  502    0 -0.17773837032E+03 -0.16263689415E+02  0.13016948764E+03  0.22090615969E+03  0.00000000000E+00 0. -1.
          3    1    5    5  503    0  0.11422827250E+03 -0.17574728656E+02 -0.77445520281E+02  0.13912145031E+03  0.00000000000E+00 0. -1.
         -4    1    5    5    0  503  0.38957970620E+03 -0.12671045315E+03 -0.98813981409E+02  0.42141676443E+03  0.00000000000E+00 0.  1.
         -1    1    6    6    0  502 -0.14920691645E+03 -0.68189876170E+01  0.28889498783E+02  0.15213088329E+03  0.00000000000E+00 0.  1.
<mgrwt>
<rscale>  0 0.19722784E+04</rscale>
<asrwt>0</asrwt>
<pdfrwt beam="1">  1        2 0.31924416E+00 0.19722784E+04</pdfrwt>
<pdfrwt beam="2">  1       -2 0.72098590E-01 0.19722784E+04</pdfrwt>
<totfact> 0.98425846E+00</totfact>
</mgrwt>
</event>
<event>
11    1  0.2502641E-008  0.1972204E+04  0.7818608E-02  0.8619728E-01
          1   -1    0    0  501    0  0.00000000000E+00  0.00000000000E+00  0.18110184205E+04  0.18110184205E+04  0.00000000000E+00 0. -1.
         -1   -1    0    0    0  501 -0.00000000000E+00 -0.00000000000E+00 -0.53693379163E+03  0.53693379163E+03  0.00000000000E+00 0.  1.
         23    2    1    2    0    0 -0.54177630810E+03  0.14614235309E+03  0.11426282716E+04  0.12765055766E+04  0.94804876657E+02 0.  0.
        254    2    1    2    0    0  0.54177630810E+03 -0.14614235309E+03  0.13145635726E+03  0.10714466355E+04  0.90323749010E+03 0.  0.
         24    2    4    4    0    0 -0.20254837351E+03 -0.11982609174E+03 -0.11822432513E+03  0.27455704315E+03  0.77591513829E+02 0.  0.
         11    1    3    3    0    0 -0.47645972794E+03  0.95135407198E+02  0.99154687518E+03  0.11041874043E+04  0.00000000000E+00 0. -1.
        -11    1    3    3    0    0 -0.65316580154E+02  0.51006945888E+02  0.15108139646E+03  0.17231817237E+03  0.00000000000E+00 0.  1.
          2    1    5    5  502    0 -0.13924353894E+03 -0.82574033497E+02 -0.11930117513E+03  0.20109700279E+03  0.00000000000E+00 0. -1.
          3    1    4    4  503    0  0.68138890147E+03  0.75322717306E+01  0.24877946638E+03  0.72542318206E+03  0.00000000000E+00 0. -1.
         -2    1    4    4    0  503  0.62935780134E+02 -0.33848533072E+02  0.90121600244E+00  0.71466410309E+02  0.00000000000E+00 0.  1.
         -1    1    5    5    0  502 -0.63304834573E+02 -0.37252058247E+02  0.10768500033E+01  0.73460040361E+02  0.00000000000E+00 0.  1.
<mgrwt>
<rscale>  0 0.19722038E+04</rscale>
<asrwt>0</asrwt>
<pdfrwt beam="1">  1        1 0.27861822E+00 0.19722038E+04</pdfrwt>
<pdfrwt beam="2">  1       -1 0.82605200E-01 0.19722038E+04</pdfrwt>
<totfact> 0.54222350E+00</totfact>
</mgrwt>
</event>
<event>
12    1  0.2502641E-008  0.1256469E+04  0.7818608E-02  0.9064817E-01
          1   -1    0    0  501    0  0.00000000000E+00  0.00000000000E+00  0.35746190868E+03  0.35746190868E+03  0.00000000000E+00 0. -1.
         -1   -1    0    0    0  501 -0.00000000000E+00 -0.00000000000E+00 -0.11041130571E+04  0.11041130571E+04  0.00000000000E+00 0.  1.
         23    2    1    2    0    0  0.18351606005E+03  0.17762857850E+03  0.25856431625E+02  0.27238685508E+03  0.91082312042E+02 0.  0.
        254    2    1    2    0    0 -0.18351606005E+03 -0.17762857850E+03 -0.77250758003E+03  0.11891881107E+04  0.86727754795E+03 0.  0.
        -24    2    4    4    0    0 -0.74633376145E+02 -0.49675940546E+03 -0.27023286808E+03  0.57893986090E+03  0.99022784213E+02 0.  0.
         24    2    4    4    0    0 -0.10888268391E+03  0.31913082697E+03 -0.50227471195E+03  0.61024824978E+03  0.80144348055E+02 0.  0.
         11    1    3    3    0    0  0.18152345992E+03  0.16045619183E+03  0.45188246173E+02  0.24645270052E+03  0.00000000000E+00 0. -1.
        -11    1    3    3    0    0  0.19926001282E+01  0.17172386662E+02 -0.19331814548E+02  0.25934154559E+02  0.00000000000E+00 0.  1.
          2    1    6    6  502    0 -0.11001536009E+03  0.22526120423E+03 -0.39343965603E+03  0.46651983079E+03  0.00000000000E+00 0. -1.
          3    1    5    5  503    0 -0.87597508847E+02 -0.34797484590E+03 -0.15777254757E+03  0.39198468555E+03  0.00000000000E+00 0. -1.
         -4    1    5    5    0  503  0.12964132702E+02 -0.14878455956E+03 -0.11246032051E+03  0.18695517535E+03  0.00000000000E+00 0.  1.
         -1    1    6    6    0  502  0.11326761876E+01  0.93869622737E+02 -0.10883505592E+03  0.14372841899E+03  0.00000000000E+00 0.  1.
<mgrwt>
<rscale>  0 0.12564686E+04</rscale>
<asrwt>0</asrwt>
<pdfrwt beam="1">  1        1 0.54994140E-01 0.12564686E+04</pdfrwt>
<pdfrwt beam="2">  1       -1 0.16986355E+00 0.12564686E+04</pdfrwt>
<totfact> 0.16932091E+01</totfact>
</mgrwt>
</event>
<event>
12    1  0.2502641E-008  0.2704747E+04  0.7818608E-02  0.8333466E-01
          2   -1    0    0  501    0  0.00000000000E+00  0.00000000000E+00  0.13102091703E+04  0.13102091703E+04  0.00000000000E+00 0.  1.
         -2   -1    0    0    0  501 -0.00000000000E+00 -0.00000000000E+00 -0.13958950570E+04  0.13958950570E+04  0.00000000000E+00 0. -1.
         23    2    1    2    0    0 -0.76604137146E+03  0.85065302905E+01 -0.96045920227E+03  0.12318652890E+04  0.90102537477E+02 0.  0.
        254    2    1    2    0    0  0.76604137146E+03 -0.85065302905E+01  0.87477331553E+03  0.14742389382E+04  0.90623415822E+03 0.  0.
        -24    2    4    4    0    0  0.78049386824E+03  0.21600655613E+03  0.32962842705E+03  0.87905567653E+03  0.90854124137E+02 0.  0.
         24    2    4    4    0    0 -0.14452496780E+02 -0.22451308642E+03  0.54514488849E+03  0.59518326168E+03  0.80281784378E+02 0.  0.
         13    1    3    3    0    0 -0.41803741076E+03  0.35640032509E+02 -0.47216739820E+03  0.63163877385E+03  0.00000000000E+00 0. -1.
        -13    1    3    3    0    0 -0.34800396070E+03 -0.27133502218E+02 -0.48829180407E+03  0.60022651518E+03  0.00000000000E+00 0.  1.
          4    1    6    6  502    0  0.29285200530E+02 -0.13148454396E+03  0.27724505933E+03  0.30823794574E+03  0.00000000000E+00 0. -1.
          1    1    5    5  503    0  0.78225903077E+03  0.21329392640E+03  0.32526980084E+03  0.87362688466E+03  0.00000000000E+00 0. -1.
         -2    1    5    5    0  503 -0.17651625279E+01  0.27126297357E+01  0.43586262032E+01  0.54287918741E+01  0.00000000000E+00 0.  1.
         -3    1    6    6    0  502 -0.43737697311E+02 -0.93028542467E+02  0.26789982916E+03  0.28694531594E+03  0.00000000000E+00 0.  1.
<mgrwt>
<rscale>  0 0.27047473E+04</rscale>
<asrwt>0</asrwt>
<pdfrwt beam="1">  1        2 0.20157064E+00 0.27047473E+04</pdfrwt>
<pdfrwt beam="2">  1       -2 0.21475309E+00 0.27047473E+04</pdfrwt>
<totfact> 0.15263958E+00</totfact>
</mgrwt>
</event>
<event>
11    1  0.2502641E-008  0.1660139E+04  0.7818608E-02  0.8784431E-01
         -1   -1    0    0    0  501 -0.00000000000E+00  0.00000000000E+00  0.24817324182E+03  0.24817324182E+03  0.00000000000E+00 0.  1.
          1   -1    0    0  501    0  0.00000000000E+00 -0.00000000000E+00 -0.27763487540E+04  0.27763487540E+04  0.00000000000E+00 0. -1.
         23    2    1    2    0    0  0.50634774076E+03 -0.15517397006E+03 -0.13134568321E+04  0.14192409302E+04  0.92784548469E+02 0.  0.
        254    2    1    2    0    0 -0.50634774076E+03  0.15517397006E+03 -0.12147186800E+04  0.16052810656E+04  0.90604571217E+03 0.  0.
         24    2    4    4    0    0 -0.66608976635E+03  0.83263784157E+02 -0.45130015903E+03  0.81280624765E+03  0.79835631719E+02 0.  0.
         13    1    3    3    0    0  0.49661965728E+03 -0.13427965408E+03 -0.12637373248E+04  0.13644391286E+04  0.00000000000E+00 0. -1.
        -13    1    3    3    0    0  0.97280834776E+01 -0.20894315981E+02 -0.49719507372E+02  0.54801801629E+02  0.00000000000E+00 0.  1.
          2    1    5    5  502    0 -0.63413939092E+03  0.61354802839E+02 -0.42117640300E+03  0.76373211363E+03  0.00000000000E+00 0. -1.
          1    1    4    4  503    0  0.15556562599E+03  0.80637087643E+02 -0.76292407700E+03  0.78278742399E+03  0.00000000000E+00 0. -1.
         -2    1    4    4    0  503  0.41763996077E+01 -0.87269017368E+01 -0.49444399907E+00  0.96873939981E+01  0.00000000000E+00 0.  1.
         -1    1    5    5    0  502 -0.31950375432E+02  0.21908981318E+02 -0.30123756024E+02  0.49074134018E+02  0.00000000000E+00 0.  1.
<mgrwt>
<rscale>  0 0.16601391E+04</rscale>
<asrwt>0</asrwt>
<pdfrwt beam="1">  1        1 0.42713055E+00 0.16601391E+04</pdfrwt>
<pdfrwt beam="2">  1       -1 0.38180502E-01 0.16601391E+04</pdfrwt>
<totfact> 0.55019709E+00</totfact>
</mgrwt>
</event>
<event>
11    1  0.2502641E-008  0.2194274E+04  0.7818608E-02  0.8520815E-01
         -2   -1    0    0    0  501 -0.00000000000E+00  0.00000000000E+00  0.50914000600E+03  0.50914000600E+03  0.00000000000E+00 0.  1.
          2   -1    0    0  501    0  0.00000000000E+00 -0.00000000000E+00 -0.23642008534E+04  0.23642008534E+04  0.00000000000E+00 0. -1.
         23    2    1    2    0    0 -0.86223829577E+03  0.28820967438E+03 -0.68260034480E+03  0.11405021366E+04  0.91006581311E+02 0.  0.
        254    2    1    2    0    0  0.86223829577E+03 -0.28820967438E+03 -0.11724605026E+04  0.17328387228E+04  0.89529141286E+03 0.  0.
         24    2    4    4    0    0  0.90701694905E+02 -0.48020946707E+02  0.13557036069E+03  0.18914306935E+03  0.82843039554E+02 0.  0.
         11    1    3    3    0    0 -0.25319535375E+03  0.11259094067E+03 -0.16797363987E+03  0.32403665035E+03  0.00000000000E+00 0.  1.
        -11    1    3    3    0    0 -0.60904294202E+03  0.17561873371E+03 -0.51462670493E+03  0.81646548628E+03  0.00000000000E+00 0. -1.
          2    1    5    5  502    0  0.17001908021E+02 -0.55095769901E+01 -0.10038824736E+02  0.20498739401E+02  0.00000000000E+00 0. -1.
          1    1    4    4  503    0  0.12226576901E+02 -0.30367058682E+01  0.19783719533E+00  0.12599599390E+02  0.00000000000E+00 0. -1.
         -2    1    4    4    0  503  0.75931002396E+03 -0.23715202181E+03 -0.13082287005E+04  0.15310960541E+04  0.00000000000E+00 0.  1.
         -1    1    5    5    0  502  0.73699786884E+02 -0.42511369717E+02  0.14560918543E+03  0.16864432994E+03  0.00000000000E+00 0.  1.
<mgrwt>
<rscale>  0 0.21942737E+04</rscale>
<asrwt>0</asrwt>
<pdfrwt beam="1">  1        2 0.36372320E+00 0.21942737E+04</pdfrwt>
<pdfrwt beam="2">  1       -2 0.78329232E-01 0.21942737E+04</pdfrwt>
<totfact> 0.55236444E+00</totfact>
</mgrwt>
</event>
<event>
11    1  0.2502641E-008  0.1580627E+04  0.7818608E-02  0.8832539E-01
         -1   -1    0    0    0  501 -0.00000000000E+00  0.00000000000E+00  0.27655274232E+03  0.27655274232E+03  0.00000000000E+00 0.  1.
          1   -1    0    0  501    0  0.00000000000E+00 -0.00000000000E+00 -0.22585043850E+04  0.22585043850E+04  0.00000000000E+00 0. -1.
         23    2    1    2    0    0 -0.27378847835E+03 -0.11294276937E+03  0.30522988935E+02  0.31155440122E+03  0.91751250856E+02 0.  0.
        254    2    1    2    0    0  0.27378847835E+03  0.11294276937E+03 -0.20124746316E+04  0.22235027261E+04  0.89788308261E+03 0.  0.
         24    2    4    4    0    0 -0.10053600011E+03 -0.22226245315E+03 -0.16509964778E+03  0.30542485052E+03  0.80736362440E+02 0.  0.
         11    1    3    3    0    0 -0.23060635526E+03 -0.10716073376E+03 -0.65133978046E+01  0.25437204701E+03  0.00000000000E+00 0. -1.
        -11    1    3    3    0    0 -0.43182123095E+02 -0.57820356028E+01  0.37036386739E+02  0.57182354213E+02  0.00000000000E+00 0.  1.
          2    1    5    5  502    0 -0.59646550377E+02 -0.13955980683E+03 -0.14723184139E+03  0.21145180485E+03  0.00000000000E+00 0. -1.
          3    1    4    4  503    0  0.10546332820E+03  0.67138672300E+02 -0.30428657094E+03  0.32896874041E+03  0.00000000000E+00 0. -1.
         -4    1    4    4    0  503  0.26886115026E+03  0.26806655021E+03 -0.15430884129E+04  0.15891091352E+04  0.00000000000E+00 0.  1.
         -1    1    5    5    0  502 -0.40889449731E+02 -0.82702646315E+02 -0.17867806387E+02  0.93973045666E+02  0.00000000000E+00 0.  1.
<mgrwt>
<rscale>  0 0.15806272E+04</rscale>
<asrwt>0</asrwt>
<pdfrwt beam="1">  1        1 0.34746221E+00 0.15806272E+04</pdfrwt>
<pdfrwt beam="2">  1       -1 0.42546576E-01 0.15806272E+04</pdfrwt>
<totfact> 0.10392917E+01</totfact>
</mgrwt>
</event>
<event>
12    1  0.2502641E-008  0.1542732E+04  0.7818608E-02  0.8856524E-01
          2   -1    0    0  501    0  0.00000000000E+00  0.00000000000E+00  0.18233898865E+04  0.18233898865E+04  0.00000000000E+00 0. -1.
         -2   -1    0    0    0  501 -0.00000000000E+00 -0.00000000000E+00 -0.32631826292E+03  0.32631826292E+03  0.00000000000E+00 0.  1.
         23    2    1    2    0    0 -0.36365200695E+03 -0.33826781640E+03  0.63376486085E+03  0.81046101474E+03  0.92310669998E+02 0.  0.
        254    2    1    2    0    0  0.36365200695E+03  0.33826781640E+03  0.86330676271E+03  0.13392471346E+04  0.89533034314E+03 0.  0.
        -24    2    4    4    0    0 -0.20270850335E+03  0.46871958362E+02 -0.36056671038E+02  0.23421085795E+03  0.10132583404E+03 0.  0.
         24    2    4    4    0    0  0.56636051031E+03  0.29139585804E+03  0.89936343375E+03  0.11050362767E+04  0.81085221440E+02 0.  0.
         11    1    3    3    0    0 -0.14265917311E+03 -0.12776171317E+03  0.17483762058E+03  0.25931233792E+03  0.00000000000E+00 0.  1.
        -11    1    3    3    0    0 -0.22099283384E+03 -0.21050610323E+03  0.45892724026E+03  0.55114867682E+03  0.00000000000E+00 0. -1.
          4    1    6    6  502    0  0.48267736830E+03  0.24431584507E+03  0.70894800418E+03  0.89178189410E+03  0.00000000000E+00 0. -1.
          3    1    5    5  503    0 -0.58931447875E+02  0.30904448518E+02  0.32582212024E+02  0.74091841840E+02  0.00000000000E+00 0. -1.
         -4    1    5    5    0  503 -0.14377705548E+03  0.15967509844E+02 -0.68638883062E+02  0.16011901611E+03  0.00000000000E+00 0.  1.
         -3    1    6    6    0  502  0.83683142002E+02  0.47080012970E+02  0.19041542957E+03  0.21325438259E+03  0.00000000000E+00 0.  1.
<mgrwt>
<rscale>  0 0.15427319E+04</rscale>
<asrwt>0</asrwt>
<pdfrwt beam="1">  1        2 0.28052152E+00 0.15427319E+04</pdfrwt>
<pdfrwt beam="2">  1       -2 0.50202811E-01 0.15427319E+04</pdfrwt>
<totfact> 0.30270178E+01</totfact>
</mgrwt>
</event>
<event>
11    1  0.2502641E-008  0.1672963E+04  0.7818608E-02  0.8776936E-01
         -2   -1    0    0    0  501 -0.00000000000E+00  0.00000000000E+00  0.23261374365E+03  0.23261374365E+03  0.00000000000E+00 0.  1.
          2   -1    0    0  501    0  0.00000000000E+00 -0.00000000000E+00 -0.30079974724E+04  0.30079974724E+04  0.00000000000E+00 0. -1.
         23    2    1    2    0    0  0.27381703243E+03  0.40745403758E+03 -0.16148461821E+04  0.16903867328E+04  0.93190957914E+02 0.  0.
        254    2    1    2    0    0 -0.27381703243E+03 -0.40745403758E+03 -0.11605375466E+04  0.15502244832E+04  0.90296954059E+03 0.  0.
         24    2    4    4    0    0 -0.11659391307E+03  0.13980080612E+03  0.50386096152E+02  0.20621442809E+03  0.82747964986E+02 0.  0.
         11    1    3    3    0    0  0.15981392699E+03  0.26441570298E+03 -0.11519330794E+04  0.11926466261E+04  0.00000000000E+00 0.  1.
        -11    1    3    3    0    0  0.11400310544E+03  0.14303833460E+03 -0.46291310267E+03  0.49774010673E+03  0.00000000000E+00 0. -1.
          4    1    5    5  502    0 -0.11931232115E+01 -0.10204837219E+02  0.57070520215E+01  0.11752986362E+02  0.00000000000E+00 0. -1.
          1    1    4    4  503    0 -0.52310776208E+02 -0.10749768956E+03 -0.37591156862E+03  0.39446378540E+03  0.00000000000E+00 0. -1.
         -2    1    4    4    0  503 -0.10491234315E+03 -0.43975715414E+03 -0.83501207414E+03  0.94954626971E+03  0.00000000000E+00 0.  1.
         -3    1    5    5    0  502 -0.11540078986E+03  0.15000564334E+03  0.44679044130E+02  0.19446144173E+03  0.00000000000E+00 0.  1.
<mgrwt>
<rscale>  0 0.16729633E+04</rscale>
<asrwt>0</asrwt>
<pdfrwt beam="1">  1        2 0.46276880E+00 0.16729633E+04</pdfrwt>
<pdfrwt beam="2">  1       -2 0.35786733E-01 0.16729633E+04</pdfrwt>
<totfact> 0.12110701E+01</totfact>
</mgrwt>
</event>
<event>
11    1  0.2502641E-008  0.1738372E+04  0.7818608E-02  0.8739777E-01
          1   -1    0    0  501    0  0.00000000000E+00  0.00000000000E+00  0.76385894932E+03  0.76385894932E+03  0.00000000000E+00 0. -1.
         -1   -1    0    0    0  501 -0.00000000000E+00 -0.00000000000E+00 -0.98903642122E+03  0.98903642122E+03  0.00000000000E+00 0.  1.
         23    2    1    2    0    0 -0.26430975153E+03 -0.49707757349E+03  0.20370282853E+03  0.60560080676E+03  0.91168722562E+02 0.  0.
        254    2    1    2    0    0  0.26430975153E+03  0.49707757349E+03 -0.42888030043E+03  0.11472945638E+04  0.90299542921E+03 0.  0.
         24    2    4    4    0    0 -0.40816920725E+02 -0.18465564270E+03  0.96717105466E+02  0.22710776909E+03  0.80374205395E+02 0.  0.
         11    1    3    3    0    0 -0.35246727514E+02 -0.10603662067E+03  0.74683683026E+02  0.13440144804E+03  0.00000000000E+00 0.  1.
        -11    1    3    3    0    0 -0.22906302402E+03 -0.39104095282E+03  0.12901914550E+03  0.47119935872E+03  0.00000000000E+00 0. -1.
          2    1    5    5  502    0 -0.20230233507E+02 -0.13463567636E+02  0.37716608546E+02  0.44867277179E+02  0.00000000000E+00 0. -1.
          3    1    4    4  503    0  0.65703957699E+02  0.13879726807E+03 -0.16697124740E+03  0.22685036729E+03  0.00000000000E+00 0. -1.
         -4    1    4    4    0  503  0.23942271456E+03  0.54293594812E+03 -0.35862615849E+03  0.69333642740E+03  0.00000000000E+00 0.  1.
         -1    1    5    5    0  502 -0.20586687218E+02 -0.17119207506E+03  0.59000496921E+02  0.18224049191E+03  0.00000000000E+00 0.  1.
<mgrwt>
<rscale>  0 0.17383720E+04</rscale>
<asrwt>0</asrwt>
<pdfrwt beam="1">  1        1 0.11751676E+00 0.17383720E+04</pdfrwt>
<pdfrwt beam="2">  1       -1 0.15215945E+00 0.17383720E+04</pdfrwt>
<totfact> 0.75775400E+00</totfact>
</mgrwt>
</event>
<event>
11    1  0.2502641E-008  0.1521560E+04  0.7818608E-02  0.8870241E-01
         -1   -1    0    0    0  501 -0.00000000000E+00  0.00000000000E+00  0.12197805650E+04  0.12197805650E+04  0.00000000000E+00 0.  1.
          1   -1    0    0  501    0  0.00000000000E+00 -0.00000000000E+00 -0.47450056843E+03  0.47450056843E+03  0.00000000000E+00 0. -1.
         23    2    1    2    0    0  0.38373890658E+03  0.29449674217E+03  0.39212067469E+03  0.62897964895E+03  0.88729339602E+02 0.  0.
        254    2    1    2    0    0 -0.38373890658E+03 -0.29449674217E+03  0.35315932184E+03  0.10653014845E+04  0.88100049183E+03 0.  0.
         24    2    4    4    0    0 -0.37121577324E+03 -0.47132662616E+03  0.50943762766E+03  0.79196785942E+03  0.87957120522E+02 0.  0.
         13    1    3    3    0    0  0.35216178283E+03  0.29507723347E+03  0.37500499295E+03  0.59305753493E+03  0.00000000000E+00 0.  1.
        -13    1    3    3    0    0  0.31577123751E+02 -0.58049130213E+00  0.17115681740E+02  0.35922114024E+02  0.00000000000E+00 0. -1.
          2    1    5    5  502    0 -0.21893424040E+02 -0.91490962083E+01  0.39128068513E+02  0.45760613230E+02  0.00000000000E+00 0. -1.
          3    1    4    4  503    0  0.91908132450E+01 -0.20373048422E+02 -0.28453876123E+01  0.22530609862E+02  0.00000000000E+00 0. -1.
         -4    1    4    4    0  503 -0.21713946578E+02  0.19720293241E+03 -0.15343291820E+03  0.25080301517E+03  0.00000000000E+00 0.  1.
         -1    1    5    5    0  502 -0.34932234920E+03 -0.46217752996E+03  0.47030955914E+03  0.74620724619E+03  0.00000000000E+00 0.  1.
<mgrwt>
<rscale>  0 0.15215605E+04</rscale>
<asrwt>0</asrwt>
<pdfrwt beam="1">  1        1 0.73000088E-01 0.15215605E+04</pdfrwt>
<pdfrwt beam="2">  1       -1 0.18765855E+00 0.15215605E+04</pdfrwt>
<totfact> 0.84409955E+00</totfact>
</mgrwt>
</event>
<event>
11    1  0.2502641E-008  0.1213731E+04  0.7818608E-02  0.9100922E-01
          2   -1    0    0  501    0  0.00000000000E+00  0.00000000000E+00  0.22467806633E+04  0.22467806633E+04  0.00000000000E+00 0. -1.
         -2   -1    0    0    0  501 -0.00000000000E+00 -0.00000000000E+00 -0.16391703574E+03  0.16391703574E+03  0.00000000000E+00 0.  1.
         23    2    1    2    0    0  0.10043281137E+03 -0.17830748848E+03  0.69003185271E+02  0.23479980424E+03  0.92136846293E+02 0.  0.
        254    2    1    2    0    0 -0.10043281137E+03  0.17830748848E+03  0.20138604423E+04  0.21758978948E+04  0.79813373409E+03 0.  0.
         24    2    4    4    0    0 -0.21859502004E+03  0.26805116735E+03  0.17654205229E+04  0.18005247351E+04  0.74461319768E+02 0.  0.
         13    1    3    3    0    0  0.24656860400E+02 -0.13426117961E+03  0.47700600651E+02  0.14460073450E+03  0.00000000000E+00 0.  1.
        -13    1    3    3    0    0  0.75775950970E+02 -0.44046308874E+02  0.21302584620E+02  0.90199069742E+02  0.00000000000E+00 0. -1.
          4    1    5    5  502    0 -0.20114425101E+03  0.20322472012E+03  0.14731117038E+04  0.15006056739E+04  0.00000000000E+00 0. -1.
          3    1    4    4  503    0  0.12677172886E+03 -0.15213672251E+03  0.24103858739E+03  0.31195553238E+03  0.00000000000E+00 0. -1.
         -4    1    4    4    0  503 -0.86095201947E+01  0.62393043646E+02  0.74013320262E+01  0.63417627275E+02  0.00000000000E+00 0.  1.
         -3    1    5    5    0  502 -0.17450769028E+02  0.64826447229E+02  0.29230881904E+03  0.29991906123E+03  0.00000000000E+00 0.  1.
<mgrwt>
<rscale>  0 0.12137308E+04</rscale>
<asrwt>0</asrwt>
<pdfrwt beam="1">  1        2 0.34565854E+00 0.12137308E+04</pdfrwt>
<pdfrwt beam="2">  1       -2 0.25218007E-01 0.12137308E+04</pdfrwt>
<totfact> 0.67875367E+01</totfact>
</mgrwt>
</event>
<event>
11    1  0.2502641E-008  0.2066098E+04  0.7818608E-02  0.8576326E-01
         -1   -1    0    0    0  501 -0.00000000000E+00  0.00000000000E+00  0.90774851159E+03  0.90774851159E+03  0.00000000000E+00 0.  1.
          1   -1    0    0  501    0  0.00000000000E+00 -0.00000000000E+00 -0.11756449861E+04  0.11756449861E+04  0.00000000000E+00 0. -1.
         23    2    1    2    0    0  0.34034068032E+03  0.77503062253E+03 -0.23259104546E+03  0.88196980407E+03  0.85251957978E+02 0.  0.
        254    2    1    2    0    0 -0.34034068032E+03 -0.77503062253E+03 -0.35305429098E+02  0.12014236937E+04  0.85186159312E+03 0.  0.
         24    2    4    4    0    0 -0.37992728142E+03 -0.80114382810E+03  0.19113654061E+03  0.91066493868E+03  0.81248267209E+02 0.  0.
         13    1    3    3    0    0  0.26563336717E+03  0.66053952410E+03 -0.17198628099E+03  0.73242940240E+03  0.00000000000E+00 0.  1.
        -13    1    3    3    0    0  0.74707313149E+02  0.11449109842E+03 -0.60604764462E+02  0.14954040167E+03  0.00000000000E+00 0. -1.
          2    1    5    5  502    0 -0.99363330606E+02 -0.29946075437E+03  0.72765180426E+02  0.32379713766E+03  0.00000000000E+00 0. -1.
          1    1    4    4  503    0  0.94608826521E+02  0.30981874709E+02 -0.61983451576E+02  0.11727171392E+03  0.00000000000E+00 0. -1.
         -2    1    4    4    0  503 -0.55022225420E+02 -0.48686691354E+01 -0.16445851813E+03  0.17348704106E+03  0.00000000000E+00 0.  1.
         -1    1    5    5    0  502 -0.28056395082E+03 -0.50168307373E+03  0.11837136018E+03  0.58686780102E+03  0.00000000000E+00 0.  1.
<mgrwt>
<rscale>  0 0.20660978E+04</rscale>
<asrwt>0</asrwt>
<pdfrwt beam="1">  1        1 0.18086846E+00 0.20660978E+04</pdfrwt>
<pdfrwt beam="2">  1       -1 0.13965362E+00 0.20660978E+04</pdfrwt>
<totfact> 0.43335184E+00</totfact>
</mgrwt>
</event>
<event>
12    1  0.2502641E-008  0.1249735E+04  0.7818608E-02  0.9070404E-01
         -1   -1    0    0    0  501 -0.00000000000E+00  0.00000000000E+00  0.29315460464E+03  0.29315460464E+03  0.00000000000E+00 0.  1.
          1   -1    0    0  501    0  0.00000000000E+00 -0.00000000000E+00 -0.13319224763E+04  0.13319224763E+04  0.00000000000E+00 0. -1.
         23    2    1    2    0    0  0.14800141239E+03  0.23381662705E+03 -0.21904957739E+03  0.36421646137E+03  0.89979332194E+02 0.  0.
        254    2    1    2    0    0 -0.14800141239E+03 -0.23381662705E+03 -0.81971829426E+03  0.12608606196E+04  0.91720051618E+03 0.  0.
        -24    2    4    4    0    0  0.17078954868E+03 -0.15263242599E+03  0.11096637851E+03  0.27070759371E+03  0.92213538766E+02 0.  0.
         24    2    4    4    0    0 -0.31879096107E+03 -0.81184201056E+02 -0.93068467277E+03  0.99015302586E+03  0.77527434716E+02 0.  0.
         13    1    3    3    0    0  0.11699986537E+03  0.18161544517E+03 -0.21269746246E+03  0.30317214410E+03  0.00000000000E+00 0. -1.
        -13    1    3    3    0    0  0.31001547015E+02  0.52201181874E+02 -0.63521149352E+01  0.61044317266E+02  0.00000000000E+00 0.  1.
          4    1    6    6  502    0 -0.48684939503E+02  0.11419009578E+02 -0.18590704190E+03  0.19251505225E+03  0.00000000000E+00 0. -1.
          1    1    5    5  503    0  0.12388913606E+03 -0.68801330074E+02  0.29487524659E+02  0.14474686582E+03  0.00000000000E+00 0. -1.
         -2    1    5    5    0  503  0.46900412616E+02 -0.83831095918E+02  0.81478853849E+02  0.12596072789E+03  0.00000000000E+00 0.  1.
         -3    1    6    6    0  502 -0.27010602156E+03 -0.92603210633E+02 -0.74477763087E+03  0.79763797361E+03  0.00000000000E+00 0.  1.
<mgrwt>
<rscale>  0 0.12497347E+04</rscale>
<asrwt>0</asrwt>
<pdfrwt beam="1">  1        1 0.20491115E+00 0.12497347E+04</pdfrwt>
<pdfrwt beam="2">  1       -1 0.45100710E-01 0.12497347E+04</pdfrwt>
<totfact> 0.41270073E+01</totfact>
</mgrwt>
</event>
<event>
11    1  0.2502641E-008  0.1371023E+04  0.7818608E-02  0.8975065E-01
          1   -1    0    0  501    0  0.00000000000E+00  0.00000000000E+00  0.19320037859E+04  0.19320037859E+04  0.00000000000E+00 0. -1.
         -1   -1    0    0    0  501 -0.00000000000E+00 -0.00000000000E+00 -0.24323251953E+03  0.24323251953E+03  0.00000000000E+00 0.  1.
         23    2    1    2    0    0 -0.88719796043E+01  0.33971799440E+02 -0.74892511314E+02  0.12549172931E+03  0.94374205671E+02 0.  0.
        254    2    1    2    0    0  0.88719796043E+01 -0.33971799440E+02  0.17636637777E+04  0.20497445761E+04  0.10438918102E+04 0.  0.
         24    2    4    4    0    0 -0.17825036584E+03 -0.27246977644E+03  0.83145729437E+03  0.89645219231E+03  0.79324200194E+02 0.  0.
         11    1    3    3    0    0  0.34543773587E+02  0.16957227262E+02 -0.68303733516E+02  0.78397830724E+02  0.00000000000E+00 0.  1.
        -11    1    3    3    0    0 -0.43415753191E+02  0.17014572178E+02 -0.65887777982E+01  0.47093898590E+02  0.00000000000E+00 0. -1.
          4    1    5    5  502    0 -0.99167992769E+02 -0.10322214015E+03  0.44012883015E+03  0.46282014664E+03  0.00000000000E+00 0. -1.
          3    1    4    4  503    0  0.11676248321E+03  0.43034756945E+03  0.78011114789E+03  0.89855768378E+03  0.00000000000E+00 0. -1.
         -4    1    4    4    0  503  0.70359862240E+02 -0.19184959245E+03  0.15209533542E+03  0.25473470002E+03  0.00000000000E+00 0.  1.
         -3    1    5    5    0  502 -0.79082373072E+02 -0.16924763629E+03  0.39132846422E+03  0.43363204567E+03  0.00000000000E+00 0.  1.
<mgrwt>
<rscale>  0 0.13710232E+04</rscale>
<asrwt>0</asrwt>
<pdfrwt beam="1">  1        1 0.29723134E+00 0.13710232E+04</pdfrwt>
<pdfrwt beam="2">  1       -1 0.37420389E-01 0.13710232E+04</pdfrwt>
<totfact> 0.22292881E+01</totfact>
</mgrwt>
</event>
<event>
11    1  0.2502641E-008  0.2458928E+04  0.7818608E-02  0.8417765E-01
          2   -1    0    0  501    0  0.00000000000E+00  0.00000000000E+00  0.32704610292E+04  0.32704610292E+04  0.00000000000E+00 0. -1.
         -2   -1    0    0    0  501 -0.00000000000E+00 -0.00000000000E+00 -0.46219240088E+03  0.46219240088E+03  0.00000000000E+00 0.  1.
         23    2    1    2    0    0  0.37288942472E+03 -0.90282655163E+03  0.18758514827E+04  0.21169114302E+04  0.91394270069E+02 0.  0.
        254    2    1    2    0    0 -0.37288942472E+03  0.90282655163E+03  0.93241714558E+03  0.16157419999E+04  0.88717426216E+03 0.  0.
         24    2    4    4    0    0 -0.17568135443E+03  0.21098949257E+03  0.79514499709E+03  0.84503532999E+03  0.80303413703E+02 0.  0.
         13    1    3    3    0    0  0.24935938412E+03 -0.58457161866E+03  0.13106800951E+04  0.14566352981E+04  0.00000000000E+00 0. -1.
        -13    1    3    3    0    0  0.12353004060E+03 -0.31825493297E+03  0.56517138756E+03  0.66027613209E+03  0.00000000000E+00 0.  1.
          4    1    5    5  502    0 -0.14883854868E+03  0.18649439330E+03  0.58530465541E+03  0.63207168261E+03  0.00000000000E+00 0. -1.
          3    1    4    4  503    0 -0.17310366654E+03  0.28499282521E+03  0.14371641878E+03  0.36309805675E+03  0.00000000000E+00 0. -1.
         -4    1    4    4    0  503 -0.24104403750E+02  0.40684423385E+03 -0.64442702963E+01  0.40760861315E+03  0.00000000000E+00 0.  1.
         -1    1    5    5    0  502 -0.26842805753E+02  0.24495099273E+02  0.20984034168E+03  0.21296364738E+03  0.00000000000E+00 0.  1.
<mgrwt>
<rscale>  0 0.24589284E+04</rscale>
<asrwt>0</asrwt>
<pdfrwt beam="1">  1        2 0.50314784E+00 0.24589284E+04</pdfrwt>
<pdfrwt beam="2">  1       -2 0.71106525E-01 0.24589284E+04</pdfrwt>
<totfact> 0.18748736E+00</totfact>
</mgrwt>
</event>
<event>
11    1  0.2502641E-008  0.1749411E+04  0.7818608E-02  0.8733675E-01
         -2   -1    0    0    0  501 -0.00000000000E+00  0.00000000000E+00  0.33151902517E+03  0.33151902517E+03  0.00000000000E+00 0.  1.
          2   -1    0    0  501    0  0.00000000000E+00 -0.00000000000E+00 -0.23078910344E+04  0.23078910344E+04  0.00000000000E+00 0. -1.
         23    2    1    2    0    0  0.12361759514E+03 -0.48853054186E+03 -0.13315607115E+04  0.14266657698E+04  0.91530814901E+02 0.  0.
        254    2    1    2    0    0 -0.12361759514E+03  0.48853054186E+03 -0.64481129766E+03  0.12127442897E+04  0.89499927515E+03 0.  0.
         24    2    4    4    0    0 -0.37668286477E+03  0.77264227251E+02  0.80852930875E+01  0.39287772413E+03  0.80173516363E+02 0.  0.
         13    1    3    3    0    0  0.65281539293E+02 -0.40460323232E+03 -0.10782777091E+04  0.11535372871E+04  0.00000000000E+00 0. -1.
        -13    1    3    3    0    0  0.58336055850E+02 -0.83927309531E+02 -0.25328300248E+03  0.27312848266E+03  0.00000000000E+00 0.  1.
          2    1    5    5  502    0 -0.37490416240E+03  0.78024437474E+02  0.17431154003E+02  0.38333378270E+03  0.00000000000E+00 0. -1.
          1    1    4    4  503    0  0.21023772369E+03  0.39784966773E+03 -0.60779286866E+03  0.75623834190E+03  0.00000000000E+00 0. -1.
         -2    1    4    4    0  503  0.42827545939E+02  0.13416646876E+02 -0.45103722089E+02  0.63628223697E+02  0.00000000000E+00 0.  1.
         -1    1    5    5    0  502 -0.17787023695E+01 -0.76021022386E+00 -0.93458609156E+01  0.95439414268E+01  0.00000000000E+00 0.  1.
<mgrwt>
<rscale>  0 0.17494111E+04</rscale>
<asrwt>0</asrwt>
<pdfrwt beam="1">  1        2 0.35506015E+00 0.17494111E+04</pdfrwt>
<pdfrwt beam="2">  1       -2 0.51002928E-01 0.17494111E+04</pdfrwt>
<totfact> 0.15464425E+01</totfact>
</mgrwt>
</event>
<event>
11    1  0.2502641E-008  0.2063980E+04  0.7818608E-02  0.8577279E-01
          2   -1    0    0  501    0  0.00000000000E+00  0.00000000000E+00  0.20754805675E+04  0.20754805675E+04  0.00000000000E+00 0. -1.
         -2   -1    0    0    0  501 -0.00000000000E+00 -0.00000000000E+00 -0.51313574347E+03  0.51313574347E+03  0.00000000000E+00 0.  1.
         23    2    1    2    0    0  0.29322152786E+03 -0.77356180831E+03  0.76125382956E+03  0.11295060835E+04  0.10908649773E+03 0.  0.
        254    2    1    2    0    0 -0.29322152786E+03  0.77356180831E+03  0.80109099450E+03  0.14591102275E+04  0.89603523301E+03 0.  0.
         24    2    4    4    0    0  0.41607420031E+02  0.54172071932E+03  0.87090389087E+03  0.10295606053E+04  0.79554620856E+02 0.  0.
         13    1    3    3    0    0  0.20393991226E+03 -0.61289979775E+03  0.54046213116E+03  0.84222144660E+03  0.00000000000E+00 0. -1.
        -13    1    3    3    0    0  0.89281615602E+02 -0.16066201056E+03  0.22079169840E+03  0.28728463691E+03  0.00000000000E+00 0.  1.
          4    1    5    5  502    0  0.37786985443E+02  0.54029550708E+03  0.84736529067E+03  0.10056714310E+04  0.00000000000E+00 0. -1.
          3    1    4    4  503    0 -0.27777882756E+03  0.14173907153E+03 -0.81338227121E+02  0.32228395652E+03  0.00000000000E+00 0. -1.
         -4    1    4    4    0  503 -0.57050120331E+02  0.90102017467E+02  0.11525330751E+02  0.10726566566E+03  0.00000000000E+00 0.  1.
         -3    1    5    5    0  502  0.38204345878E+01  0.14252122368E+01  0.23538600204E+02  0.23889174324E+02  0.00000000000E+00 0.  1.
<mgrwt>
<rscale>  0 0.20639799E+04</rscale>
<asrwt>0</asrwt>
<pdfrwt beam="1">  1        2 0.31930470E+00 0.20639799E+04</pdfrwt>
<pdfrwt beam="2">  1       -2 0.78943962E-01 0.20639799E+04</pdfrwt>
<totfact> 0.79818555E+00</totfact>
</mgrwt>
</event>
<event>
12    1  0.2502641E-008  0.2600249E+04  0.7818608E-02  0.8368117E-01
          1   -1    0    0  501    0  0.00000000000E+00  0.00000000000E+00  0.31020874130E+04  0.31020874130E+04  0.00000000000E+00 0. -1.
         -1   -1    0    0    0  501 -0.00000000000E+00 -0.00000000000E+00 -0.54489877662E+03  0.54489877662E+03  0.00000000000E+00 0.  1.
         23    2    1    2    0    0  0.33968059628E+03 -0.10368148951E+04  0.66857197530E+03  0.12857997214E+04  0.12619193034E+03 0.  0.
        254    2    1    2    0    0 -0.33968059628E+03  0.10368148951E+04  0.18886166611E+04  0.23611864682E+04  0.90441174866E+03 0.  0.
        -24    2    4    4    0    0  0.12979381552E+03  0.89786147083E+03  0.10871170114E+04  0.14191327844E+04  0.95461027768E+02 0.  0.
         24    2    4    4    0    0 -0.46947441180E+03  0.13895342423E+03  0.80149964965E+03  0.94205368385E+03  0.73138070865E+02 0.  0.
         11    1    3    3    0    0  0.13115679241E+03 -0.31688305346E+03  0.27269301702E+03  0.43815346091E+03  0.00000000000E+00 0. -1.
        -11    1    3    3    0    0  0.20852380387E+03 -0.71993184159E+03  0.39587895827E+03  0.84764626049E+03  0.00000000000E+00 0.  1.
          4    1    6    6  502    0 -0.29058275152E+03  0.12250046797E+03  0.51660944606E+03  0.60525203006E+03  0.00000000000E+00 0. -1.
          1    1    5    5  503    0  0.11062076822E+03  0.80566881875E+03  0.92499059158E+03  0.12316439398E+04  0.00000000000E+00 0. -1.
         -2    1    5    5    0  503  0.19173047305E+02  0.92192652077E+02  0.16212641984E+03  0.18748884460E+03  0.00000000000E+00 0.  1.
         -3    1    6    6    0  502 -0.17889166028E+03  0.16452956255E+02  0.28489020359E+03  0.33680165378E+03  0.00000000000E+00 0.  1.
<mgrwt>
<rscale>  0 0.26002489E+04</rscale>
<asrwt>0</asrwt>
<pdfrwt beam="1">  1        1 0.47724420E+00 0.26002489E+04</pdfrwt>
<pdfrwt beam="2">  1       -1 0.83830583E-01 0.26002489E+04</pdfrwt>
<totfact> 0.62472660E-01</totfact>
</mgrwt>
</event>
<event>
11    1  0.2502641E-008  0.1270392E+04  0.7818608E-02  0.9053380E-01
         -1   -1    0    0    0  501 -0.00000000000E+00  0.00000000000E+00  0.72608580436E+03  0.72608580436E+03  0.00000000000E+00 0.  1.
          1   -1    0    0  501    0  0.00000000000E+00 -0.00000000000E+00 -0.55568332875E+03  0.55568332875E+03  0.00000000000E+00 0. -1.
         23    2    1    2    0    0  0.27099145650E+03  0.84411485232E+02 -0.77922922172E+02  0.30911431186E+03  0.94435203508E+02 0.  0.
        254    2    1    2    0    0 -0.27099145650E+03 -0.84411485232E+02  0.24832539778E+03  0.97265482125E+03  0.89656579780E+03 0.  0.
         24    2    4    4    0    0 -0.55029719990E+03 -0.23459341293E+03  0.16714013908E+03  0.62577572660E+03  0.76146938851E+02 0.  0.
         11    1    3    3    0    0  0.21900417992E+03  0.71849173260E+02 -0.21687637722E+02  0.23150699374E+03  0.00000000000E+00 0.  1.
        -11    1    3    3    0    0  0.51987276572E+02  0.12562311972E+02 -0.56235284449E+02  0.77607318112E+02  0.00000000000E+00 0. -1.
          4    1    5    5  502    0 -0.46736148175E+03 -0.22675337247E+03  0.13750451032E+03  0.53735587547E+03  0.00000000000E+00 0. -1.
          1    1    4    4  503    0  0.21342153134E+03  0.15880055063E+03  0.87729218114E+02  0.28011208584E+03  0.00000000000E+00 0. -1.
         -2    1    4    4    0  503  0.65884212068E+02 -0.86186229383E+01 -0.65439594105E+01  0.66767008814E+02  0.00000000000E+00 0.  1.
         -3    1    5    5    0  502 -0.82935718159E+02 -0.78400404516E+01  0.29635628757E+02  0.88419851123E+02  0.00000000000E+00 0.  1.
<mgrwt>
<rscale>  0 0.12703917E+04</rscale>
<asrwt>0</asrwt>
<pdfrwt beam="1">  1        1 0.85489743E-01 0.12703917E+04</pdfrwt>
<pdfrwt beam="2">  1       -1 0.11170551E+00 0.12703917E+04</pdfrwt>
<totfact> 0.27712061E+01</totfact>
</mgrwt>
</event>
<event>
12    1  0.2502641E-008  0.2496156E+04  0.7818608E-02  0.8404356E-01
         -2   -1    0    0    0  501 -0.00000000000E+00  0.00000000000E+00  0.43246289297E+03  0.43246289297E+03  0.00000000000E+00 0.  1.
          2   -1    0    0  501    0  0.00000000000E+00 -0.00000000000E+00 -0.36019242367E+04  0.36019242367E+04  0.00000000000E+00 0. -1.
         23    2    1    2    0    0 -0.99613084309E+03  0.25163650960E+03 -0.82346269073E+03  0.13198419112E+04  0.91072927289E+02 0.  0.
        254    2    1    2    0    0  0.99613084309E+03 -0.25163650960E+03 -0.23459986530E+04  0.27145452185E+04  0.89969354427E+03 0.  0.
        -24    2    4    4    0    0  0.10024793668E+04  0.91785869765E+02 -0.18108777415E+04  0.20740516144E+04  0.94986196913E+02 0.  0.
         24    2    4    4    0    0 -0.63485237109E+01 -0.34342237936E+03 -0.53512091146E+03  0.64049360406E+03  0.76801253610E+02 0.  0.
         11    1    3    3    0    0 -0.87520780760E+03  0.19435044655E+03 -0.73654209191E+03  0.11602823172E+04  0.00000000000E+00 0.  1.
        -11    1    3    3    0    0 -0.12092303549E+03  0.57286063051E+02 -0.86920598826E+02  0.15955959399E+03  0.00000000000E+00 0. -1.
          2    1    6    6  502    0 -0.20953901495E+02 -0.79200683607E+02 -0.82992665628E+02  0.11661730926E+03  0.00000000000E+00 0. -1.
          1    1    5    5  503    0  0.29752884019E+02 -0.55874496429E+01 -0.89106160721E+02  0.94108243950E+02  0.00000000000E+00 0. -1.
         -2    1    5    5    0  503  0.97272648278E+03  0.97373319408E+02 -0.17217715808E+04  0.19799433704E+04  0.00000000000E+00 0.  1.
         -1    1    6    6    0  502  0.14605377784E+02 -0.26422169576E+03 -0.45212824583E+03  0.52387629480E+03  0.00000000000E+00 0.  1.
<mgrwt>
<rscale>  0 0.24961559E+04</rscale>
<asrwt>0</asrwt>
<pdfrwt beam="1">  1        2 0.55414218E+00 0.24961559E+04</pdfrwt>
<pdfrwt beam="2">  1       -2 0.66532753E-01 0.24961559E+04</pdfrwt>
<totfact> 0.12768242E+00</totfact>
</mgrwt>
</event>
<event>
12    1  0.2502641E-008  0.1466212E+04  0.7818608E-02  0.8907238E-01
          1   -1    0    0  501    0  0.00000000000E+00  0.00000000000E+00  0.73528346132E+03  0.73528346132E+03  0.00000000000E+00 0. -1.
         -1   -1    0    0    0  501 -0.00000000000E+00 -0.00000000000E+00 -0.73093504766E+03  0.73093504766E+03  0.00000000000E+00 0.  1.
         23    2    1    2    0    0  0.22684802209E+03  0.13339950907E+03 -0.36087446768E+03  0.45615247747E+03  0.92678191225E+02 0.  0.
        254    2    1    2    0    0 -0.22684802209E+03 -0.13339950907E+03  0.36522288135E+03  0.10100660315E+04  0.90420693473E+03 0.  0.
        -24    2    4    4    0    0  0.80914034117E+02  0.99277712236E+02  0.55423657478E+03  0.57297076227E+03  0.68659802873E+02 0.  0.
         24    2    4    4    0    0 -0.30776205621E+03 -0.23267722131E+03 -0.18901369343E+03  0.43709526924E+03  0.80435847313E+02 0.  0.
         11    1    3    3    0    0  0.14938460007E+03  0.11108667705E+03 -0.30753323957E+03  0.35948950192E+03  0.00000000000E+00 0.  1.
        -11    1    3    3    0    0  0.77463422021E+02  0.22312832022E+02 -0.53341228116E+02  0.96662975544E+02  0.00000000000E+00 0. -1.
          4    1    6    6  502    0 -0.19629820591E+03 -0.17147680155E+03 -0.16264298058E+03  0.30722958556E+03  0.00000000000E+00 0. -1.
          3    1    5    5  503    0  0.80829737964E+02  0.71577457976E+02  0.50559933133E+03  0.51699851342E+03  0.00000000000E+00 0. -1.
         -4    1    5    5    0  503  0.84296153066E-01  0.27700254260E+02  0.48637243447E+02  0.55972248856E+02  0.00000000000E+00 0.  1.
         -3    1    6    6    0  502 -0.11146385029E+03 -0.61200419754E+02 -0.26370712856E+02  0.12986568368E+03  0.00000000000E+00 0.  1.
<mgrwt>
<rscale>  0 0.14662121E+04</rscale>
<asrwt>0</asrwt>
<pdfrwt beam="1">  1        1 0.11312053E+00 0.14662121E+04</pdfrwt>
<pdfrwt beam="2">  1       -1 0.11245155E+00 0.14662121E+04</pdfrwt>
<totfact> 0.17751722E+01</totfact>
</mgrwt>
</event>
<event>
12    1  0.2502641E-008  0.1984813E+04  0.7818608E-02  0.8613754E-01
          2   -1    0    0  501    0  0.00000000000E+00  0.00000000000E+00  0.95230423799E+03  0.95230423799E+03  0.00000000000E+00 0. -1.
         -2   -1    0    0    0  501 -0.00000000000E+00 -0.00000000000E+00 -0.10341977364E+04  0.10341977364E+04  0.00000000000E+00 0.  1.
         23    2    1    2    0    0 -0.58867787864E+03 -0.16874938365E+03  0.45485731030E+03  0.76803935524E+03  0.89282020448E+02 0.  0.
        254    2    1    2    0    0  0.58867787864E+03  0.16874938365E+03 -0.53675080873E+03  0.12184626192E+04  0.90638387252E+03 0.  0.
        -24    2    4    4    0    0  0.69572472904E+03  0.36819619670E+03 -0.57158565526E+03  0.97708025777E+03  0.91511370675E+02 0.  0.
         24    2    4    4    0    0 -0.10704685040E+03 -0.19944681304E+03  0.34834846529E+02  0.24138236140E+03  0.76249055410E+02 0.  0.
         11    1    3    3    0    0 -0.36182139662E+03 -0.87200565520E+02  0.22474819652E+03  0.43477627985E+03  0.00000000000E+00 0. -1.
        -11    1    3    3    0    0 -0.22685648202E+03 -0.81548818134E+02  0.23010911378E+03  0.33326307539E+03  0.00000000000E+00 0.  1.
          4    1    6    6  502    0 -0.58289721512E+01  0.46105251491E+01 -0.65087136012E+01  0.98791300848E+01  0.00000000000E+00 0. -1.
          1    1    5    5  503    0  0.37124585694E+03  0.17466429017E+03 -0.24632566857E+03  0.47854721351E+03  0.00000000000E+00 0. -1.
         -2    1    5    5    0  503  0.32447887210E+03  0.19353190653E+03 -0.32525998668E+03  0.49853304426E+03  0.00000000000E+00 0.  1.
         -3    1    6    6    0  502 -0.10121787825E+03 -0.20405733819E+03  0.41343560130E+02  0.23150323132E+03  0.00000000000E+00 0.  1.
<mgrwt>
<rscale>  0 0.19848132E+04</rscale>
<asrwt>0</asrwt>
<pdfrwt beam="1">  1        2 0.14650835E+00 0.19848132E+04</pdfrwt>
<pdfrwt beam="2">  1       -2 0.15910734E+00 0.19848132E+04</pdfrwt>
<totfact> 0.64352527E+00</totfact>
</mgrwt>
</event>
<event>
12    1  0.2502641E-008  0.2176259E+04  0.7818608E-02  0.8528375E-01
          1   -1    0    0  501    0  0.00000000000E+00  0.00000000000E+00  0.87063842915E+03  0.87063842915E+03  0.00000000000E+00 0. -1.
         -1   -1    0    0    0  501 -0.00000000000E+00 -0.00000000000E+00 -0.13599507187E+04  0.13599507187E+04  0.00000000000E+00 0.  1.
         23    2    1    2    0    0 -0.77790270489E+03 -0.29453259332E+03  0.13608594437E+03  0.84758058954E+03  0.89394656999E+02 0.  0.
        254    2    1    2    0    0  0.77790270489E+03  0.29453259332E+03 -0.62539823393E+03  0.13830085583E+04  0.91088289840E+03 0.  0.
        -24    2    4    4    0    0  0.82091484860E+02 -0.19880160318E+03  0.10396053614E+03  0.25784866576E+03  0.97041496531E+02 0.  0.
         24    2    4    4    0    0  0.69581122003E+03  0.49333419650E+03 -0.72935877007E+03  0.11251598926E+04  0.80552374225E+02 0.  0.
         11    1    3    3    0    0 -0.25762853664E+03 -0.79256334667E+02  0.82982554199E+02  0.28202860454E+03  0.00000000000E+00 0. -1.
        -11    1    3    3    0    0 -0.52027416825E+03 -0.21527625865E+03  0.53103390171E+02  0.56555198500E+03  0.00000000000E+00 0.  1.
          2    1    6    6  502    0  0.65347184672E+03  0.48006154531E+03 -0.67536622501E+03  0.10552744096E+04  0.00000000000E+00 0. -1.
          1    1    5    5  503    0  0.10122923370E+03 -0.16804074495E+03  0.70286261714E+02  0.20838715964E+03  0.00000000000E+00 0. -1.
         -2    1    5    5    0  503 -0.19137748839E+02 -0.30760858228E+02  0.33674274426E+02  0.49461506120E+02  0.00000000000E+00 0.  1.
         -1    1    6    6    0  502  0.42339373307E+02  0.13272651186E+02 -0.53992545061E+02  0.69885482926E+02  0.00000000000E+00 0.  1.
<mgrwt>
<rscale>  0 0.21762586E+04</rscale>
<asrwt>0</asrwt>
<pdfrwt beam="1">  1        1 0.13394437E+00 0.21762586E+04</pdfrwt>
<pdfrwt beam="2">  1       -1 0.20922319E+00 0.21762586E+04</pdfrwt>
<totfact> 0.22877404E+00</totfact>
</mgrwt>
</event>
<event>
12    1  0.2502641E-008  0.1053999E+04  0.7818608E-02  0.9251225E-01
         -4   -1    0    0    0  501 -0.00000000000E+00  0.00000000000E+00  0.10003531449E+04  0.10003531449E+04  0.00000000000E+00 0. -1.
          4   -1    0    0  501    0  0.00000000000E+00 -0.00000000000E+00 -0.27763056880E+03  0.27763056880E+03  0.00000000000E+00 0.  1.
         23    2    1    2    0    0 -0.10139560737E+03 -0.48932543137E+02  0.46349202731E+01  0.14533687382E+03  0.91792491163E+02 0.  0.
        254    2    1    2    0    0  0.10139560737E+03  0.48932543137E+02  0.71808765581E+03  0.11326468399E+04  0.86865615722E+03 0.  0.
        -24    2    4    4    0    0 -0.23377295337E+03  0.18378853535E+03  0.69853452839E+03  0.76202325812E+03  0.65581545457E+02 0.  0.
         24    2    4    4    0    0  0.33516856074E+03 -0.13485599221E+03  0.19553127418E+02  0.37062358175E+03  0.80345577461E+02 0.  0.
         13    1    3    3    0    0 -0.29885630059E+02  0.24309363942E+02 -0.14572525574E+02  0.41188039051E+02  0.00000000000E+00 0.  1.
        -13    1    3    3    0    0 -0.71509977307E+02 -0.73241907079E+02  0.19207445848E+02  0.10414883477E+03  0.00000000000E+00 0. -1.
          4    1    6    6  502    0  0.19750414789E+03 -0.12035696116E+03  0.39458763734E+01  0.23132067887E+03  0.00000000000E+00 0. -1.
          1    1    5    5  503    0 -0.68061729602E+02  0.72750320613E+02  0.16919332806E+03  0.19634508001E+03  0.00000000000E+00 0. -1.
         -2    1    5    5    0  503 -0.16571122377E+03  0.11103821473E+03  0.52934120033E+03  0.56567817811E+03  0.00000000000E+00 0.  1.
         -1    1    6    6    0  502  0.13766441285E+03 -0.14499031051E+02  0.15607251045E+02  0.13930290288E+03  0.00000000000E+00 0.  1.
<mgrwt>
<rscale>  0 0.10539993E+04</rscale>
<asrwt>0</asrwt>
<pdfrwt beam="1">  1        4 0.42712396E-01 0.10539993E+04</pdfrwt>
<pdfrwt beam="2">  1       -4 0.15390048E+00 0.10539993E+04</pdfrwt>
<totfact> 0.29429870E+00</totfact>
</mgrwt>
</event>
<event>
12    1  0.2502641E-008  0.1642965E+04  0.7818608E-02  0.8794579E-01
         -2   -1    0    0    0  501 -0.00000000000E+00  0.00000000000E+00  0.12190753370E+04  0.12190753370E+04  0.00000000000E+00 0. -1.
          2   -1    0    0  501    0  0.00000000000E+00 -0.00000000000E+00 -0.55356196779E+03  0.55356196779E+03  0.00000000000E+00 0.  1.
         23    2    1    2    0    0  0.49817935976E+03 -0.20492232030E+03  0.71198132283E+02  0.55096348538E+03  0.91190768934E+02 0.  0.
        254    2    1    2    0    0 -0.49817935976E+03  0.20492232030E+03  0.59431523693E+03  0.12216738194E+04  0.92146648791E+03 0.  0.
        -24    2    4    4    0    0 -0.46355364116E+01  0.34616934832E+03 -0.82825656395E+02  0.36822989667E+03  0.94225588537E+02 0.  0.
         24    2    4    4    0    0 -0.49354382334E+03 -0.14124702802E+03  0.67714089332E+03  0.85344392273E+03  0.79438727038E+02 0.  0.
         11    1    3    3    0    0  0.26142549676E+03 -0.74524385790E+02  0.69851593135E+02  0.28067137278E+03  0.00000000000E+00 0. -1.
        -11    1    3    3    0    0  0.23675386299E+03 -0.13039793451E+03  0.13465391479E+01  0.27029211260E+03  0.00000000000E+00 0.  1.
          2    1    6    6  502    0 -0.71159685354E+02 -0.50685913392E+02  0.12083611215E+03  0.14911112848E+03  0.00000000000E+00 0. -1.
          1    1    5    5  503    0  0.22286955842E+02  0.70435583220E+02  0.13135873932E+02  0.75036197720E+02  0.00000000000E+00 0. -1.
         -2    1    5    5    0  503 -0.26922492254E+02  0.27573376510E+03 -0.95961530327E+02  0.29319369895E+03  0.00000000000E+00 0.  1.
         -1    1    6    6    0  502 -0.42238413799E+03 -0.90561114628E+02  0.55630478117E+03  0.70433279426E+03  0.00000000000E+00 0.  1.
<mgrwt>
<rscale>  0 0.16429653E+04</rscale>
<asrwt>0</asrwt>
<pdfrwt beam="1">  1        2 0.85163380E-01 0.16429653E+04</pdfrwt>
<pdfrwt beam="2">  1       -2 0.18755005E+00 0.16429653E+04</pdfrwt>
<totfact> 0.83986543E+00</totfact>
</mgrwt>
</event>
<event>
12    1  0.2502641E-008  0.2665051E+04  0.7818608E-02  0.8346435E-01
         -2   -1    0    0    0  501 -0.00000000000E+00  0.00000000000E+00  0.71844771928E+03  0.71844771928E+03  0.00000000000E+00 0. -1.
          2   -1    0    0  501    0  0.00000000000E+00 -0.00000000000E+00 -0.24714724944E+04  0.24714724944E+04  0.00000000000E+00 0.  1.
         23    2    1    2    0    0  0.44065579682E+03  0.84863018255E+03  0.55975485133E+02  0.96211078111E+03  0.90405653454E+02 0.  0.
        254    2    1    2    0    0 -0.44065579682E+03 -0.84863018255E+03 -0.18090002603E+04  0.22278094326E+04  0.88108013724E+03 0.  0.
        -24    2    4    4    0    0  0.17521093061E+03 -0.13373385621E+02 -0.94427120740E+02  0.22183723706E+03  0.97044118672E+02 0.  0.
         24    2    4    4    0    0 -0.61586672742E+03 -0.83525679693E+03 -0.17145731395E+04  0.20059721955E+04  0.84956786965E+02 0.  0.
         11    1    3    3    0    0  0.41033594670E+03  0.82702745722E+03  0.55128705103E+02  0.92487252001E+03  0.00000000000E+00 0. -1.
        -11    1    3    3    0    0  0.30319850116E+02  0.21602725339E+02  0.84678003055E+00  0.37238261097E+02  0.00000000000E+00 0.  1.
          4    1    6    6  502    0 -0.31049471078E+02 -0.64952414373E+02 -0.89311534611E+02  0.11471458496E+03  0.00000000000E+00 0. -1.
          3    1    5    5  503    0 -0.16617385311E+01  0.16995063553E+02 -0.23088505782E+02  0.28717114399E+02  0.00000000000E+00 0. -1.
         -4    1    5    5    0  503  0.17687266914E+03 -0.30368449174E+02 -0.71338614958E+02  0.19312012266E+03  0.00000000000E+00 0.  1.
         -3    1    6    6    0  502 -0.58481725634E+03 -0.77030438256E+03 -0.16252616049E+04  0.18912576106E+04  0.00000000000E+00 0.  1.
<mgrwt>
<rscale>  0 0.26650507E+04</rscale>
<asrwt>0</asrwt>
<pdfrwt beam="1">  1        2 0.38022654E+00 0.26650507E+04</pdfrwt>
<pdfrwt beam="2">  1       -2 0.11053042E+00 0.26650507E+04</pdfrwt>
<totfact> 0.20656004E+00</totfact>
</mgrwt>
</event>
<event>
12    1  0.2502641E-008  0.1629579E+04  0.7818608E-02  0.8802580E-01
         -1   -1    0    0    0  501 -0.00000000000E+00  0.00000000000E+00  0.19855028306E+03  0.19855028306E+03  0.00000000000E+00 0.  1.
          1   -1    0    0  501    0  0.00000000000E+00 -0.00000000000E+00 -0.33436455852E+04  0.33436455852E+04  0.00000000000E+00 0. -1.
         23    2    1    2    0    0  0.45958743935E+03  0.20400497904E+03 -0.57340961709E+03  0.76816242628E+03  0.91849215023E+02 0.  0.
        254    2    1    2    0    0 -0.45958743935E+03 -0.20400497904E+03 -0.25716856850E+04  0.27740334420E+04  0.91041508588E+03 0.  0.
        -24    2    4    4    0    0 -0.34684817221E+02 -0.34810255920E+03 -0.34050943824E+03  0.49680972710E+03  0.92167234642E+02 0.  0.
         24    2    4    4    0    0 -0.42490262213E+03  0.14409758016E+03 -0.22311762468E+04  0.22772237149E+04  0.79335063831E+02 0.  0.
         13    1    3    3    0    0  0.27041139289E+03  0.14942331439E+03 -0.40277244988E+03  0.50761727184E+03  0.00000000000E+00 0.  1.
        -13    1    3    3    0    0  0.18917604646E+03  0.54581664648E+02 -0.17063716721E+03  0.26054515444E+03  0.00000000000E+00 0. -1.
          2    1    6    6  502    0 -0.24314225203E+03  0.11649600427E+03 -0.12153712778E+04  0.12449163894E+04  0.00000000000E+00 0. -1.
          3    1    5    5  503    0  0.11564530195E+02 -0.10153973400E+01 -0.10875906655E+02  0.15907694237E+02  0.00000000000E+00 0. -1.
         -4    1    5    5    0  503 -0.46249347416E+02 -0.34708716186E+03 -0.32963353159E+03  0.48090203286E+03  0.00000000000E+00 0.  1.
         -1    1    6    6    0  502 -0.18176037010E+03  0.27601575895E+02 -0.10158049690E+04  0.10323073254E+04  0.00000000000E+00 0.  1.
<mgrwt>
<rscale>  0 0.16295788E+04</rscale>
<asrwt>0</asrwt>
<pdfrwt beam="1">  1        1 0.51440700E+00 0.16295788E+04</pdfrwt>
<pdfrwt beam="2">  1       -1 0.30546198E-01 0.16295788E+04</pdfrwt>
<totfact> 0.31527414E+00</totfact>
</mgrwt>
</event>
<event>
12    1  0.2502641E-008  0.1588716E+04  0.7818608E-02  0.8827510E-01
          2   -1    0    0  501    0  0.00000000000E+00  0.00000000000E+00  0.81040127299E+03  0.81040127299E+03  0.00000000000E+00 0. -1.
         -2   -1    0    0    0  501 -0.00000000000E+00 -0.00000000000E+00 -0.77863279913E+03  0.77863279913E+03  0.00000000000E+00 0.  1.
         23    2    1    2    0    0 -0.42011933200E+03  0.74427678066E+02  0.33677784340E+03  0.55107023635E+03  0.90660670677E+02 0.  0.
        254    2    1    2    0    0  0.42011933200E+03 -0.74427678066E+02 -0.30500936954E+03  0.10379638358E+04  0.89571115683E+03 0.  0.
        -24    2    4    4    0    0 -0.19270289851E+03  0.21584029873E+03 -0.13668318895E+03  0.33487266027E+03  0.98670982596E+02 0.  0.
         24    2    4    4    0    0  0.61282223051E+03 -0.29026797680E+03 -0.16832618059E+03  0.70309117549E+03  0.78720476542E+02 0.  0.
         13    1    3    3    0    0 -0.13126771504E+03  0.20017856237E+02  0.16059367244E+03  0.20838007392E+03  0.00000000000E+00 0. -1.
        -13    1    3    3    0    0 -0.28885161695E+03  0.54409821829E+02  0.17618417097E+03  0.34269016243E+03  0.00000000000E+00 0.  1.
          2    1    6    6  502    0  0.58247700004E+03 -0.26625547275E+03 -0.14118076838E+03  0.65582272124E+03  0.00000000000E+00 0. -1.
          1    1    5    5  503    0 -0.19212971879E+03  0.16307250603E+03 -0.10283482429E+03  0.27217911777E+03  0.00000000000E+00 0. -1.
         -2    1    5    5    0  503 -0.57317972493E+00  0.52767792698E+02 -0.33848364658E+02  0.62693542500E+02  0.00000000000E+00 0.  1.
         -1    1    6    6    0  502  0.30345230473E+02 -0.24012504046E+02 -0.27145412213E+02  0.47268454251E+02  0.00000000000E+00 0.  1.
<mgrwt>
<rscale>  0 0.15887165E+04</rscale>
<asrwt>0</asrwt>
<pdfrwt beam="1">  1        2 0.12467712E+00 0.15887165E+04</pdfrwt>
<pdfrwt beam="2">  1       -2 0.11978966E+00 0.15887165E+04</pdfrwt>
<totfact> 0.17328946E+01</totfact>
</mgrwt>
</event>
<event>
12    1  0.2502641E-008  0.1832451E+04  0.7818608E-02  0.8689231E-01
         -3   -1    0    0    0  501 -0.00000000000E+00  0.00000000000E+00  0.60217508980E+03  0.60217508980E+03  0.00000000000E+00 0.  1.
          3   -1    0    0  501    0  0.00000000000E+00 -0.00000000000E+00 -0.13940608868E+04  0.13940608868E+04  0.00000000000E+00 0. -1.
         23    2    1    2    0    0 -0.17208873981E+03 -0.72741388769E+02 -0.10252677871E+04  0.10461954988E+04  0.91897456148E+02 0.  0.
        254    2    1    2    0    0  0.17208873981E+03  0.72741388769E+02  0.23338199017E+03  0.95004047773E+03  0.90177819445E+03 0.  0.
        -24    2    4    4    0    0 -0.18373189495E+03  0.76326000356E+02  0.46691005234E+03  0.51697090886E+03  0.98340510874E+02 0.  0.
         24    2    4    4    0    0  0.35582063476E+03 -0.35846115871E+01 -0.23352806217E+03  0.43306956888E+03  0.79954500227E+02 0.  0.
         13    1    3    3    0    0 -0.13338532531E+03 -0.89162272315E+02 -0.89633441464E+03  0.91058055035E+03  0.00000000000E+00 0. -1.
        -13    1    3    3    0    0 -0.38703414498E+02  0.16420883546E+02 -0.12893337250E+03  0.13561494849E+03  0.00000000000E+00 0.  1.
          4    1    6    6  502    0  0.33015564947E+03 -0.23084765617E+02 -0.20069067429E+03  0.38705607607E+03  0.00000000000E+00 0. -1.
          3    1    5    5  503    0 -0.17048785970E+03  0.36974162410E+02  0.32188304029E+03  0.36611731810E+03  0.00000000000E+00 0. -1.
         -4    1    5    5    0  503 -0.13244035252E+02  0.39351837946E+02  0.14502701205E+03  0.15085359075E+03  0.00000000000E+00 0.  1.
         -3    1    6    6    0  502  0.25664985291E+02  0.19500154030E+02 -0.32837387881E+02  0.46013492804E+02  0.00000000000E+00 0.  1.
<mgrwt>
<rscale>  0 0.18324505E+04</rscale>
<asrwt>0</asrwt>
<pdfrwt beam="1">  1        3 0.21447090E+00 0.18324505E+04</pdfrwt>
<pdfrwt beam="2">  1       -3 0.92642323E-01 0.18324505E+04</pdfrwt>
<totfact> 0.30786958E-01</totfact>
</mgrwt>
</event>
<event>
12    1  0.2502641E-008  0.1510155E+04  0.7818608E-02  0.8877728E-01
         -2   -1    0    0    0  501 -0.00000000000E+00  0.00000000000E+00  0.19060611431E+03  0.19060611431E+03  0.00000000000E+00 0.  1.
          2   -1    0    0  501    0  0.00000000000E+00 -0.00000000000E+00 -0.29912070402E+04  0.29912070402E+04  0.00000000000E+00 0. -1.
         23    2    1    2    0    0 -0.25001569809E+03  0.69862929271E+02 -0.49731631075E+02  0.27898905540E+03  0.89291543410E+02 0.  0.
        254    2    1    2    0    0  0.25001569809E+03 -0.69862929271E+02 -0.27508692949E+04  0.29028240992E+04  0.88978491505E+03 0.  0.
        -24    2    4    4    0    0  0.13153008270E+03 -0.43064646721E+03 -0.20685777312E+04  0.21179647211E+04  0.63278649117E+02 0.  0.
         24    2    4    4    0    0  0.11848561540E+03  0.36078353794E+03 -0.68229156367E+03  0.78485937807E+03  0.79239277961E+02 0.  0.
         11    1    3    3    0    0 -0.20691353863E+02 -0.69979463453E+01 -0.28907984261E+02  0.36232236086E+02  0.00000000000E+00 0. -1.
        -11    1    3    3    0    0 -0.22932434423E+03  0.76860875616E+02 -0.20823646814E+02  0.24275681932E+03  0.00000000000E+00 0.  1.
          2    1    6    6  502    0  0.11990037197E+03  0.34432419614E+03 -0.60960641696E+03  0.71032051557E+03  0.00000000000E+00 0. -1.
          3    1    5    5  503    0  0.10061183146E+03 -0.33192583217E+03 -0.17069597037E+04  0.17418406726E+04  0.00000000000E+00 0. -1.
         -4    1    5    5    0  503  0.30918251241E+02 -0.98720635042E+02 -0.36161802751E+03  0.37612404851E+03  0.00000000000E+00 0.  1.
         -1    1    6    6    0  502 -0.14147565745E+01  0.16459341801E+02 -0.72685146716E+02  0.74538862493E+02  0.00000000000E+00 0.  1.
<mgrwt>
<rscale>  0 0.15101554E+04</rscale>
<asrwt>0</asrwt>
<pdfrwt beam="1">  1        2 0.46018565E+00 0.15101554E+04</pdfrwt>
<pdfrwt beam="2">  1       -2 0.29324021E-01 0.15101554E+04</pdfrwt>
<totfact> 0.18345473E+01</totfact>
</mgrwt>
</event>
<event>
11    1  0.2502641E-008  0.1228491E+04  0.7818608E-02  0.9088277E-01
         -1   -1    0    0    0  501 -0.00000000000E+00  0.00000000000E+00  0.22359829147E+03  0.22359829147E+03  0.00000000000E+00 0.  1.
          1   -1    0    0  501    0  0.00000000000E+00 -0.00000000000E+00 -0.16873902906E+04  0.16873902906E+04  0.00000000000E+00 0. -1.
         23    2    1    2    0    0  0.72336784227E+02  0.26349621915E+03 -0.31955896475E+03  0.43032655189E+03  0.91652285587E+02 0.  0.
        254    2    1    2    0    0 -0.72336784227E+02 -0.26349621915E+03 -0.11442330343E+04  0.14806620301E+04  0.89912621070E+03 0.  0.
         24    2    4    4    0    0  0.34000159642E+03 -0.23589583246E+03 -0.85358819891E+03  0.95188421544E+03  0.78884833418E+02 0.  0.
         11    1    3    3    0    0  0.26533352502E+02  0.22687124216E+03 -0.26899644312E+03  0.35289327810E+03  0.00000000000E+00 0. -1.
        -11    1    3    3    0    0  0.45803431724E+02  0.36624976986E+02 -0.50562521632E+02  0.77433273796E+02  0.00000000000E+00 0.  1.
          2    1    5    5  502    0  0.26508205367E+03 -0.14076426326E+03 -0.61437232665E+03  0.68376635537E+03  0.00000000000E+00 0. -1.
          1    1    4    4  503    0 -0.41249469542E+03  0.15504322145E+01 -0.27403441727E+03  0.49522635172E+03  0.00000000000E+00 0. -1.
         -2    1    4    4    0  503  0.15631476525E+00 -0.29150818902E+02 -0.16610418178E+02  0.33551462993E+02  0.00000000000E+00 0.  1.
         -1    1    5    5    0  502  0.74919542755E+02 -0.95131569202E+02 -0.23921587226E+03  0.26811786006E+03  0.00000000000E+00 0.  1.
<mgrwt>
<rscale>  0 0.12284911E+04</rscale>
<asrwt>0</asrwt>
<pdfrwt beam="1">  1        1 0.25959851E+00 0.12284911E+04</pdfrwt>
<pdfrwt beam="2">  1       -1 0.34399737E-01 0.12284911E+04</pdfrwt>
<totfact> 0.38443234E+01</totfact>
</mgrwt>
</event>
<event>
11    1  0.2502641E-008  0.1744469E+04  0.7818608E-02  0.8736401E-01
         -2   -1    0    0    0  501 -0.00000000000E+00  0.00000000000E+00  0.34540857649E+03  0.34540857649E+03  0.00000000000E+00 0.  1.
          2   -1    0    0  501    0  0.00000000000E+00 -0.00000000000E+00 -0.22025891446E+04  0.22025891446E+04  0.00000000000E+00 0. -1.
         23    2    1    2    0    0  0.41106476158E+03 -0.42664884229E+03 -0.35140540186E+03  0.69482924841E+03  0.91095856932E+02 0.  0.
        254    2    1    2    0    0 -0.41106476158E+03  0.42664884229E+03 -0.15057751663E+04  0.18531684727E+04  0.90325581318E+03 0.  0.
         24    2    4    4    0    0 -0.28465813935E+03 -0.23757315893E+03 -0.39251413735E+03  0.54586261614E+03  0.80170976877E+02 0.  0.
         11    1    3    3    0    0  0.40055429735E+03 -0.41710998335E+03 -0.32132791531E+03  0.66157094290E+03  0.00000000000E+00 0.  1.
        -11    1    3    3    0    0  0.10510464229E+02 -0.95388589425E+01 -0.30077486547E+02  0.33258305507E+02  0.00000000000E+00 0. -1.
          4    1    5    5  502    0 -0.22085046106E+02 -0.22895437997E+02 -0.73399816924E+01  0.32646985677E+02  0.00000000000E+00 0. -1.
          1    1    4    4  503    0  0.20927932479E+02  0.83608570736E+02 -0.14903484279E+03  0.17216200459E+03  0.00000000000E+00 0. -1.
         -2    1    4    4    0  503 -0.14733455471E+03  0.58061343049E+03 -0.96422618611E+03  0.11351438520E+04  0.00000000000E+00 0.  1.
         -3    1    5    5    0  502 -0.26257309324E+03 -0.21467772094E+03 -0.38517415566E+03  0.51321563046E+03  0.00000000000E+00 0.  1.
<mgrwt>
<rscale>  0 0.17444692E+04</rscale>
<asrwt>0</asrwt>
<pdfrwt beam="1">  1        2 0.33885987E+00 0.17444692E+04</pdfrwt>
<pdfrwt beam="2">  1       -2 0.53139780E-01 0.17444692E+04</pdfrwt>
<totfact> 0.16301524E+01</totfact>
</mgrwt>
</event>
<event>
11    1  0.2502641E-008  0.2634441E+04  0.7818608E-02  0.8356596E-01
         -2   -1    0    0    0  501 -0.00000000000E+00  0.00000000000E+00  0.99188040885E+03  0.99188040885E+03  0.00000000000E+00 0.  1.
          2   -1    0    0  501    0  0.00000000000E+00 -0.00000000000E+00 -0.17492735820E+04  0.17492735820E+04  0.00000000000E+00 0. -1.
         23    2    1    2    0    0  0.13870868453E+03 -0.81298323239E+03  0.49581763445E+03  0.96793349476E+03  0.10429903323E+03 0.  0.
        254    2    1    2    0    0 -0.13870868453E+03  0.81298323239E+03 -0.12532108076E+04  0.17732204961E+04  0.94529982769E+03 0.  0.
         24    2    4    4    0    0 -0.38582609557E+03  0.81687530693E+03 -0.77350734643E+03  0.11919923051E+04  0.79906177980E+02 0.  0.
         13    1    3    3    0    0  0.37776475715E+02 -0.43235343651E+03  0.21544501658E+03  0.48453391146E+03  0.00000000000E+00 0. -1.
        -13    1    3    3    0    0  0.10093220881E+03 -0.38062979588E+03  0.28037261787E+03  0.48339958330E+03  0.00000000000E+00 0.  1.
          2    1    5    5  502    0 -0.31037292824E+03  0.57511112885E+03 -0.54755674159E+03  0.85258580235E+03  0.00000000000E+00 0. -1.
          3    1    4    4  503    0  0.20579481842E+03  0.90580584562E+02 -0.31862697157E+03  0.38997371270E+03  0.00000000000E+00 0. -1.
         -4    1    4    4    0  503  0.41322592624E+02 -0.94472659101E+02 -0.16107648964E+03  0.19125447837E+03  0.00000000000E+00 0.  1.
         -1    1    5    5    0  502 -0.75453167336E+02  0.24176417808E+03 -0.22595060484E+03  0.33940650273E+03  0.00000000000E+00 0.  1.
<mgrwt>
<rscale>  0 0.26344413E+04</rscale>
<asrwt>0</asrwt>
<pdfrwt beam="1">  1        2 0.26911901E+00 0.26344413E+04</pdfrwt>
<pdfrwt beam="2">  1       -2 0.15259699E+00 0.26344413E+04</pdfrwt>
<totfact> 0.23249697E+00</totfact>
</mgrwt>
</event>
<event>
12    1  0.2502641E-008  0.2185500E+04  0.7818608E-02  0.8524488E-01
          2   -1    0    0  501    0  0.00000000000E+00  0.00000000000E+00  0.22035908339E+04  0.22035908339E+04  0.00000000000E+00 0. -1.
         -2   -1    0    0    0  501 -0.00000000000E+00 -0.00000000000E+00 -0.54188926088E+03  0.54188926088E+03  0.00000000000E+00 0.  1.
         23    2    1    2    0    0 -0.31538252095E+02  0.85143785322E+03  0.30618434882E+03  0.91007830522E+03  0.92480197472E+02 0.  0.
        254    2    1    2    0    0  0.31538252095E+02 -0.85143785322E+03  0.13555172242E+04  0.18354017895E+04  0.89740275503E+03 0.  0.
        -24    2    4    4    0    0  0.82010196951E+02 -0.92924419598E+03  0.14187873798E+04  0.17012096337E+04  0.10457600386E+03 0.  0.
         24    2    4    4    0    0 -0.50471944856E+02  0.77806342766E+02 -0.63270155608E+02  0.13419215583E+03  0.73506312001E+02 0.  0.
         11    1    3    3    0    0  0.15011057534E+02  0.61444884230E+02  0.54036446907E+01  0.63482320549E+02  0.00000000000E+00 0. -1.
        -11    1    3    3    0    0 -0.46549309630E+02  0.78999296899E+03  0.30078070413E+03  0.84659598467E+03  0.00000000000E+00 0.  1.
          2    1    6    6  502    0 -0.36191324285E+02 -0.11577316502E+01 -0.89783528496E+01  0.37306341498E+02  0.00000000000E+00 0. -1.
          1    1    5    5  503    0  0.46765604305E+02 -0.17582734023E+03  0.32740983556E+03  0.37456571618E+03  0.00000000000E+00 0. -1.
         -2    1    5    5    0  503  0.35244592646E+02 -0.75341685576E+03  0.10913775442E+04  0.13266439175E+04  0.00000000000E+00 0.  1.
         -3    1    6    6    0  502 -0.14280620571E+02  0.78964074416E+02 -0.54291802758E+02  0.96885814333E+02  0.00000000000E+00 0.  1.
<mgrwt>
<rscale>  0 0.21854997E+04</rscale>
<asrwt>0</asrwt>
<pdfrwt beam="1">  1        2 0.33901397E+00 0.21854997E+04</pdfrwt>
<pdfrwt beam="2">  1       -2 0.83367580E-01 0.21854997E+04</pdfrwt>
<totfact> 0.59223570E+00</totfact>
</mgrwt>
</event>
<event>
12    1  0.2502641E-008  0.1579296E+04  0.7818608E-02  0.8833369E-01
          2   -1    0    0  501    0  0.00000000000E+00  0.00000000000E+00  0.20395190802E+04  0.20395190802E+04  0.00000000000E+00 0. -1.
         -2   -1    0    0    0  501 -0.00000000000E+00 -0.00000000000E+00 -0.30573077532E+03  0.30573077532E+03  0.00000000000E+00 0.  1.
         23    2    1    2    0    0 -0.28698576468E+03  0.61192780240E+02 -0.66796576570E+02  0.31389964797E+03  0.89251447452E+02 0.  0.
        254    2    1    2    0    0  0.28698576468E+03 -0.61192780240E+02  0.18005848815E+04  0.20313502076E+04  0.89340492775E+03 0.  0.
        -24    2    4    4    0    0  0.55117683039E+03 -0.55974994354E+02  0.15800151779E+04  0.16779559023E+04  0.11026762481E+03 0.  0.
         24    2    4    4    0    0 -0.26419106571E+03 -0.52177858864E+01  0.22056970355E+03  0.35339430532E+03  0.80077440138E+02 0.  0.
         11    1    3    3    0    0 -0.12963824719E+03 -0.15402677769E+02 -0.42069321482E+02  0.13716102007E+03  0.00000000000E+00 0. -1.
        -11    1    3    3    0    0 -0.15734751749E+03  0.76595458009E+02 -0.24727255088E+02  0.17673862790E+03  0.00000000000E+00 0.  1.
          2    1    6    6  502    0 -0.22129044308E+02 -0.22895290703E+02  0.14422556894E+02  0.34955673155E+02  0.00000000000E+00 0. -1.
          1    1    5    5  503    0  0.58247265754E+02  0.28170492129E+02  0.17038669192E+03  0.18225790896E+03  0.00000000000E+00 0. -1.
         -2    1    5    5    0  503  0.49292956463E+03 -0.84145486482E+02  0.14096284860E+04  0.14956979933E+04  0.00000000000E+00 0.  1.
         -1    1    6    6    0  502 -0.24206202140E+03  0.17677504816E+02  0.20614714665E+03  0.31843863216E+03  0.00000000000E+00 0.  1.
<mgrwt>
<rscale>  0 0.15792957E+04</rscale>
<asrwt>0</asrwt>
<pdfrwt beam="1">  1        2 0.31377216E+00 0.15792957E+04</pdfrwt>
<pdfrwt beam="2">  1       -2 0.47035505E-01 0.15792957E+04</pdfrwt>
<totfact> 0.26143405E+01</totfact>
</mgrwt>
</event>
<event>
11    1  0.2502641E-008  0.2166809E+04  0.7818608E-02  0.8532371E-01
          2   -1    0    0  501    0  0.00000000000E+00  0.00000000000E+00  0.19813498652E+04  0.19813498652E+04  0.00000000000E+00 0. -1.
         -2   -1    0    0    0  501 -0.00000000000E+00 -0.00000000000E+00 -0.59240668936E+03  0.59240668936E+03  0.00000000000E+00 0.  1.
         23    2    1    2    0    0  0.42731021511E+03 -0.32887286011E+03  0.14112228274E+04  0.15134727935E+04  0.91096926621E+02 0.  0.
        254    2    1    2    0    0 -0.42731021511E+03  0.32887286011E+03 -0.22279651525E+02  0.10602837611E+04  0.91266307754E+03 0.  0.
         24    2    4    4    0    0 -0.53778591699E+03  0.47396396173E+03  0.18712766464E+03  0.74504936603E+03  0.78906688090E+02 0.  0.
         13    1    3    3    0    0  0.36929784160E+03 -0.31889253197E+03  0.12662627417E+04  0.13570168288E+04  0.00000000000E+00 0. -1.
        -13    1    3    3    0    0  0.58012373507E+02 -0.99803281441E+01  0.14496008570E+03  0.15645596465E+03  0.00000000000E+00 0.  1.
          4    1    5    5  502    0  0.80337653960E+00 -0.20078759170E+01  0.16928563933E+01  0.27464053472E+01  0.00000000000E+00 0. -1.
          3    1    4    4  503    0 -0.15904987286E+02  0.51813083757E+01  0.11023605055E+02  0.20033333358E+02  0.00000000000E+00 0. -1.
         -4    1    4    4    0  503  0.12638068916E+03 -0.15027240999E+03 -0.22043092122E+03  0.29520106170E+03  0.00000000000E+00 0.  1.
         -3    1    5    5    0  502 -0.53858929353E+03  0.47597183765E+03  0.18543480824E+03  0.74230296069E+03  0.00000000000E+00 0.  1.
<mgrwt>
<rscale>  0 0.21668086E+04</rscale>
<asrwt>0</asrwt>
<pdfrwt beam="1">  1        2 0.30482305E+00 0.21668086E+04</pdfrwt>
<pdfrwt beam="2">  1       -2 0.91139492E-01 0.21668086E+04</pdfrwt>
<totfact> 0.64372947E+00</totfact>
</mgrwt>
</event>
<event>
11    1  0.2502641E-008  0.1500923E+04  0.7818608E-02  0.8883839E-01
         -1   -1    0    0    0  501 -0.00000000000E+00  0.00000000000E+00  0.26470914659E+03  0.26470914659E+03  0.00000000000E+00 0.  1.
          1   -1    0    0  501    0  0.00000000000E+00 -0.00000000000E+00 -0.21275892997E+04  0.21275892997E+04  0.00000000000E+00 0. -1.
         23    2    1    2    0    0  0.40213281773E+03  0.10621860447E+03 -0.95792359186E+03  0.10486872363E+04  0.95572573059E+02 0.  0.
        254    2    1    2    0    0 -0.40213281773E+03 -0.10621860447E+03 -0.90495656130E+03  0.13436112100E+04  0.90186002842E+03 0.  0.
         24    2    4    4    0    0 -0.84255710396E+02  0.33373491886E+03 -0.60758818226E+03  0.70283588414E+03  0.79604396903E+02 0.  0.
         13    1    3    3    0    0  0.31801702916E+03  0.97155764279E+02 -0.84110194680E+03  0.90444820652E+03  0.00000000000E+00 0. -1.
        -13    1    3    3    0    0  0.84115788568E+02  0.90628401906E+01 -0.11682164505E+03  0.14423902978E+03  0.00000000000E+00 0.  1.
          4    1    5    5  502    0 -0.64390609392E+02  0.10170518615E+03 -0.21195729435E+03  0.24375395402E+03  0.00000000000E+00 0. -1.
          1    1    4    4  503    0  0.94372295828E+01 -0.75072514265E+02 -0.57640481861E+02  0.95117657927E+02  0.00000000000E+00 0. -1.
         -2    1    4    4    0  503 -0.32731433692E+03 -0.36488100907E+03 -0.23972789717E+03  0.54565766797E+03  0.00000000000E+00 0.  1.
         -3    1    5    5    0  502 -0.19865101004E+02  0.23202973271E+03 -0.39563088791E+03  0.45908193013E+03  0.00000000000E+00 0.  1.
<mgrwt>
<rscale>  0 0.15009228E+04</rscale>
<asrwt>0</asrwt>
<pdfrwt beam="1">  1        1 0.32732142E+00 0.15009228E+04</pdfrwt>
<pdfrwt beam="2">  1       -1 0.40724485E-01 0.15009228E+04</pdfrwt>
<totfact> 0.13927216E+01</totfact>
</mgrwt>
</event>
<event>
11    1  0.2502641E-008  0.2578419E+04  0.7818608E-02  0.8375569E-01
          2   -1    0    0  501    0  0.00000000000E+00  0.00000000000E+00  0.24508443341E+04  0.24508443341E+04  0.00000000000E+00 0. -1.
         -2   -1    0    0    0  501 -0.00000000000E+00 -0.00000000000E+00 -0.67815847392E+03  0.67815847392E+03  0.00000000000E+00 0.  1.
         23    2    1    2    0    0  0.19676798958E+03  0.82618847296E+03  0.16968488827E+04  0.18999036496E+04  0.95040584079E+02 0.  0.
        254    2    1    2    0    0 -0.19676798958E+03 -0.82618847296E+03  0.75836977492E+02  0.12290991584E+04  0.88522791384E+03 0.  0.
         24    2    4    4    0    0 -0.12933246086E+03 -0.57154381416E+03  0.41832408854E+03  0.72446871102E+03  0.80440370787E+02 0.  0.
         11    1    3    3    0    0  0.20676349699E+03  0.75926806423E+03  0.15591632214E+04  0.17464905061E+04  0.00000000000E+00 0. -1.
        -11    1    3    3    0    0 -0.99955074139E+01  0.66920408725E+02  0.13768566131E+03  0.15341314352E+03  0.00000000000E+00 0.  1.
          2    1    5    5  502    0  0.10743475243E+02 -0.63406384113E+02  0.49438823366E+02  0.81117131744E+02  0.00000000000E+00 0. -1.
          1    1    4    4  503    0 -0.99055199101E+02 -0.20952564059E+03 -0.93982080124E+02  0.25009109924E+03  0.00000000000E+00 0. -1.
         -2    1    4    4    0  503  0.31619670382E+02 -0.45119018204E+02 -0.24850503092E+03  0.25453934814E+03  0.00000000000E+00 0.  1.
         -1    1    5    5    0  502 -0.14007593610E+03 -0.50813743005E+03  0.36888526517E+03  0.64335157927E+03  0.00000000000E+00 0.  1.
<mgrwt>
<rscale>  0 0.25784188E+04</rscale>
<asrwt>0</asrwt>
<pdfrwt beam="1">  1        2 0.37705297E+00 0.25784188E+04</pdfrwt>
<pdfrwt beam="2">  1       -2 0.10433207E+00 0.25784188E+04</pdfrwt>
<totfact> 0.24578496E+00</totfact>
</mgrwt>
</event>
<event>
12    1  0.2502641E-008  0.1824521E+04  0.7818608E-02  0.8693367E-01
          1   -1    0    0  501    0  0.00000000000E+00  0.00000000000E+00  0.29780520960E+04  0.29780520960E+04  0.00000000000E+00 0. -1.
         -1   -1    0    0    0  501 -0.00000000000E+00 -0.00000000000E+00 -0.27945084509E+03  0.27945084509E+03  0.00000000000E+00 0.  1.
         23    2    1    2    0    0  0.28461865461E+03 -0.77651984066E+02  0.21325457051E+04  0.21547452351E+04  0.90212166604E+02 0.  0.
        254    2    1    2    0    0 -0.28461865461E+03  0.77651984066E+02  0.56605554588E+03  0.11027577060E+04  0.89923193219E+03 0.  0.
        -24    2    4    4    0    0 -0.54984115202E+03 -0.15764896033E+03  0.38912774065E+03  0.69879307869E+03  0.98553950347E+02 0.  0.
         24    2    4    4    0    0  0.26522249741E+03  0.23530094440E+03  0.17692780522E+03  0.40396462728E+03  0.78577759370E+02 0.  0.
         11    1    3    3    0    0  0.16276758061E+03 -0.86575503353E+02  0.13988379506E+04  0.14109345184E+04  0.00000000000E+00 0. -1.
        -11    1    3    3    0    0  0.12185107400E+03  0.89235192869E+01  0.73370775441E+03  0.74381071672E+03  0.00000000000E+00 0.  1.
          4    1    6    6  502    0  0.22842996568E+03  0.17811566634E+03  0.11391667639E+03  0.31125945604E+03  0.00000000000E+00 0. -1.
          3    1    5    5  503    0 -0.32797031092E+03 -0.43489864855E+02  0.22698969587E+03  0.40122339815E+03  0.00000000000E+00 0. -1.
         -4    1    5    5    0  503 -0.22187084109E+03 -0.11415909548E+03  0.16213804478E+03  0.29756968053E+03  0.00000000000E+00 0.  1.
         -3    1    6    6    0  502  0.36792531731E+02  0.57185278065E+02  0.63011128835E+02  0.92705171245E+02  0.00000000000E+00 0.  1.
<mgrwt>
<rscale>  0 0.18245210E+04</rscale>
<asrwt>0</asrwt>
<pdfrwt beam="1">  1        1 0.45816184E+00 0.18245210E+04</pdfrwt>
<pdfrwt beam="2">  1       -1 0.42992440E-01 0.18245210E+04</pdfrwt>
<totfact> 0.31227215E+00</totfact>
</mgrwt>
</event>
<event>
11    1  0.2502641E-008  0.2931862E+04  0.7818608E-02  0.8263460E-01
          1   -1    0    0  501    0  0.00000000000E+00  0.00000000000E+00  0.71496033075E+03  0.71496033075E+03  0.00000000000E+00 0. -1.
         -1   -1    0    0    0  501 -0.00000000000E+00 -0.00000000000E+00 -0.30056973973E+04  0.30056973973E+04  0.00000000000E+00 0.  1.
         23    2    1    2    0    0  0.17198181291E+03 -0.10784016445E+04 -0.20418730644E+04  0.23173822323E+04  0.92124637936E+02 0.  0.
        254    2    1    2    0    0 -0.17198181291E+03  0.10784016445E+04 -0.24886400217E+03  0.14032754957E+04  0.84541171891E+03 0.  0.
         24    2    4    4    0    0 -0.96443278509E+02  0.11914745131E+03 -0.35388454704E+03  0.39556349131E+03  0.87970346684E+02 0.  0.
         11    1    3    3    0    0  0.13181968288E+03 -0.84555650015E+03 -0.16761112187E+04  0.18819381077E+04  0.00000000000E+00 0.  1.
        -11    1    3    3    0    0  0.40162130030E+02 -0.23284514434E+03 -0.36576184563E+03  0.43544412460E+03  0.00000000000E+00 0. -1.
          4    1    5    5  502    0 -0.42707872295E+02  0.96064895076E+02 -0.14803637149E+03  0.18156870244E+03  0.00000000000E+00 0. -1.
          3    1    4    4  503    0 -0.55175054580E+02  0.97490758214E+03  0.10423616502E+03  0.98201540643E+03  0.00000000000E+00 0. -1.
         -4    1    4    4    0  503 -0.20363479819E+02 -0.15653388953E+02  0.78437984601E+00  0.25696597981E+02  0.00000000000E+00 0.  1.
         -3    1    5    5    0  502 -0.53735406215E+02  0.23082556234E+02 -0.20584817555E+03  0.21399478887E+03  0.00000000000E+00 0.  1.
<mgrwt>
<rscale>  0 0.29318625E+04</rscale>
<asrwt>0</asrwt>
<pdfrwt beam="1">  1        1 0.10999390E+00 0.29318625E+04</pdfrwt>
<pdfrwt beam="2">  1       -1 0.46241498E+00 0.29318625E+04</pdfrwt>
<totfact> 0.59942393E-02</totfact>
</mgrwt>
</event>
<event>
12    1  0.2502641E-008  0.2636687E+04  0.7818608E-02  0.8355845E-01
          1   -1    0    0  501    0  0.00000000000E+00  0.00000000000E+00  0.10272725001E+04  0.10272725001E+04  0.00000000000E+00 0. -1.
         -1   -1    0    0    0  501 -0.00000000000E+00 -0.00000000000E+00 -0.16918880055E+04  0.16918880055E+04  0.00000000000E+00 0.  1.
         23    2    1    2    0    0  0.73617512768E+03  0.53087086702E+03 -0.10371517322E+04  0.13813408614E+04  0.92957859885E+02 0.  0.
        254    2    1    2    0    0 -0.73617512768E+03 -0.53087086702E+03  0.37253622676E+03  0.13378196443E+04  0.90950561534E+03 0.  0.
        -24    2    4    4    0    0 -0.92129952435E+03 -0.28897548125E+03  0.27700135130E+03  0.10088227572E+04  0.93241431199E+02 0.  0.
         24    2    4    4    0    0  0.18512439667E+03 -0.24189538577E+03  0.95534875459E+02  0.32899688709E+03  0.79546334817E+02 0.  0.
         11    1    3    3    0    0  0.46326791934E+03  0.33513951734E+03 -0.71994711817E+03  0.91937996179E+03  0.00000000000E+00 0. -1.
        -11    1    3    3    0    0  0.27290720833E+03  0.19573134968E+03 -0.31720461398E+03  0.46196089958E+03  0.00000000000E+00 0.  1.
          2    1    6    6  502    0  0.16294819155E+03 -0.23098288854E+03  0.10634921174E+03  0.30201881194E+03  0.00000000000E+00 0. -1.
          1    1    5    5  503    0 -0.49604547473E+03 -0.20360255944E+03  0.14575367824E+03  0.55566109269E+03  0.00000000000E+00 0. -1.
         -2    1    5    5    0  503 -0.42525404962E+03 -0.85372921810E+02  0.13124767307E+03  0.45316166451E+03  0.00000000000E+00 0.  1.
         -1    1    6    6    0  502  0.22176205123E+02 -0.10912497232E+02 -0.10814336281E+02  0.26978075148E+02  0.00000000000E+00 0.  1.
<mgrwt>
<rscale>  0 0.26366873E+04</rscale>
<asrwt>0</asrwt>
<pdfrwt beam="1">  1        1 0.15804192E+00 0.26366873E+04</pdfrwt>
<pdfrwt beam="2">  1       -1 0.26029046E+00 0.26366873E+04</pdfrwt>
<totfact> 0.75570490E-01</totfact>
</mgrwt>
</event>
<event>
11    1  0.2502641E-008  0.1755444E+04  0.7818608E-02  0.8730359E-01
         -1   -1    0    0    0  501 -0.00000000000E+00  0.00000000000E+00  0.39931565724E+03  0.39931565724E+03  0.00000000000E+00 0.  1.
          1   -1    0    0  501    0  0.00000000000E+00 -0.00000000000E+00 -0.19292903238E+04  0.19292903238E+04  0.00000000000E+00 0. -1.
         23    2    1    2    0    0 -0.31394571346E+03 -0.12429900816E+02 -0.13791322549E+04  0.14175028787E+04  0.92694235542E+02 0.  0.
        254    2    1    2    0    0  0.31394571346E+03  0.12429900816E+02 -0.15084241173E+03  0.91110310236E+03  0.84180699481E+03 0.  0.
         24    2    4    4    0    0  0.55972507243E+03  0.24528564490E+02  0.34036337578E+02  0.56728394763E+03  0.82211907820E+02 0.  0.
         13    1    3    3    0    0 -0.20337623938E+03 -0.42057333901E+02 -0.10057278902E+04  0.10269465922E+04  0.00000000000E+00 0. -1.
        -13    1    3    3    0    0 -0.11056947409E+03  0.29627433085E+02 -0.37340436467E+03  0.39055628652E+03  0.00000000000E+00 0.  1.
          2    1    5    5  502    0  0.46816866970E+02 -0.18622211373E+02  0.13465567793E+02  0.52152922308E+02  0.00000000000E+00 0. -1.
          3    1    4    4  503    0 -0.26976019684E+01  0.22638496090E+02 -0.68289781624E+02  0.71994950072E+02  0.00000000000E+00 0. -1.
         -4    1    4    4    0  503 -0.24308175699E+03 -0.34737159765E+02 -0.11658896768E+03  0.27182420466E+03  0.00000000000E+00 0.  1.
         -1    1    5    5    0  502  0.51290820546E+03  0.43150775863E+02  0.20570769784E+02  0.51513102532E+03  0.00000000000E+00 0.  1.
<mgrwt>
<rscale>  0 0.17554439E+04</rscale>
<asrwt>0</asrwt>
<pdfrwt beam="1">  1        1 0.29681389E+00 0.17554439E+04</pdfrwt>
<pdfrwt beam="2">  1       -1 0.61433178E-01 0.17554439E+04</pdfrwt>
<totfact> 0.84726854E+00</totfact>
</mgrwt>
</event>
<event>
11    1  0.2502641E-008  0.1504536E+04  0.7818608E-02  0.8881442E-01
         -2   -1    0    0    0  501 -0.00000000000E+00  0.00000000000E+00  0.15850499677E+03  0.15850499677E+03  0.00000000000E+00 0.  1.
          2   -1    0    0  501    0  0.00000000000E+00 -0.00000000000E+00 -0.35702788361E+04  0.35702788361E+04  0.00000000000E+00 0. -1.
         23    2    1    2    0    0 -0.33869319411E+03  0.20808611270E+03 -0.45001033727E+03  0.60742900921E+03  0.91911846637E+02 0.  0.
        254    2    1    2    0    0  0.33869319411E+03 -0.20808611270E+03 -0.29617635020E+04  0.31213548236E+04  0.90155420415E+03 0.  0.
         24    2    4    4    0    0  0.50460001098E+03  0.16189179481E+03 -0.14107450900E+04  0.15091450038E+04  0.80540729183E+02 0.  0.
         11    1    3    3    0    0 -0.75064141143E+01  0.15594581930E+02 -0.11677095173E+01  0.17346491978E+02  0.00000000000E+00 0. -1.
        -11    1    3    3    0    0 -0.33118677999E+03  0.19249153077E+03 -0.44884262775E+03  0.59008251723E+03  0.00000000000E+00 0.  1.
          4    1    5    5  502    0  0.35338188719E+03  0.98788704420E+02 -0.87266074440E+03  0.94666506280E+03  0.00000000000E+00 0. -1.
          3    1    4    4  503    0 -0.18343941802E+03 -0.31691697296E+03 -0.14615490713E+04  0.15067222954E+04  0.00000000000E+00 0. -1.
         -4    1    4    4    0  503  0.17532601155E+02 -0.53060934548E+02 -0.89469340728E+02  0.10548752442E+03  0.00000000000E+00 0.  1.
         -3    1    5    5    0  502  0.15121812378E+03  0.63103090391E+02 -0.53808434563E+03  0.56247994097E+03  0.00000000000E+00 0.  1.
<mgrwt>
<rscale>  0 0.15045359E+04</rscale>
<asrwt>0</asrwt>
<pdfrwt beam="1">  1        2 0.54927368E+00 0.15045359E+04</pdfrwt>
<pdfrwt beam="2">  1       -2 0.24385384E-01 0.15045359E+04</pdfrwt>
<totfact> 0.10672309E+01</totfact>
</mgrwt>
</event>
<event>
12    1  0.2815670E-008  0.2252476E+04  0.7818608E-02  0.8496898E-01
         -2   -1    0    0    0  501 -0.00000000000E+00  0.00000000000E+00  0.92701165370E+03  0.92701165370E+03  0.00000000000E+00 0.  1.
          2   -1    0    0  501    0  0.00000000000E+00 -0.00000000000E+00 -0.13682805045E+04  0.13682805045E+04  0.00000000000E+00 0. -1.
         23    2    1    2    0    0  0.52644544598E+02 -0.28704059410E+03 -0.11103027051E+04  0.11518738866E+04  0.94221031954E+02 0.  0.
        254    2    1    2    0    0 -0.52644544598E+02  0.28704059410E+03  0.66903385433E+03  0.11434182716E+04  0.88013368011E+03 0.  0.
        -24    2    4    4    0    0  0.25396495667E+03 -0.14296325883E+03  0.49092047125E+03  0.58027660168E+03  0.10383319687E+03 0.  0.
         24    2    4    4    0    0 -0.30660950127E+03  0.43000385293E+03  0.17811338308E+03  0.56314166993E+03  0.80569618189E+02 0.  0.
         11    1    3    3    0    0  0.40369478254E+02 -0.29085917147E+03 -0.10557526792E+04  0.10958295816E+04  0.00000000000E+00 0. -1.
        -11    1    3    3    0    0  0.12275066344E+02  0.38185773634E+01 -0.54550025955E+02  0.56044304961E+02  0.00000000000E+00 0.  1.
          4    1    6    6  502    0 -0.55176109640E+02  0.73029781844E+02  0.64485405305E+02  0.11196481415E+03  0.00000000000E+00 0. -1.
          3    1    5    5  503    0  0.10443726485E+03 -0.85449163701E+01  0.12839687284E+03  0.16572843703E+03  0.00000000000E+00 0. -1.
         -4    1    5    5    0  503  0.14952769182E+03 -0.13441834246E+03  0.36252359840E+03  0.41454816464E+03  0.00000000000E+00 0.  1.
         -3    1    6    6    0  502 -0.25143339163E+03  0.35697407109E+03  0.11362797778E+03  0.45117685578E+03  0.00000000000E+00 0.  1.
<mgrwt>
<rscale>  0 0.22524759E+04</rscale>
<asrwt>0</asrwt>
<pdfrwt beam="1">  1        2 0.21050469E+00 0.22524759E+04</pdfrwt>
<pdfrwt beam="2">  1       -2 0.14261718E+00 0.22524759E+04</pdfrwt>
<totfact> 0.47010958E+00</totfact>
</mgrwt>
</event>
<event>
12    1  0.2502641E-008  0.2106030E+04  0.7818608E-02  0.8558592E-01
          2   -1    0    0  501    0  0.00000000000E+00  0.00000000000E+00  0.15150788456E+04  0.15150788456E+04  0.00000000000E+00 0. -1.
         -2   -1    0    0    0  501 -0.00000000000E+00 -0.00000000000E+00 -0.73186981979E+03  0.73186981979E+03  0.00000000000E+00 0.  1.
         23    2    1    2    0    0  0.32926175073E+02  0.76213963111E+03  0.72790777416E+03  0.10586932794E+04  0.95083026180E+02 0.  0.
        254    2    1    2    0    0 -0.32926175073E+02 -0.76213963111E+03  0.55301251697E+02  0.11882553860E+04  0.90936883807E+03 0.  0.
        -24    2    4    4    0    0 -0.67726941713E+02 -0.60906482226E+03  0.44339891638E+03  0.76203157119E+03  0.92426295503E+02 0.  0.
         24    2    4    4    0    0  0.34800766639E+02 -0.15307480885E+03 -0.38809766468E+03  0.42622381483E+03  0.80024699525E+02 0.  0.
         13    1    3    3    0    0  0.70982594481E+01  0.67575926445E+03  0.61097591204E+03  0.91103926034E+03  0.00000000000E+00 0. -1.
        -13    1    3    3    0    0  0.25827915625E+02  0.86380366662E+02  0.11693186212E+03  0.14765401908E+03  0.00000000000E+00 0.  1.
          4    1    6    6  502    0 -0.21566150035E+02 -0.35440966039E+02 -0.13872805129E+03  0.14479859500E+03  0.00000000000E+00 0. -1.
          1    1    5    5  503    0  0.19546343627E+02 -0.86120202364E+02  0.80995782681E+02  0.11982931868E+03  0.00000000000E+00 0. -1.
         -4    1    5    5    0  503 -0.87273285340E+02 -0.52294461990E+03  0.36240313369E+03  0.64220225251E+03  0.00000000000E+00 0.  1.
         -3    1    6    6    0  502  0.56366916674E+02 -0.11763384281E+03 -0.24936961339E+03  0.28142521982E+03  0.00000000000E+00 0.  1.
<mgrwt>
<rscale>  0 0.21060299E+04</rscale>
<asrwt>0</asrwt>
<pdfrwt beam="1">  1        2 0.23308905E+00 0.21060299E+04</pdfrwt>
<pdfrwt beam="2">  1       -2 0.11259536E+00 0.21060299E+04</pdfrwt>
<totfact> 0.71190436E+00</totfact>
</mgrwt>
</event>
<event>
12    1  0.2502641E-008  0.3125686E+04  0.7818608E-02  0.8208724E-01
         -2   -1    0    0    0  501 -0.00000000000E+00  0.00000000000E+00  0.18893252984E+04  0.18893252984E+04  0.00000000000E+00 0.  1.
          2   -1    0    0  501    0  0.00000000000E+00 -0.00000000000E+00 -0.12927781908E+04  0.12927781908E+04  0.00000000000E+00 0. -1.
         23    2    1    2    0    0 -0.62812711377E+03  0.11446604099E+04 -0.32227743627E+03  0.13485199093E+04  0.99257618822E+02 0.  0.
        254    2    1    2    0    0  0.62812711377E+03 -0.11446604099E+04  0.91882454383E+03  0.18335835799E+04  0.90166461447E+03 0.  0.
        -24    2    4    4    0    0  0.68779952046E+03 -0.12359006170E+04  0.70735946653E+03  0.15826549510E+04  0.62616001393E+02 0.  0.
         24    2    4    4    0    0 -0.59672406697E+02  0.91240207117E+02  0.21146507730E+03  0.25092862884E+03  0.79762938397E+02 0.  0.
         11    1    3    3    0    0 -0.53414204343E+03  0.99550121378E+03 -0.31142826319E+03  0.11718864929E+04  0.00000000000E+00 0. -1.
        -11    1    3    3    0    0 -0.93985070341E+02  0.14915919610E+03 -0.10849173081E+02  0.17663341639E+03  0.00000000000E+00 0.  1.
          2    1    6    6  502    0 -0.61670673374E+02  0.68709138584E+02  0.20861218251E+03  0.22812991994E+03  0.00000000000E+00 0. -1.
          3    1    5    5  503    0  0.66726612120E+03 -0.12167465908E+04  0.69344758323E+03  0.15513174703E+04  0.00000000000E+00 0. -1.
         -4    1    5    5    0  503  0.20533399262E+02 -0.19154026146E+02  0.13911883305E+02  0.31337480753E+02  0.00000000000E+00 0.  1.
         -1    1    6    6    0  502  0.19982666772E+01  0.22531068533E+02  0.28528947819E+01  0.22798708902E+02  0.00000000000E+00 0.  1.
<mgrwt>
<rscale>  0 0.31256862E+04</rscale>
<asrwt>0</asrwt>
<pdfrwt beam="1">  1        2 0.19888895E+00 0.31256862E+04</pdfrwt>
<pdfrwt beam="2">  1       -2 0.29066543E+00 0.31256862E+04</pdfrwt>
<totfact> 0.51261719E-01</totfact>
</mgrwt>
</event>
<event>
11    1  0.2502641E-008  0.2001682E+04  0.7818608E-02  0.8605835E-01
          1   -1    0    0  501    0  0.00000000000E+00  0.00000000000E+00  0.20571170433E+04  0.20571170433E+04  0.00000000000E+00 0. -1.
         -1   -1    0    0    0  501 -0.00000000000E+00 -0.00000000000E+00 -0.48693499210E+03  0.48693499210E+03  0.00000000000E+00 0.  1.
         23    2    1    2    0    0  0.20617087227E+03  0.39989736533E+03  0.14591871130E+04  0.15297222518E+04  0.91644996933E+02 0.  0.
        254    2    1    2    0    0 -0.20617087227E+03 -0.39989736533E+03  0.11099493817E+03  0.10143297836E+04  0.90228637485E+03 0.  0.
         24    2    4    4    0    0  0.45137248122E+02  0.13848177875E+03  0.22553068157E+03  0.28255890504E+03  0.88095813046E+02 0.  0.
         13    1    3    3    0    0  0.14105341652E+03  0.33314837134E+03  0.12354278057E+04  0.12873095070E+04  0.00000000000E+00 0. -1.
        -13    1    3    3    0    0  0.65117455745E+02  0.66748993984E+02  0.22375930734E+03  0.24241274484E+03  0.00000000000E+00 0.  1.
          4    1    5    5  502    0  0.38048953736E+02  0.66592885678E+02  0.18373814157E+03  0.19910308881E+03  0.00000000000E+00 0. -1.
          1    1    4    4  503    0 -0.10584472286E+03 -0.23563321636E+03 -0.25931280669E+03  0.36601810027E+03  0.00000000000E+00 0. -1.
         -2    1    4    4    0  503 -0.14546339753E+03 -0.30274592772E+03  0.14477706329E+03  0.36575277829E+03  0.00000000000E+00 0.  1.
         -3    1    5    5    0  502  0.70882943859E+01  0.71888893073E+02  0.41792539997E+02  0.83455816238E+02  0.00000000000E+00 0.  1.
<mgrwt>
<rscale>  0 0.20016816E+04</rscale>
<asrwt>0</asrwt>
<pdfrwt beam="1">  1        1 0.31647954E+00 0.20016816E+04</pdfrwt>
<pdfrwt beam="2">  1       -1 0.74913077E-01 0.20016816E+04</pdfrwt>
<totfact> 0.45303073E+00</totfact>
</mgrwt>
</event>
<event>
12    1  0.2502641E-008  0.2232542E+04  0.7818608E-02  0.8505004E-01
          2   -1    0    0  501    0  0.00000000000E+00  0.00000000000E+00  0.25012762552E+04  0.25012762552E+04  0.00000000000E+00 0. -1.
         -2   -1    0    0    0  501 -0.00000000000E+00 -0.00000000000E+00 -0.49816990739E+03  0.49816990739E+03  0.00000000000E+00 0.  1.
         23    2    1    2    0    0 -0.28794404794E+03  0.20231453846E+03  0.19864114349E+04  0.20193874793E+04  0.90843029083E+02 0.  0.
        254    2    1    2    0    0  0.28794404794E+03 -0.20231453846E+03  0.16694912961E+02  0.98005868327E+03  0.91454543644E+03 0.  0.
        -24    2    4    4    0    0 -0.23879119576E+03 -0.17430049043E+02  0.25896317577E+03  0.36592276166E+03  0.97532042502E+02 0.  0.
         24    2    4    4    0    0  0.52673524370E+03 -0.18488448942E+03 -0.24226826280E+03  0.61413592161E+03  0.82684506851E+02 0.  0.
         13    1    3    3    0    0 -0.15387457371E+03  0.14882097338E+03  0.13454500598E+04  0.13623732712E+04  0.00000000000E+00 0. -1.
        -13    1    3    3    0    0 -0.13406947423E+03  0.53493565077E+02  0.64096137506E+03  0.65701420817E+03  0.00000000000E+00 0.  1.
          4    1    6    6  502    0  0.22198974935E+03 -0.10688478851E+03 -0.73273639361E+02  0.25704636363E+03  0.00000000000E+00 0. -1.
          3    1    5    5  503    0 -0.13380522960E+02 -0.56333784418E+01 -0.77977232607E+01  0.16479618788E+02  0.00000000000E+00 0. -1.
         -4    1    5    5    0  503 -0.22541067280E+03 -0.11796670601E+02  0.26676089903E+03  0.34944314287E+03  0.00000000000E+00 0.  1.
         -3    1    6    6    0  502  0.30474549434E+03 -0.77999700910E+02 -0.16899462344E+03  0.35708955798E+03  0.00000000000E+00 0.  1.
<mgrwt>
<rscale>  0 0.22325417E+04</rscale>
<asrwt>0</asrwt>
<pdfrwt beam="1">  1        2 0.38481172E+00 0.22325417E+04</pdfrwt>
<pdfrwt beam="2">  1       -2 0.76641526E-01 0.22325417E+04</pdfrwt>
<totfact> 0.48210498E+00</totfact>
</mgrwt>
</event>
<event>
12    1  0.2502641E-008  0.1469963E+04  0.7818608E-02  0.8904676E-01
         -1   -1    0    0    0  501 -0.00000000000E+00  0.00000000000E+00  0.58569992698E+03  0.58569992698E+03  0.00000000000E+00 0.  1.
          1   -1    0    0  501    0  0.00000000000E+00 -0.00000000000E+00 -0.92231166840E+03  0.92231166840E+03  0.00000000000E+00 0. -1.
         23    2    1    2    0    0  0.24885593816E+03  0.26385634823E+03 -0.38076914318E+03  0.53369991535E+03  0.91109872051E+02 0.  0.
        254    2    1    2    0    0 -0.24885593816E+03 -0.26385634823E+03  0.44157401760E+02  0.97431168003E+03  0.90320757484E+03 0.  0.
        -24    2    4    4    0    0 -0.10384751888E+03  0.22139586731E+03 -0.26739332063E+03  0.37431317920E+03  0.93865494010E+02 0.  0.
         24    2    4    4    0    0 -0.14500841928E+03 -0.48525221554E+03  0.31155072239E+03  0.59999850083E+03  0.80232125935E+02 0.  0.
         11    1    3    3    0    0  0.23850819727E+03  0.27065210759E+03 -0.36084484156E+03  0.51024280807E+03  0.00000000000E+00 0. -1.
        -11    1    3    3    0    0  0.10347740883E+02 -0.67957593576E+01 -0.19924301621E+02  0.23457107275E+02  0.00000000000E+00 0.  1.
          4    1    6    6  502    0 -0.74801522362E+02 -0.20552777748E+03  0.90823012262E+02  0.23682431172E+03  0.00000000000E+00 0. -1.
          1    1    5    5  503    0 -0.51686446832E+01  0.85631263119E+02 -0.48725190488E+02  0.98658868326E+02  0.00000000000E+00 0. -1.
         -2    1    5    5    0  503 -0.98678874197E+02  0.13576460419E+03 -0.21866813014E+03  0.27565431087E+03  0.00000000000E+00 0.  1.
         -3    1    6    6    0  502 -0.70206896915E+02 -0.27972443806E+03  0.22072771012E+03  0.36317418911E+03  0.00000000000E+00 0.  1.
<mgrwt>
<rscale>  0 0.14699631E+04</rscale>
<asrwt>0</asrwt>
<pdfrwt beam="1">  1        1 0.14189410E+00 0.14699631E+04</pdfrwt>
<pdfrwt beam="2">  1       -1 0.90107681E-01 0.14699631E+04</pdfrwt>
<totfact> 0.20390894E+01</totfact>
</mgrwt>
</event>
<event>
12    1  0.2502641E-008  0.2024602E+04  0.7818608E-02  0.8595204E-01
          1   -1    0    0  501    0  0.00000000000E+00  0.00000000000E+00  0.13365440578E+04  0.13365440578E+04  0.00000000000E+00 0. -1.
         -1   -1    0    0    0  501 -0.00000000000E+00 -0.00000000000E+00 -0.76671907103E+03  0.76671907103E+03  0.00000000000E+00 0.  1.
         23    2    1    2    0    0  0.44576734349E+03  0.57396104062E+03  0.59628085688E+03  0.94436111925E+03  0.90151331718E+02 0.  0.
        254    2    1    2    0    0 -0.44576734349E+03 -0.57396104062E+03 -0.26455870134E+02  0.11589020096E+04  0.90233815946E+03 0.  0.
        -24    2    4    4    0    0 -0.52062662185E+03 -0.21748849266E+03  0.31342131217E+03  0.65424605846E+03  0.10701243981E+03 0.  0.
         24    2    4    4    0    0  0.74859278364E+02 -0.35647254795E+03 -0.33987718230E+03  0.50465595109E+03  0.80526647265E+02 0.  0.
         13    1    3    3    0    0  0.42572773914E+03  0.50606645974E+03  0.53214149713E+03  0.84883563928E+03  0.00000000000E+00 0. -1.
        -13    1    3    3    0    0  0.20039604351E+02  0.67894580879E+02  0.64139359755E+02  0.95525479978E+02  0.00000000000E+00 0.  1.
          4    1    6    6  502    0  0.35205080853E+02 -0.39073125731E+02 -0.58205273706E+02  0.78447184522E+02  0.00000000000E+00 0. -1.
          1    1    5    5  503    0 -0.13275719583E+02  0.11564427443E+02  0.86688382443E+01  0.19624715770E+02  0.00000000000E+00 0. -1.
         -2    1    5    5    0  503 -0.50735090227E+03 -0.22905292011E+03  0.30475247393E+03  0.63462134269E+03  0.00000000000E+00 0.  1.
         -3    1    6    6    0  502  0.39654197511E+02 -0.31739942222E+03 -0.28167190860E+03  0.42620876657E+03  0.00000000000E+00 0.  1.
<mgrwt>
<rscale>  0 0.20246025E+04</rscale>
<asrwt>0</asrwt>
<pdfrwt beam="1">  1        1 0.20562216E+00 0.20246025E+04</pdfrwt>
<pdfrwt beam="2">  1       -1 0.11795678E+00 0.20246025E+04</pdfrwt>
<totfact> 0.50913605E+00</totfact>
</mgrwt>
</event>
<event>
12    1  0.2502641E-008  0.2316054E+04  0.7818608E-02  0.8471618E-01
          2   -1    0    0  501    0  0.00000000000E+00  0.00000000000E+00  0.17492583965E+04  0.17492583965E+04  0.00000000000E+00 0. -1.
         -2   -1    0    0    0  501 -0.00000000000E+00 -0.00000000000E+00 -0.76662594964E+03  0.76662594964E+03  0.00000000000E+00 0.  1.
         23    2    1    2    0    0  0.24977454021E+03 -0.28853862065E+03 -0.55613490306E+03  0.68127137672E+03  0.95931234698E+02 0.  0.
        254    2    1    2    0    0 -0.24977454021E+03  0.28853862065E+03  0.15387673499E+04  0.18346129694E+04  0.92323232929E+03 0.  0.
        -24    2    4    4    0    0 -0.97680142596E+02  0.58245767383E+03  0.12653677230E+04  0.13979129524E+04  0.64859818813E+02 0.  0.
         24    2    4    4    0    0 -0.15209439761E+03 -0.29391905318E+03  0.27339962696E+03  0.43670001703E+03  0.80239848251E+02 0.  0.
         11    1    3    3    0    0  0.97489718129E+00 -0.20012340244E+02 -0.68408735475E+01  0.21171720229E+02  0.00000000000E+00 0. -1.
        -11    1    3    3    0    0  0.24879964303E+03 -0.26852628041E+03 -0.54929402952E+03  0.66009965649E+03  0.00000000000E+00 0.  1.
          4    1    6    6  502    0 -0.12419099729E+03 -0.16467093793E+03  0.18959067542E+03  0.28015093398E+03  0.00000000000E+00 0. -1.
          1    1    5    5  503    0 -0.59690813471E+02  0.43662829483E+03  0.88136059551E+03  0.98539523054E+03  0.00000000000E+00 0. -1.
         -2    1    5    5    0  503 -0.37989329125E+02  0.14582937900E+03  0.38400712748E+03  0.41251772187E+03  0.00000000000E+00 0.  1.
         -3    1    6    6    0  502 -0.27903400327E+02 -0.12924811525E+03  0.83808951538E+02  0.15654908305E+03  0.00000000000E+00 0.  1.
<mgrwt>
<rscale>  0 0.23160543E+04</rscale>
<asrwt>0</asrwt>
<pdfrwt beam="1">  1        2 0.26911668E+00 0.23160543E+04</pdfrwt>
<pdfrwt beam="2">  1       -2 0.11794245E+00 0.23160543E+04</pdfrwt>
<totfact> 0.46210289E+00</totfact>
</mgrwt>
</event>
<event>
11    1  0.4427304E-008  0.2912433E+04  0.7818608E-02  0.8269188E-01
         -1   -1    0    0    0  501 -0.00000000000E+00  0.00000000000E+00  0.13284237789E+04  0.13284237789E+04  0.00000000000E+00 0.  1.
          1   -1    0    0  501    0  0.00000000000E+00 -0.00000000000E+00 -0.15963025666E+04  0.15963025666E+04  0.00000000000E+00 0. -1.
         23    2    1    2    0    0  0.85345063712E+03 -0.94440642495E+03 -0.45211398702E+03  0.13538523863E+04  0.90706897608E+02 0.  0.
        254    2    1    2    0    0 -0.85345063712E+03  0.94440642495E+03  0.18423519930E+03  0.15708739591E+04  0.90189849832E+03 0.  0.
         24    2    4    4    0    0 -0.80195773558E+03  0.55076879634E+03 -0.20897044207E+03  0.99814870770E+03  0.78420152650E+02 0.  0.
         13    1    3    3    0    0  0.41644259651E+03 -0.45996526246E+03 -0.17231524285E+03  0.64396041942E+03  0.00000000000E+00 0.  1.
        -13    1    3    3    0    0  0.43700804061E+03 -0.48444116248E+03 -0.27979874417E+03  0.70989196692E+03  0.00000000000E+00 0. -1.
          4    1    5    5  502    0 -0.65322108263E+03  0.47929200088E+03 -0.18877081054E+03  0.83189724354E+03  0.00000000000E+00 0. -1.
          3    1    4    4  503    0 -0.47625417727E+02  0.40194413505E+03  0.39203511488E+03  0.56348806502E+03  0.00000000000E+00 0. -1.
         -4    1    4    4    0  503 -0.38674838135E+01 -0.83065064437E+01  0.11705264851E+01  0.92371864006E+01  0.00000000000E+00 0.  1.
         -3    1    5    5    0  502 -0.14873665295E+03  0.71476795456E+02 -0.20199631526E+02  0.16625146415E+03  0.00000000000E+00 0.  1.
<mgrwt>
<rscale>  0 0.29124329E+04</rscale>
<asrwt>0</asrwt>
<pdfrwt beam="1">  1        1 0.24558501E+00 0.29124329E+04</pdfrwt>
<pdfrwt beam="2">  1       -1 0.20437289E+00 0.29124329E+04</pdfrwt>
<totfact> 0.67591255E-01</totfact>
</mgrwt>
</event>
<event>
11    1  0.2502641E-008  0.1730849E+04  0.7818608E-02  0.8743963E-01
          2   -1    0    0  501    0  0.00000000000E+00  0.00000000000E+00  0.97285293391E+03  0.97285293391E+03  0.00000000000E+00 0. -1.
         -2   -1    0    0    0  501 -0.00000000000E+00 -0.00000000000E+00 -0.76985858792E+03  0.76985858792E+03  0.00000000000E+00 0.  1.
         23    2    1    2    0    0  0.16241395474E+03 -0.57067952713E+03  0.12011085948E+03  0.61213253652E+03  0.90698447136E+02 0.  0.
        254    2    1    2    0    0 -0.16241395474E+03  0.57067952713E+03  0.82883486516E+02  0.11305789853E+04  0.95879390606E+03 0.  0.
         24    2    4    4    0    0  0.22907397363E+03  0.63511260292E+03 -0.70962166296E+02  0.68382698392E+03  0.82102442785E+02 0.  0.
         11    1    3    3    0    0  0.38047827488E+02 -0.11702906945E+03 -0.11730722944E+02  0.12361654475E+03  0.00000000000E+00 0.  1.
        -11    1    3    3    0    0  0.12436612726E+03 -0.45365045768E+03  0.13184158242E+03  0.48851599177E+03  0.00000000000E+00 0. -1.
          4    1    5    5  502    0  0.16505304943E+03  0.54096372068E+03 -0.47444108584E+02  0.56756955491E+03  0.00000000000E+00 0. -1.
          3    1    4    4  503    0 -0.35330420317E+03 -0.17193580018E+02  0.15453596543E+03  0.38600627429E+03  0.00000000000E+00 0. -1.
         -4    1    4    4    0  503 -0.38183725197E+02 -0.47239495764E+02 -0.69031262173E+00  0.60745727105E+02  0.00000000000E+00 0.  1.
         -3    1    5    5    0  502  0.64020924199E+02  0.94148882238E+02 -0.23518057712E+02  0.11625742901E+03  0.00000000000E+00 0.  1.
<mgrwt>
<rscale>  0 0.17308486E+04</rscale>
<asrwt>0</asrwt>
<pdfrwt beam="1">  1        2 0.14966968E+00 0.17308486E+04</pdfrwt>
<pdfrwt beam="2">  1       -2 0.11843978E+00 0.17308486E+04</pdfrwt>
<totfact> 0.13658575E+01</totfact>
</mgrwt>
</event>
<event>
12    1  0.2502641E-008  0.1792787E+04  0.7818608E-02  0.8710145E-01
         -2   -1    0    0    0  501 -0.00000000000E+00  0.00000000000E+00  0.42096310168E+03  0.42096310168E+03  0.00000000000E+00 0.  1.
          2   -1    0    0  501    0  0.00000000000E+00 -0.00000000000E+00 -0.19087680777E+04  0.19087680777E+04  0.00000000000E+00 0. -1.
         23    2    1    2    0    0 -0.11729013062E+02  0.40766332231E+03 -0.12593698028E+04  0.13269985857E+04  0.92660628208E+02 0.  0.
        254    2    1    2    0    0  0.11729013062E+02 -0.40766332231E+03 -0.22843517317E+03  0.10027325937E+04  0.88710939122E+03 0.  0.
        -24    2    4    4    0    0 -0.17917029304E+03 -0.61370075339E+03 -0.25206188494E+02  0.64689692351E+03  0.95444586539E+02 0.  0.
         24    2    4    4    0    0  0.19089930610E+03  0.20603743108E+03 -0.20322898468E+03  0.35583567017E+03  0.80143844927E+02 0.  0.
         11    1    3    3    0    0 -0.44482016435E+02  0.12137819552E+03 -0.35296184969E+03  0.37589012154E+03  0.00000000000E+00 0.  1.
        -11    1    3    3    0    0  0.32753003373E+02  0.28628512679E+03 -0.90640795315E+03  0.95110846415E+03  0.00000000000E+00 0. -1.
          2    1    6    6  502    0  0.69055798797E+02  0.51766887926E+02 -0.10548604504E+03  0.13629313897E+03  0.00000000000E+00 0. -1.
          1    1    5    5  503    0 -0.50077232105E+02 -0.82575938243E+02  0.19358708914E+02  0.98495047403E+02  0.00000000000E+00 0. -1.
         -4    1    5    5    0  503 -0.12909306093E+03 -0.53112481514E+03 -0.44564897408E+02  0.54840187611E+03  0.00000000000E+00 0.  1.
         -1    1    6    6    0  502  0.12184350730E+03  0.15427054315E+03 -0.97742939635E+02  0.21954253120E+03  0.00000000000E+00 0.  1.
<mgrwt>
<rscale>  0 0.17927866E+04</rscale>
<asrwt>0</asrwt>
<pdfrwt beam="1">  1        2 0.29365663E+00 0.17927866E+04</pdfrwt>
<pdfrwt beam="2">  1       -2 0.64763553E-01 0.17927866E+04</pdfrwt>
<totfact> 0.15605686E+01</totfact>
</mgrwt>
</event>
<event>
12    1  0.2502641E-008  0.1358246E+04  0.7818608E-02  0.8984609E-01
          1   -1    0    0  501    0  0.00000000000E+00  0.00000000000E+00  0.28162218289E+04  0.28162218289E+04  0.00000000000E+00 0. -1.
         -1   -1    0    0    0  501 -0.00000000000E+00 -0.00000000000E+00 -0.16376839650E+03  0.16376839650E+03  0.00000000000E+00 0.  1.
         23    2    1    2    0    0 -0.14355234426E+03 -0.23566658978E+03  0.13053275882E+04  0.13371788512E+04  0.89560876195E+02 0.  0.
        254    2    1    2    0    0  0.14355234426E+03  0.23566658978E+03  0.13471258443E+04  0.16428113743E+04  0.89885213132E+03 0.  0.
        -24    2    4    4    0    0  0.22448182516E+03 -0.29233889635E+03  0.39613849161E+03  0.54857333805E+03  0.90293313940E+02 0.  0.
         24    2    4    4    0    0 -0.80929480899E+02  0.52800548613E+03  0.95098735267E+03  0.10942380362E+04  0.87410300720E+02 0.  0.
         11    1    3    3    0    0 -0.14605975951E+02 -0.72384162664E+02  0.49932247342E+03  0.50475314164E+03  0.00000000000E+00 0.  1.
        -11    1    3    3    0    0 -0.12894636831E+03 -0.16328242712E+03  0.80600511474E+03  0.83242570954E+03  0.00000000000E+00 0. -1.
          2    1    6    6  502    0 -0.75923938305E+02  0.22377237127E+03  0.44345838822E+03  0.50248767212E+03  0.00000000000E+00 0. -1.
          1    1    5    5  503    0  0.96246556137E+02 -0.73401649187E+02  0.17004704763E+03  0.20872757383E+03  0.00000000000E+00 0. -1.
         -2    1    5    5    0  503  0.12823526902E+03 -0.21893724716E+03  0.22609144399E+03  0.33984576422E+03  0.00000000000E+00 0.  1.
         -1    1    6    6    0  502 -0.50055425937E+01  0.30423311486E+03  0.50752896445E+03  0.59175036408E+03  0.00000000000E+00 0.  1.
<mgrwt>
<rscale>  0 0.13582461E+04</rscale>
<asrwt>0</asrwt>
<pdfrwt beam="1">  1        1 0.43326486E+00 0.13582461E+04</pdfrwt>
<pdfrwt beam="2">  1       -1 0.25195140E-01 0.13582461E+04</pdfrwt>
<totfact> 0.11045357E+01</totfact>
</mgrwt>
</event>
<event>
11    1  0.2502641E-008  0.2126661E+04  0.7818608E-02  0.8549589E-01
         -1   -1    0    0    0  501 -0.00000000000E+00  0.00000000000E+00  0.40740846378E+03  0.40740846378E+03  0.00000000000E+00 0.  1.
          1   -1    0    0  501    0  0.00000000000E+00 -0.00000000000E+00 -0.27752785175E+04  0.27752785175E+04  0.00000000000E+00 0. -1.
         23    2    1    2    0    0  0.73617954895E+03 -0.43614584997E+03 -0.12054093919E+04  0.14823367548E+04  0.11012230305E+03 0.  0.
        254    2    1    2    0    0 -0.73617954895E+03  0.43614584997E+03 -0.11624606618E+04  0.17003502265E+04  0.89871718123E+03 0.  0.
         24    2    4    4    0    0 -0.37928490215E+03 -0.19186322754E+03 -0.29889808127E+03  0.52563244438E+03  0.79251930629E+02 0.  0.
         11    1    3    3    0    0  0.27413446862E+02 -0.25546762444E+02 -0.23147872309E+02  0.44044955814E+02  0.00000000000E+00 0.  1.
        -11    1    3    3    0    0  0.70876610209E+03 -0.41059908752E+03 -0.11822615196E+04  0.14382917990E+04  0.00000000000E+00 0. -1.
          2    1    5    5  502    0 -0.26679139026E+03 -0.98284379861E+02 -0.21920968206E+03  0.35901302198E+03  0.00000000000E+00 0. -1.
          1    1    4    4  503    0 -0.17187792572E+03  0.73173597506E+02 -0.96928070251E+02  0.21045533379E+03  0.00000000000E+00 0. -1.
         -2    1    4    4    0  503 -0.18501672108E+03  0.55483548000E+03 -0.76663451025E+03  0.96426244833E+03  0.00000000000E+00 0.  1.
         -1    1    5    5    0  502 -0.11249351190E+03 -0.93578847675E+02 -0.79688399209E+02  0.16661942240E+03  0.00000000000E+00 0.  1.
<mgrwt>
<rscale>  0 0.21266612E+04</rscale>
<asrwt>0</asrwt>
<pdfrwt beam="1">  1        1 0.42696594E+00 0.21266612E+04</pdfrwt>
<pdfrwt beam="2">  1       -1 0.62678223E-01 0.21266612E+04</pdfrwt>
<totfact> 0.20573748E+00</totfact>
</mgrwt>
</event>
<event>
12    1  0.2502641E-008  0.1084334E+04  0.7818608E-02  0.9220597E-01
          1   -1    0    0  501    0  0.00000000000E+00  0.00000000000E+00  0.70349084351E+03  0.70349084351E+03  0.00000000000E+00 0. -1.
         -1   -1    0    0    0  501 -0.00000000000E+00 -0.00000000000E+00 -0.41783808641E+03  0.41783808641E+03  0.00000000000E+00 0.  1.
         23    2    1    2    0    0 -0.47491979727E+02  0.87087148392E+02 -0.62713403220E+02  0.14747104567E+03  0.89303296775E+02 0.  0.
        254    2    1    2    0    0  0.47491979727E+02 -0.87087148392E+02  0.34836616032E+03  0.97385788424E+03  0.90399144769E+03 0.  0.
        -24    2    4    4    0    0 -0.34410968080E+03 -0.28960629489E+03  0.20875702122E+03  0.50411601392E+03  0.90940547187E+02 0.  0.
         24    2    4    4    0    0  0.39160166053E+03  0.20251914650E+03  0.13960913910E+03  0.46974187032E+03  0.82467252809E+02 0.  0.
         11    1    3    3    0    0  0.26108646003E+02  0.24068289077E+02 -0.25318062719E+02  0.43611331498E+02  0.00000000000E+00 0.  1.
        -11    1    3    3    0    0 -0.73600625730E+02  0.63018859315E+02 -0.37395340502E+02  0.10385971417E+03  0.00000000000E+00 0. -1.
          4    1    6    6  502    0  0.33005515073E+03  0.13977968047E+03  0.93194908141E+02  0.37035125557E+03  0.00000000000E+00 0. -1.
          3    1    5    5  503    0 -0.31401499025E+03 -0.27630461829E+03  0.21551219149E+03  0.47052647202E+03  0.00000000000E+00 0. -1.
         -4    1    5    5    0  503 -0.30094690554E+02 -0.13301676602E+02 -0.67551702718E+01  0.33589541905E+02  0.00000000000E+00 0.  1.
         -3    1    6    6    0  502  0.61546509795E+02  0.62739466026E+02  0.46414230961E+02  0.99390614753E+02  0.00000000000E+00 0.  1.
<mgrwt>
<rscale>  0 0.10843344E+04</rscale>
<asrwt>0</asrwt>
<pdfrwt beam="1">  1        1 0.10822936E+00 0.10843344E+04</pdfrwt>
<pdfrwt beam="2">  1       -1 0.64282783E-01 0.10843344E+04</pdfrwt>
<totfact> 0.66201708E+01</totfact>
</mgrwt>
</event>
<event>
11    1  0.2502641E-008  0.2738680E+04  0.7818608E-02  0.8322563E-01
          1   -1    0    0  501    0  0.00000000000E+00  0.00000000000E+00  0.24890644846E+04  0.24890644846E+04  0.00000000000E+00 0. -1.
         -1   -1    0    0    0  501 -0.00000000000E+00 -0.00000000000E+00 -0.75333228280E+03  0.75333228280E+03  0.00000000000E+00 0.  1.
         23    2    1    2    0    0  0.47776383481E+03  0.21875431011E+03  0.20666753818E+04  0.21346879956E+04  0.98152812795E+02 0.  0.
        254    2    1    2    0    0 -0.47776383481E+03 -0.21875431011E+03 -0.33094318003E+03  0.11077087718E+04  0.91726964665E+03 0.  0.
         24    2    4    4    0    0 -0.37919280567E+03  0.30448779425E+03 -0.79235551032E+02  0.49843696618E+03  0.75240520890E+02 0.  0.
         11    1    3    3    0    0  0.46481356838E+03  0.22419565855E+03  0.20429021571E+04  0.21070748848E+04  0.00000000000E+00 0. -1.
        -11    1    3    3    0    0  0.12950266437E+02 -0.54413484478E+01  0.23773224643E+02  0.27613110720E+02  0.00000000000E+00 0.  1.
          4    1    5    5  502    0 -0.30605442567E+02  0.33173026079E+02  0.13434397016E+02  0.47091674393E+02  0.00000000000E+00 0. -1.
          3    1    4    4  503    0 -0.12476305680E+03 -0.25843220269E+03 -0.10625587508E+03  0.30601198460E+03  0.00000000000E+00 0. -1.
         -4    1    4    4    0  503  0.26192027661E+02 -0.26480990166E+03 -0.14545175391E+03  0.30325982102E+03  0.00000000000E+00 0.  1.
         -1    1    5    5    0  502 -0.34858736311E+03  0.27131476817E+03 -0.92669948048E+02  0.45134529178E+03  0.00000000000E+00 0.  1.
<mgrwt>
<rscale>  0 0.27386804E+04</rscale>
<asrwt>0</asrwt>
<pdfrwt beam="1">  1        1 0.38293299E+00 0.27386804E+04</pdfrwt>
<pdfrwt beam="2">  1       -1 0.11589728E+00 0.27386804E+04</pdfrwt>
<totfact> 0.80792883E-01</totfact>
</mgrwt>
</event>
<event>
12    1  0.2502641E-008  0.2184719E+04  0.7818608E-02  0.8524816E-01
         -2   -1    0    0    0  501 -0.00000000000E+00  0.00000000000E+00  0.82409094192E+03  0.82409094192E+03  0.00000000000E+00 0. -1.
          2   -1    0    0  501    0  0.00000000000E+00 -0.00000000000E+00 -0.14479578568E+04  0.14479578568E+04  0.00000000000E+00 0.  1.
         23    2    1    2    0    0  0.42381938662E+03  0.71292821540E+03  0.94228858488E+02  0.83954872815E+03  0.89852525728E+02 0.  0.
        254    2    1    2    0    0 -0.42381938662E+03 -0.71292821540E+03 -0.71809577334E+03  0.14325000705E+04  0.92114352824E+03 0.  0.
        -24    2    4    4    0    0 -0.20809779257E+03 -0.46306032045E+03 -0.90528608246E+03  0.10424705280E+04  0.97326045198E+02 0.  0.
         24    2    4    4    0    0 -0.21572159405E+03 -0.24986789495E+03  0.18719030912E+03  0.39002954251E+03  0.90072532639E+02 0.  0.
         11    1    3    3    0    0  0.10303055692E+03  0.21703601428E+03  0.61712234312E+02  0.24804904155E+03  0.00000000000E+00 0. -1.
        -11    1    3    3    0    0  0.32078882970E+03  0.49589220113E+03  0.32516624176E+02  0.59149968660E+03  0.00000000000E+00 0.  1.
          4    1    6    6  502    0 -0.20393344244E+03 -0.22098964671E+03  0.19432448236E+03  0.35803250878E+03  0.00000000000E+00 0. -1.
          1    1    5    5  503    0 -0.17629168005E+03 -0.30303291090E+03 -0.56198730113E+03  0.66237257505E+03  0.00000000000E+00 0. -1.
         -2    1    5    5    0  503 -0.31806112518E+02 -0.16002740955E+03 -0.34329878133E+03  0.38009795298E+03  0.00000000000E+00 0.  1.
         -3    1    6    6    0  502 -0.11788151607E+02 -0.28878248238E+02 -0.71341732391E+01  0.31997033729E+02  0.00000000000E+00 0.  1.
<mgrwt>
<rscale>  0 0.21847187E+04</rscale>
<asrwt>0</asrwt>
<pdfrwt beam="1">  1        2 0.22276274E+00 0.21847187E+04</pdfrwt>
<pdfrwt beam="2">  1       -2 0.12678322E+00 0.21847187E+04</pdfrwt>
<totfact> 0.57542131E+00</totfact>
</mgrwt>
</event>
<event>
12    1  0.2502641E-008  0.2148487E+04  0.7818608E-02  0.8540180E-01
          1   -1    0    0  501    0  0.00000000000E+00  0.00000000000E+00  0.35511836894E+04  0.35511836894E+04  0.00000000000E+00 0. -1.
         -1   -1    0    0    0  501 -0.00000000000E+00 -0.00000000000E+00 -0.32496187521E+03  0.32496187521E+03  0.00000000000E+00 0.  1.
         23    2    1    2    0    0  0.66943843233E+02 -0.67068421637E+03  0.23802504597E+04  0.24755733401E+04  0.92586798373E+02 0.  0.
        254    2    1    2    0    0 -0.66943843233E+02  0.67068421637E+03  0.84597135446E+03  0.14005722244E+04  0.88973941528E+03 0.  0.
        -24    2    4    4    0    0  0.40100472771E+03  0.33915556255E+03  0.46124905389E+03  0.70557674798E+03  0.96211071693E+02 0.  0.
         24    2    4    4    0    0 -0.46794857094E+03  0.33152865382E+03  0.38472230056E+03  0.69499547647E+03  0.78232668432E+02 0.  0.
         13    1    3    3    0    0 -0.10074009063E+02 -0.31262596764E+03  0.10202429584E+04  0.10671139468E+04  0.00000000000E+00 0.  1.
        -13    1    3    3    0    0  0.77017852296E+02 -0.35805824873E+03  0.13600075014E+04  0.14084593934E+04  0.00000000000E+00 0. -1.
          2    1    6    6  502    0 -0.86261283683E+02  0.52246098340E+02  0.10465917480E+03  0.14534168956E+03  0.00000000000E+00 0. -1.
          1    1    5    5  503    0  0.12713693311E+03  0.15362000777E+03  0.13390953467E+03  0.24019714824E+03  0.00000000000E+00 0. -1.
         -2    1    5    5    0  503  0.27386779460E+03  0.18553555478E+03  0.32733951922E+03  0.46537959974E+03  0.00000000000E+00 0.  1.
         -1    1    6    6    0  502 -0.38168728726E+03  0.27928255548E+03  0.28006312577E+03  0.54965378691E+03  0.00000000000E+00 0.  1.
<mgrwt>
<rscale>  0 0.21484872E+04</rscale>
<asrwt>0</asrwt>
<pdfrwt beam="1">  1        1 0.54633592E+00 0.21484872E+04</pdfrwt>
<pdfrwt beam="2">  1       -1 0.49994137E-01 0.21484872E+04</pdfrwt>
<totfact> 0.83969515E-01</totfact>
</mgrwt>
</event>
<event>
12    1  0.2502641E-008  0.1627422E+04  0.7818608E-02  0.8803877E-01
          1   -1    0    0  501    0  0.00000000000E+00  0.00000000000E+00  0.26881426432E+04  0.26881426432E+04  0.00000000000E+00 0.  1.
         -1   -1    0    0    0  501 -0.00000000000E+00 -0.00000000000E+00 -0.24631329700E+03  0.24631329700E+03  0.00000000000E+00 0. -1.
         23    2    1    2    0    0  0.32521522892E+03  0.36517995641E+03  0.35581958915E+03  0.61155864541E+03  0.90967307695E+02 0.  0.
        254    2    1    2    0    0 -0.32521522892E+03 -0.36517995641E+03  0.20860097570E+04  0.23228972947E+04  0.89738163003E+03 0.  0.
        -24    2    4    4    0    0  0.16853399251E+03  0.17872489250E+03  0.38105792002E+03  0.46454510192E+03  0.10124583681E+03 0.  0.
         24    2    4    4    0    0 -0.49374922142E+03 -0.54390484891E+03  0.17049518370E+04  0.18583521928E+04  0.83614160455E+02 0.  0.
         11    1    3    3    0    0  0.46762190105E+02  0.56452800009E+02  0.17047637351E+02  0.75261165228E+02  0.00000000000E+00 0.  1.
        -11    1    3    3    0    0  0.27845303881E+03  0.30872715640E+03  0.33877195180E+03  0.53629748018E+03  0.00000000000E+00 0. -1.
          2    1    6    6  502    0 -0.29760186748E+03 -0.34252232595E+03  0.95120396072E+03  0.10538868014E+04  0.00000000000E+00 0. -1.
          3    1    5    5  503    0  0.11875751158E+03  0.15776347682E+03  0.22477684531E+03  0.29919440396E+03  0.00000000000E+00 0. -1.
         -2    1    5    5    0  503  0.49776480921E+02  0.20961415689E+02  0.15628107471E+03  0.16535069796E+03  0.00000000000E+00 0.  1.
         -1    1    6    6    0  502 -0.19614735394E+03 -0.20138252297E+03  0.75374787627E+03  0.80446539142E+03  0.00000000000E+00 0.  1.
<mgrwt>
<rscale>  0 0.16274216E+04</rscale>
<asrwt>0</asrwt>
<pdfrwt beam="1">  1        1 0.41356039E+00 0.16274216E+04</pdfrwt>
<pdfrwt beam="2">  1       -1 0.37894355E-01 0.16274216E+04</pdfrwt>
<totfact> 0.64570247E+00</totfact>
</mgrwt>
</event>
<event>
12    1  0.2502641E-008  0.1464921E+04  0.7818608E-02  0.8908121E-01
         -2   -1    0    0    0  501 -0.00000000000E+00  0.00000000000E+00  0.36881106059E+03  0.36881106059E+03  0.00000000000E+00 0.  1.
          2   -1    0    0  501    0  0.00000000000E+00 -0.00000000000E+00 -0.14546701744E+04  0.14546701744E+04  0.00000000000E+00 0. -1.
         23    2    1    2    0    0  0.17614838817E+03 -0.19506380884E+03 -0.79363459445E+03  0.84063288480E+03  0.87918333243E+02 0.  0.
        254    2    1    2    0    0 -0.17614838817E+03  0.19506380884E+03 -0.29222451938E+03  0.98284835020E+03  0.90084269748E+03 0.  0.
        -24    2    4    4    0    0  0.32276663117E+03 -0.78033051288E+02  0.17762920280E+01  0.33761770462E+03  0.60951652742E+02 0.  0.
         24    2    4    4    0    0 -0.49891501934E+03  0.27309686013E+03 -0.29400081141E+03  0.64523064558E+03  0.79925073417E+02 0.  0.
         11    1    3    3    0    0  0.84541109993E+02 -0.10282175433E+03 -0.53305910512E+03  0.54942835929E+03  0.00000000000E+00 0.  1.
        -11    1    3    3    0    0  0.91607278181E+02 -0.92242054508E+02 -0.26057548933E+03  0.29120452551E+03  0.00000000000E+00 0. -1.
          4    1    6    6  502    0 -0.11291175732E+03  0.78875001697E+02 -0.10690576006E+03  0.17435358433E+03  0.00000000000E+00 0. -1.
          1    1    5    5  503    0  0.17003074871E+03 -0.60037981071E+02  0.25131602017E+02  0.18206211055E+03  0.00000000000E+00 0. -1.
         -2    1    5    5    0  503  0.15273588246E+03 -0.17995070217E+02 -0.23355309989E+02  0.15555559407E+03  0.00000000000E+00 0.  1.
         -3    1    6    6    0  502 -0.38600326202E+03  0.19422185843E+03 -0.18709505135E+03  0.47087706126E+03  0.00000000000E+00 0.  1.
<mgrwt>
<rscale>  0 0.14649211E+04</rscale>
<asrwt>0</asrwt>
<pdfrwt beam="1">  1        2 0.22379541E+00 0.14649211E+04</pdfrwt>
<pdfrwt beam="2">  1       -2 0.56740163E-01 0.14649211E+04</pdfrwt>
<totfact> 0.38000216E+01</totfact>
</mgrwt>
</event>
<event>
11    1  0.2502641E-008  0.3768410E+04  0.7818608E-02  0.8052968E-01
          1   -1    0    0  501    0  0.00000000000E+00  0.00000000000E+00  0.26849461018E+04  0.26849461018E+04  0.00000000000E+00 0. -1.
         -1   -1    0    0    0  501 -0.00000000000E+00 -0.00000000000E+00 -0.13222719375E+04  0.13222719375E+04  0.00000000000E+00 0.  1.
         23    2    1    2    0    0 -0.12157610525E+04 -0.12922893128E+04  0.74889011671E+03  0.19280434558E+04  0.91807167041E+02 0.  0.
        254    2    1    2    0    0  0.12157610525E+04  0.12922893128E+04  0.61378404760E+03  0.20791745834E+04  0.89339212367E+03 0.  0.
         24    2    4    4    0    0  0.20693490215E+03 -0.61115474098E+02  0.26621994395E+03  0.35189283929E+03  0.79989729868E+02 0.  0.
         13    1    3    3    0    0 -0.25815378623E+03 -0.22633784931E+03  0.16124760147E+03  0.37930592976E+03  0.00000000000E+00 0. -1.
        -13    1    3    3    0    0 -0.95760726623E+03 -0.10659514635E+04  0.58764251524E+03  0.15487375260E+04  0.00000000000E+00 0.  1.
          2    1    5    5  502    0  0.11440110342E+03 -0.24850068220E+02  0.83179043564E+02  0.14361020731E+03  0.00000000000E+00 0. -1.
          3    1    4    4  503    0  0.76382674888E+03  0.10935106368E+04  0.29726784864E+03  0.13665888149E+04  0.00000000000E+00 0. -1.
         -4    1    4    4    0  503  0.24499940144E+03  0.25989415012E+03  0.50296255011E+02  0.36069292929E+03  0.00000000000E+00 0.  1.
         -3    1    5    5    0  502  0.92533798721E+02 -0.36265405878E+02  0.18304090039E+03  0.20828263198E+03  0.00000000000E+00 0.  1.
<mgrwt>
<rscale>  0 0.37684102E+04</rscale>
<asrwt>0</asrwt>
<pdfrwt beam="1">  1        1 0.41306863E+00 0.37684102E+04</pdfrwt>
<pdfrwt beam="2">  1       -1 0.20342645E+00 0.37684102E+04</pdfrwt>
<totfact> 0.11434315E-01</totfact>
</mgrwt>
</event>
<event>
11    1  0.2502641E-008  0.1280319E+04  0.7818608E-02  0.9045320E-01
          2   -1    0    0  501    0  0.00000000000E+00  0.00000000000E+00  0.59866266419E+03  0.59866266419E+03  0.00000000000E+00 0. -1.
         -2   -1    0    0    0  501 -0.00000000000E+00 -0.00000000000E+00 -0.68453277626E+03  0.68453277626E+03  0.00000000000E+00 0.  1.
         23    2    1    2    0    0 -0.20159910516E+03  0.16519986728E+03  0.15862278524E+03  0.31764912740E+03  0.88354879815E+02 0.  0.
        254    2    1    2    0    0  0.20159910516E+03 -0.16519986728E+03 -0.24449289731E+03  0.96554631305E+03  0.89697809921E+03 0.  0.
         24    2    4    4    0    0  0.31071838963E+03 -0.38061819973E+03 -0.40537829279E+03  0.64255278440E+03  0.84417941527E+02 0.  0.
         11    1    3    3    0    0 -0.17061523373E+03  0.10303038351E+03  0.14596257653E+03  0.24704228718E+03  0.00000000000E+00 0.  1.
        -11    1    3    3    0    0 -0.30983871430E+02  0.62169483765E+02  0.12660208708E+02  0.70606840213E+02  0.00000000000E+00 0. -1.
          4    1    5    5  502    0  0.13808991380E+03 -0.17831572772E+03 -0.24019794031E+03  0.32948501267E+03  0.00000000000E+00 0. -1.
          3    1    4    4  503    0 -0.89849577912E+02  0.23349940785E+03  0.12870303216E+03  0.28135278673E+03  0.00000000000E+00 0. -1.
         -4    1    4    4    0  503 -0.19269706561E+02 -0.18081075397E+02  0.32182363326E+02  0.41640741921E+02  0.00000000000E+00 0.  1.
         -3    1    5    5    0  502  0.17262847583E+03 -0.20230247201E+03 -0.16518035248E+03  0.31306777173E+03  0.00000000000E+00 0.  1.
<mgrwt>
<rscale>  0 0.12803190E+04</rscale>
<asrwt>0</asrwt>
<pdfrwt beam="1">  1        2 0.92101948E-01 0.12803190E+04</pdfrwt>
<pdfrwt beam="2">  1       -2 0.10531274E+00 0.12803190E+04</pdfrwt>
<totfact> 0.35628833E+01</totfact>
</mgrwt>
</event>
<event>
12    1  0.2502641E-008  0.1817704E+04  0.7818608E-02  0.8696941E-01
         -2   -1    0    0    0  501 -0.00000000000E+00  0.00000000000E+00  0.32053335249E+03  0.32053335249E+03  0.00000000000E+00 0.  1.
          2   -1    0    0  501    0  0.00000000000E+00 -0.00000000000E+00 -0.25769915215E+04  0.25769915215E+04  0.00000000000E+00 0. -1.
         23    2    1    2    0    0  0.45385453480E+03  0.33153611156E+03 -0.14293115243E+04  0.15386588394E+04  0.92948688407E+02 0.  0.
        254    2    1    2    0    0 -0.45385453480E+03 -0.33153611156E+03 -0.82714664472E+03  0.13588660345E+04  0.92002456269E+03 0.  0.
        -24    2    4    4    0    0 -0.13651060812E+03  0.21847765492E+03 -0.63764394831E+03  0.69111505478E+03  0.68429396508E+02 0.  0.
         24    2    4    4    0    0 -0.31734392668E+03 -0.55001376648E+03 -0.18950269641E+03  0.66775097976E+03  0.82205765656E+02 0.  0.
         13    1    3    3    0    0  0.43221524736E+03  0.33120192195E+03 -0.13326533969E+04  0.14396075192E+04  0.00000000000E+00 0. -1.
        -13    1    3    3    0    0  0.21639287433E+02  0.33418960783E+00 -0.96658127394E+02  0.99051320206E+02  0.00000000000E+00 0.  1.
          2    1    6    6  502    0 -0.70100708859E+01 -0.18380236432E+02 -0.22562879822E+02  0.29934223407E+02  0.00000000000E+00 0. -1.
          3    1    5    5  503    0 -0.12116039536E+02  0.62856133949E+02 -0.11231148292E+03  0.12927320366E+03  0.00000000000E+00 0. -1.
         -4    1    5    5    0  503 -0.12439456858E+03  0.15562152097E+03 -0.52533246539E+03  0.56184185112E+03  0.00000000000E+00 0.  1.
         -1    1    6    6    0  502 -0.31033385579E+03 -0.53163353005E+03 -0.16693981659E+03  0.63781675636E+03  0.00000000000E+00 0.  1.
<mgrwt>
<rscale>  0 0.18177038E+04</rscale>
<asrwt>0</asrwt>
<pdfrwt beam="1">  1        2 0.39646023E+00 0.18177038E+04</pdfrwt>
<pdfrwt beam="2">  1       -2 0.49312824E-01 0.18177038E+04</pdfrwt>
<totfact> 0.11536679E+01</totfact>
</mgrwt>
</event>
<event>
11    1  0.2502641E-008  0.2880322E+04  0.7818608E-02  0.8278756E-01
         -2   -1    0    0    0  501 -0.00000000000E+00  0.00000000000E+00  0.86287946829E+03  0.86287946829E+03  0.00000000000E+00 0.  1.
          2   -1    0    0  501    0  0.00000000000E+00 -0.00000000000E+00 -0.24036545066E+04  0.24036545066E+04  0.00000000000E+00 0. -1.
         23    2    1    2    0    0 -0.20354397657E+03  0.28986005617E+03 -0.21091101801E+04  0.21405656021E+04  0.90699185179E+02 0.  0.
        254    2    1    2    0    0  0.20354397657E+03 -0.28986005617E+03  0.56833514183E+03  0.11259683728E+04  0.90518005979E+03 0.  0.
         24    2    4    4    0    0 -0.43852345444E+02 -0.41646936110E+02 -0.22712303495E+03  0.24863880734E+03  0.81110344731E+02 0.  0.
         11    1    3    3    0    0 -0.19984271913E+03  0.29389989399E+03 -0.20010731593E+04  0.20323897385E+04  0.00000000000E+00 0. -1.
        -11    1    3    3    0    0 -0.37012574363E+01 -0.40398378229E+01 -0.10803702081E+03  0.10817586358E+03  0.00000000000E+00 0.  1.
          2    1    5    5  502    0 -0.37367212904E+02 -0.27732716252E+02 -0.22853334599E+03  0.23322285990E+03  0.00000000000E+00 0. -1.
          3    1    4    4  503    0  0.15016837239E+03 -0.15952554068E+03  0.62296777254E+03  0.66036942980E+03  0.00000000000E+00 0. -1.
         -4    1    4    4    0  503  0.97227949627E+02 -0.88687579374E+02  0.17249040424E+03  0.21696013569E+03  0.00000000000E+00 0.  1.
         -1    1    5    5    0  502 -0.64851325399E+01 -0.13914219858E+02  0.14103110370E+01  0.15415947442E+02  0.00000000000E+00 0.  1.
<mgrwt>
<rscale>  0 0.28803223E+04</rscale>
<asrwt>0</asrwt>
<pdfrwt beam="1">  1        2 0.36979300E+00 0.28803223E+04</pdfrwt>
<pdfrwt beam="2">  1       -2 0.13275069E+00 0.28803223E+04</pdfrwt>
<totfact> 0.14081668E+00</totfact>
</mgrwt>
</event>
<event>
12    1  0.2502641E-008  0.2625360E+04  0.7818608E-02  0.8359638E-01
         -2   -1    0    0    0  501 -0.00000000000E+00  0.00000000000E+00  0.10168912885E+04  0.10168912885E+04  0.00000000000E+00 0.  1.
          2   -1    0    0  501    0  0.00000000000E+00 -0.00000000000E+00 -0.16945059025E+04  0.16945059025E+04  0.00000000000E+00 0. -1.
         23    2    1    2    0    0  0.28383403163E+02 -0.57694699217E+03  0.73640307372E+03  0.93988494209E+03  0.86143879864E+02 0.  0.
        254    2    1    2    0    0 -0.28383403163E+02  0.57694699217E+03 -0.14140176878E+04  0.17715122489E+04  0.89729380769E+03 0.  0.
        -24    2    4    4    0    0 -0.46668937124E+02  0.54672774803E+03 -0.25402853323E+03  0.60830209665E+03  0.66420817029E+02 0.  0.
         24    2    4    4    0    0  0.18285533961E+02  0.30219244136E+02 -0.11599891545E+04  0.11632101522E+04  0.78964904648E+02 0.  0.
         11    1    3    3    0    0  0.35697462907E+02 -0.56573094909E+03  0.73192776263E+03  0.92576674456E+03  0.00000000000E+00 0.  1.
        -11    1    3    3    0    0 -0.73140597439E+01 -0.11216043074E+02  0.44753110861E+01  0.14118197530E+02  0.00000000000E+00 0. -1.
          4    1    6    6  502    0  0.46067297309E+02  0.98068797755E+01 -0.46834443693E+03  0.47070679024E+03  0.00000000000E+00 0. -1.
          3    1    5    5  503    0 -0.41599227243E+02  0.33681328529E+03 -0.12394886874E+03  0.36129905469E+03  0.00000000000E+00 0. -1.
         -4    1    5    5    0  503 -0.50697098813E+01  0.20991446274E+03 -0.13007966448E+03  0.24700304196E+03  0.00000000000E+00 0.  1.
         -3    1    6    6    0  502 -0.27781763348E+02  0.20412364361E+02 -0.69164471761E+03  0.69250336201E+03  0.00000000000E+00 0.  1.
<mgrwt>
<rscale>  0 0.26253596E+04</rscale>
<asrwt>0</asrwt>
<pdfrwt beam="1">  1        2 0.26069321E+00 0.26253596E+04</pdfrwt>
<pdfrwt beam="2">  1       -2 0.15644481E+00 0.26253596E+04</pdfrwt>
<totfact> 0.23344706E+00</totfact>
</mgrwt>
</event>
<event>
12    1  0.2502641E-008  0.2010078E+04  0.7818608E-02  0.8601923E-01
         -2   -1    0    0    0  501 -0.00000000000E+00  0.00000000000E+00  0.51231244300E+03  0.51231244300E+03  0.00000000000E+00 0.  1.
          2   -1    0    0  501    0  0.00000000000E+00 -0.00000000000E+00 -0.19716550004E+04  0.19716550004E+04  0.00000000000E+00 0. -1.
         23    2    1    2    0    0  0.18985934196E+03  0.42903388935E+03 -0.13863095623E+04  0.14663358693E+04  0.90388225207E+02 0.  0.
        254    2    1    2    0    0 -0.18985934196E+03 -0.42903388935E+03 -0.73032995101E+02  0.10176315741E+04  0.90006863860E+03 0.  0.
        -24    2    4    4    0    0 -0.12165347641E+03 -0.18611421222E+03 -0.47700700862E+03  0.53481711512E+03  0.95160874537E+02 0.  0.
         24    2    4    4    0    0 -0.68205865550E+02 -0.24291967713E+03  0.40397401352E+03  0.48281445893E+03  0.79074575646E+02 0.  0.
         11    1    3    3    0    0  0.70783375746E+02  0.75578539767E+02 -0.25920505425E+03  0.27912302324E+03  0.00000000000E+00 0.  1.
        -11    1    3    3    0    0  0.11907596621E+03  0.35345534958E+03 -0.11271045080E+04  0.11872128461E+04  0.00000000000E+00 0. -1.
          4    1    6    6  502    0 -0.86776024662E+01 -0.16960535767E+03  0.25179055260E+03  0.30370999410E+03  0.00000000000E+00 0. -1.
          1    1    5    5  503    0 -0.13268946076E+03 -0.18827720202E+03 -0.44894083523E+03  0.50458167955E+03  0.00000000000E+00 0. -1.
         -2    1    5    5    0  503  0.11035984355E+02  0.21629898029E+01 -0.28066173390E+02  0.30235435574E+02  0.00000000000E+00 0.  1.
         -3    1    6    6    0  502 -0.59528263084E+02 -0.73314319461E+02  0.15218346092E+03  0.17910446483E+03  0.00000000000E+00 0.  1.
<mgrwt>
<rscale>  0 0.20100780E+04</rscale>
<asrwt>0</asrwt>
<pdfrwt beam="1">  1        2 0.30333153E+00 0.20100780E+04</pdfrwt>
<pdfrwt beam="2">  1       -2 0.78817300E-01 0.20100780E+04</pdfrwt>
<totfact> 0.91921424E+00</totfact>
</mgrwt>
</event>
<event>
12    1  0.2502641E-008  0.1819881E+04  0.7818608E-02  0.8695798E-01
          2   -1    0    0  501    0  0.00000000000E+00  0.00000000000E+00  0.16791267410E+04  0.16791267410E+04  0.00000000000E+00 0. -1.
         -2   -1    0    0    0  501 -0.00000000000E+00 -0.00000000000E+00 -0.49310843033E+03  0.49310843033E+03  0.00000000000E+00 0.  1.
         23    2    1    2    0    0  0.22531834324E+03  0.10915489487E+03 -0.31217880596E+03  0.41049914818E+03  0.91492059169E+02 0.  0.
        254    2    1    2    0    0 -0.22531834324E+03 -0.10915489487E+03  0.14981971166E+04  0.17617360231E+04  0.89243266866E+03 0.  0.
        -24    2    4    4    0    0  0.28226229451E+03  0.16408610429E+03  0.61790790772E+03  0.70640029504E+03  0.10293173412E+03 0.  0.
         24    2    4    4    0    0 -0.50758063776E+03 -0.27324099916E+03  0.88028920889E+03  0.10553357281E+04  0.80781558754E+02 0.  0.
         11    1    3    3    0    0  0.18891780867E+03  0.11419269931E+03 -0.29856753172E+03  0.37131183931E+03  0.00000000000E+00 0.  1.
        -11    1    3    3    0    0  0.36400534570E+02 -0.50378044351E+01 -0.13611274233E+02  0.39187308873E+02  0.00000000000E+00 0. -1.
          4    1    6    6  502    0 -0.77859189755E+02 -0.22938684878E+02  0.16848548588E+03  0.18701763459E+03  0.00000000000E+00 0. -1.
          3    1    5    5  503    0  0.43462890346E+02  0.71343010114E+02  0.19197307333E+03  0.20936214752E+03  0.00000000000E+00 0. -1.
         -4    1    5    5    0  503  0.23879940417E+03  0.92743094171E+02  0.42593483439E+03  0.49703814752E+03  0.00000000000E+00 0.  1.
         -3    1    6    6    0  502 -0.42972144800E+03 -0.25030231428E+03  0.71180372301E+03  0.86831809350E+03  0.00000000000E+00 0.  1.
<mgrwt>
<rscale>  0 0.18198808E+04</rscale>
<asrwt>0</asrwt>
<pdfrwt beam="1">  1        2 0.25832719E+00 0.18198808E+04</pdfrwt>
<pdfrwt beam="2">  1       -2 0.75862836E-01 0.18198808E+04</pdfrwt>
<totfact> 0.14779128E+01</totfact>
</mgrwt>
</event>
<event>
12    1  0.2502641E-008  0.1820639E+04  0.7818608E-02  0.8695400E-01
         -2   -1    0    0    0  501 -0.00000000000E+00  0.00000000000E+00  0.14122789491E+04  0.14122789491E+04  0.00000000000E+00 0.  1.
          2   -1    0    0  501    0  0.00000000000E+00 -0.00000000000E+00 -0.58676911729E+03  0.58676911729E+03  0.00000000000E+00 0. -1.
         23    2    1    2    0    0 -0.17729863087E+03  0.47713314749E+03  0.68616190439E+03  0.85913598927E+03  0.90585010199E+02 0.  0.
        254    2    1    2    0    0  0.17729863087E+03 -0.47713314749E+03  0.13934792740E+03  0.11399120771E+04  0.10103914359E+04 0.  0.
        -24    2    4    4    0    0 -0.32740086221E+03 -0.50230348334E+03 -0.73563595794E+01  0.60817529009E+03  0.10160193647E+03 0.  0.
         24    2    4    4    0    0  0.50469949308E+03  0.25170335853E+02  0.14670428698E+03  0.53173678701E+03  0.76594638965E+02 0.  0.
         13    1    3    3    0    0 -0.16039059790E+03  0.40719680897E+03  0.53104971112E+03  0.68814837122E+03  0.00000000000E+00 0. -1.
        -13    1    3    3    0    0 -0.16908032974E+02  0.69936338519E+02  0.15511219327E+03  0.17098761805E+03  0.00000000000E+00 0.  1.
          4    1    6    6  502    0  0.83820542789E+02  0.33084891381E+02  0.28124848023E+02  0.94400744210E+02  0.00000000000E+00 0. -1.
          3    1    5    5  503    0 -0.16309233855E+02 -0.66446047256E+01 -0.14688214664E+02  0.22932194202E+02  0.00000000000E+00 0. -1.
         -4    1    5    5    0  503 -0.31109162836E+03 -0.49565887861E+03  0.73318550842E+01  0.58524309589E+03  0.00000000000E+00 0.  1.
         -3    1    6    6    0  502  0.42087895030E+03 -0.79145555282E+01  0.11857943896E+03  0.43733604280E+03  0.00000000000E+00 0.  1.
<mgrwt>
<rscale>  0 0.18206391E+04</rscale>
<asrwt>0</asrwt>
<pdfrwt beam="1">  1        2 0.90272172E-01 0.18206391E+04</pdfrwt>
<pdfrwt beam="2">  1       -2 0.21727368E+00 0.18206391E+04</pdfrwt>
<totfact> 0.49359843E+00</totfact>
</mgrwt>
</event>
<event>
12    1  0.2502641E-008  0.1816306E+04  0.7818608E-02  0.8697676E-01
          1   -1    0    0  501    0  0.00000000000E+00  0.00000000000E+00  0.13076319605E+04  0.13076319605E+04  0.00000000000E+00 0. -1.
         -1   -1    0    0    0  501 -0.00000000000E+00 -0.00000000000E+00 -0.63071403316E+03  0.63071403316E+03  0.00000000000E+00 0.  1.
         23    2    1    2    0    0 -0.18603940327E+03  0.20657939629E+03  0.92841747532E+03  0.97356468311E+03  0.92647057083E+02 0.  0.
        254    2    1    2    0    0  0.18603940327E+03 -0.20657939629E+03 -0.25149954801E+03  0.96478131052E+03  0.88896864284E+03 0.  0.
        -24    2    4    4    0    0  0.42309585697E+03 -0.38040925120E+03 -0.27445079968E+01  0.57162756759E+03  0.55038542163E+02 0.  0.
         24    2    4    4    0    0 -0.23705645369E+03  0.17382985492E+03 -0.24875504001E+03  0.39315374293E+03  0.79235187594E+02 0.  0.
         13    1    3    3    0    0 -0.66968475832E+02  0.14327791665E+03  0.50767947089E+03  0.53174409570E+03  0.00000000000E+00 0. -1.
        -13    1    3    3    0    0 -0.11907092744E+03  0.63301479641E+02  0.42073800443E+03  0.44182058741E+03  0.00000000000E+00 0.  1.
          2    1    6    6  502    0 -0.18483503225E+03  0.17137493076E+03 -0.20189832311E+03  0.32294935967E+03  0.00000000000E+00 0. -1.
          1    1    5    5  503    0  0.40485758577E+03 -0.37412779796E+03  0.37712022854E+01  0.55126717291E+03  0.00000000000E+00 0. -1.
         -2    1    5    5    0  503  0.18238271199E+02 -0.62814532433E+01 -0.65157102821E+01  0.20360394683E+02  0.00000000000E+00 0.  1.
         -1    1    6    6    0  502 -0.52221421441E+02  0.24549241610E+01 -0.46856716905E+02  0.70204383261E+02  0.00000000000E+00 0.  1.
<mgrwt>
<rscale>  0 0.18163060E+04</rscale>
<asrwt>0</asrwt>
<pdfrwt beam="1">  1        1 0.20117415E+00 0.18163060E+04</pdfrwt>
<pdfrwt beam="2">  1       -1 0.97032929E-01 0.18163060E+04</pdfrwt>
<totfact> 0.85926177E+00</totfact>
</mgrwt>
</event>
<event>
12    1  0.3590123E-008  0.1234040E+04  0.7818608E-02  0.9083573E-01
          1   -1    0    0  501    0  0.00000000000E+00  0.00000000000E+00  0.68543792582E+03  0.68543792582E+03  0.00000000000E+00 0. -1.
         -1   -1    0    0    0  501 -0.00000000000E+00 -0.00000000000E+00 -0.55543098508E+03  0.55543098508E+03  0.00000000000E+00 0.  1.
         23    2    1    2    0    0 -0.41830586250E+02  0.27844492490E+03 -0.41533957856E+02  0.29828127784E+03  0.89248400012E+02 0.  0.
        254    2    1    2    0    0  0.41830586250E+02 -0.27844492490E+03  0.17154089860E+03  0.94258763306E+03  0.88304235003E+03 0.  0.
        -24    2    4    4    0    0 -0.23217859524E+03  0.18279044175E+03 -0.11127536030E+03  0.33095322818E+03  0.99139234155E+02 0.  0.
         24    2    4    4    0    0  0.27400918149E+03 -0.46123536665E+03  0.28281625891E+03  0.61163440488E+03  0.79325367528E+02 0.  0.
         13    1    3    3    0    0 -0.10595893550E+02  0.95139155036E+01 -0.22817160083E+02  0.26896288640E+02  0.00000000000E+00 0. -1.
        -13    1    3    3    0    0 -0.31234692700E+02  0.26893100940E+03 -0.18716797773E+02  0.27138498920E+03  0.00000000000E+00 0.  1.
          4    1    6    6  502    0  0.25221994886E+03 -0.40793684394E+03  0.22406010175E+03  0.52936783095E+03  0.00000000000E+00 0. -1.
          3    1    5    5  503    0 -0.13932333557E+03  0.14683413479E+03 -0.11208755668E+03  0.23137604745E+03  0.00000000000E+00 0. -1.
         -2    1    5    5    0  503 -0.92855259670E+02  0.35956306963E+02  0.81219637067E+00  0.99577180728E+02  0.00000000000E+00 0.  1.
         -3    1    6    6    0  502  0.21789232630E+02 -0.53298522707E+02  0.58756157153E+02  0.82266573921E+02  0.00000000000E+00 0.  1.
<mgrwt>
<rscale>  0 0.12340396E+04</rscale>
<asrwt>0</asrwt>
<pdfrwt beam="1">  1        1 0.10545199E+00 0.12340396E+04</pdfrwt>
<pdfrwt beam="2">  1       -1 0.85450921E-01 0.12340396E+04</pdfrwt>
<totfact> 0.37604943E+01</totfact>
</mgrwt>
</event>
<event>
11    1  0.2502641E-008  0.2303599E+04  0.7818608E-02  0.8476503E-01
          1   -1    0    0  501    0  0.00000000000E+00  0.00000000000E+00  0.18438720837E+04  0.18438720837E+04  0.00000000000E+00 0. -1.
         -1   -1    0    0    0  501 -0.00000000000E+00 -0.00000000000E+00 -0.71948712790E+03  0.71948712790E+03  0.00000000000E+00 0.  1.
         23    2    1    2    0    0  0.72726477533E+03 -0.23538846907E+03 -0.18529386971E+03  0.79240898860E+03  0.96210198311E+02 0.  0.
        254    2    1    2    0    0 -0.72726477533E+03  0.23538846907E+03  0.13096788255E+04  0.17709502230E+04  0.91470447772E+03 0.  0.
         24    2    4    4    0    0 -0.55819844908E+03  0.33831093041E+01  0.11862789266E+04  0.13133810471E+04  0.78199290908E+02 0.  0.
         11    1    3    3    0    0  0.45684123935E+03 -0.17191110925E+03 -0.15915589898E+03  0.51340816865E+03  0.00000000000E+00 0.  1.
        -11    1    3    3    0    0  0.27042353598E+03 -0.63477359819E+02 -0.26137970731E+02  0.27900081995E+03  0.00000000000E+00 0. -1.
          2    1    5    5  502    0 -0.54104691111E+03 -0.10529758549E+02  0.11488820673E+04  0.12699498575E+04  0.00000000000E+00 0. -1.
          1    1    4    4  503    0 -0.14545781425E+03  0.29730405009E+03  0.17181766412E+03  0.37291954043E+03  0.00000000000E+00 0. -1.
         -2    1    4    4    0  503 -0.23608512005E+02 -0.65298690328E+02 -0.48417765242E+02  0.84649635491E+02  0.00000000000E+00 0.  1.
         -1    1    5    5    0  502 -0.17151537965E+02  0.13912867853E+02  0.37396859276E+02  0.43431189601E+02  0.00000000000E+00 0.  1.
<mgrwt>
<rscale>  0 0.23035991E+04</rscale>
<asrwt>0</asrwt>
<pdfrwt beam="1">  1        1 0.28367263E+00 0.23035991E+04</pdfrwt>
<pdfrwt beam="2">  1       -1 0.11069033E+00 0.23035991E+04</pdfrwt>
<totfact> 0.25841012E+00</totfact>
</mgrwt>
</event>
<event>
12    1  0.2502641E-008  0.1179748E+04  0.7818608E-02  0.9130770E-01
         -2   -1    0    0    0  501 -0.00000000000E+00  0.00000000000E+00  0.77195815547E+03  0.77195815547E+03  0.00000000000E+00 0. -1.
          2   -1    0    0  501    0  0.00000000000E+00 -0.00000000000E+00 -0.45073882360E+03  0.45073882360E+03  0.00000000000E+00 0.  1.
         23    2    1    2    0    0 -0.10931463356E+03 -0.31408300679E+03  0.21040714409E+03  0.40418513910E+03  0.92177199542E+02 0.  0.
        254    2    1    2    0    0  0.10931463356E+03  0.31408300679E+03  0.11081218778E+03  0.81851183997E+03  0.73965158483E+03 0.  0.
        -24    2    4    4    0    0 -0.26700267844E+03  0.31843911679E+03  0.64081523694E+02  0.43076275283E+03  0.93574602074E+02 0.  0.
         24    2    4    4    0    0  0.37631731200E+03 -0.43561099939E+01  0.46730664089E+02  0.38774908714E+03  0.80820199244E+02 0.  0.
         13    1    3    3    0    0  0.16316039295E+01  0.96406213392E+00  0.19246474334E+02  0.19339553291E+02  0.00000000000E+00 0.  1.
        -13    1    3    3    0    0 -0.11094623749E+03 -0.31504706893E+03  0.19116066976E+03  0.38484558581E+03  0.00000000000E+00 0. -1.
          4    1    6    6  502    0  0.84987300592E+02 -0.80336193732E+01  0.44760455744E+02  0.96389204274E+02  0.00000000000E+00 0. -1.
          3    1    5    5  503    0 -0.19336181060E+02  0.50765589726E+02 -0.17502461111E+02  0.57073366320E+02  0.00000000000E+00 0. -1.
         -4    1    5    5    0  503 -0.24766649738E+03  0.26767352706E+03  0.81583984805E+02  0.37368938651E+03  0.00000000000E+00 0.  1.
         -3    1    6    6    0  502  0.29133001141E+03  0.36775093793E+01  0.19702083444E+01  0.29135988286E+03  0.00000000000E+00 0.  1.
<mgrwt>
<rscale>  0 0.11797483E+04</rscale>
<asrwt>0</asrwt>
<pdfrwt beam="1">  1        2 0.69344435E-01 0.11797483E+04</pdfrwt>
<pdfrwt beam="2">  1       -2 0.11876279E+00 0.11797483E+04</pdfrwt>
<totfact> 0.37357540E+01</totfact>
</mgrwt>
</event>
<event>
11    1  0.2502641E-008  0.1624610E+04  0.7818608E-02  0.8805570E-01
         -2   -1    0    0    0  501 -0.00000000000E+00  0.00000000000E+00  0.31427021054E+03  0.31427021054E+03  0.00000000000E+00 0.  1.
          2   -1    0    0  501    0  0.00000000000E+00 -0.00000000000E+00 -0.20995919400E+04  0.20995919400E+04  0.00000000000E+00 0. -1.
         23    2    1    2    0    0  0.39786202782E+03  0.19544644760E+03 -0.12611489355E+03  0.46846240141E+03  0.84015165917E+02 0.  0.
        254    2    1    2    0    0 -0.39786202782E+03 -0.19544644760E+03 -0.16592068360E+04  0.19453997492E+04  0.91384864860E+03 0.  0.
         24    2    4    4    0    0 -0.36762721844E+03 -0.35830249540E+03 -0.16554804852E+04  0.17350437113E+04  0.78934107527E+02 0.  0.
         13    1    3    3    0    0  0.21964915576E+03  0.69477583918E+02 -0.39867672908E+02  0.23379973831E+03  0.00000000000E+00 0.  1.
        -13    1    3    3    0    0  0.17821287206E+03  0.12596886368E+03 -0.86247220638E+02  0.23466266310E+03  0.00000000000E+00 0. -1.
          2    1    5    5  502    0 -0.63368132377E+02 -0.62874088262E+02 -0.40108629209E+03  0.41090009111E+03  0.00000000000E+00 0. -1.
          1    1    4    4  503    0 -0.69639881843E+02  0.89054529395E+02  0.34748744867E+02  0.11827044271E+03  0.00000000000E+00 0. -1.
         -2    1    4    4    0  503  0.39405072457E+02  0.73801518403E+02 -0.38475095644E+02  0.92085595175E+02  0.00000000000E+00 0.  1.
         -1    1    5    5    0  502 -0.30425908606E+03 -0.29542840713E+03 -0.12543941931E+04  0.13241436202E+04  0.00000000000E+00 0.  1.
<mgrwt>
<rscale>  0 0.16246097E+04</rscale>
<asrwt>0</asrwt>
<pdfrwt beam="1">  1        2 0.32301414E+00 0.16246097E+04</pdfrwt>
<pdfrwt beam="2">  1       -2 0.48349264E-01 0.16246097E+04</pdfrwt>
<totfact> 0.22809925E+01</totfact>
</mgrwt>
</event>
<event>
12    1  0.2502641E-008  0.1815285E+04  0.7818608E-02  0.8698213E-01
         -1   -1    0    0    0  501 -0.00000000000E+00  0.00000000000E+00  0.49446514152E+03  0.49446514152E+03  0.00000000000E+00 0.  1.
          1   -1    0    0  501    0  0.00000000000E+00 -0.00000000000E+00 -0.16660729831E+04  0.16660729831E+04  0.00000000000E+00 0. -1.
         23    2    1    2    0    0 -0.61606681273E+02  0.60854421279E+03 -0.95577451539E+02  0.62620663834E+03  0.94224532716E+02 0.  0.
        254    2    1    2    0    0  0.61606681273E+02 -0.60854421279E+03 -0.10760303900E+04  0.15343314863E+04  0.90675810854E+03 0.  0.
        -24    2    4    4    0    0  0.21048339234E+03  0.10231578691E+03 -0.25512251872E+02  0.25468351902E+03  0.97165020262E+02 0.  0.
         24    2    4    4    0    0 -0.14887671107E+03 -0.71085999970E+03 -0.10505181382E+04  0.12796479672E+04  0.80152025731E+02 0.  0.
         13    1    3    3    0    0 -0.19910460407E+02  0.50824810123E+03 -0.95838633226E+02  0.51758825572E+03  0.00000000000E+00 0.  1.
        -13    1    3    3    0    0 -0.41696220866E+02  0.10029611156E+03  0.26118168727E+00  0.10861838263E+03  0.00000000000E+00 0. -1.
          4    1    6    6  502    0 -0.28909214079E+01 -0.71109253747E+02 -0.70080800704E+02  0.99880939234E+02  0.00000000000E+00 0. -1.
          3    1    5    5  503    0  0.75709794627E+02  0.38258354622E+02 -0.56968734181E+02  0.10218175657E+03  0.00000000000E+00 0. -1.
         -4    1    5    5    0  503  0.13477359771E+03  0.64057432287E+02  0.31456482309E+02  0.15250176245E+03  0.00000000000E+00 0.  1.
         -3    1    6    6    0  502 -0.14598578966E+03 -0.63975074595E+03 -0.98043733745E+03  0.11797670280E+04  0.00000000000E+00 0.  1.
<mgrwt>
<rscale>  0 0.18152851E+04</rscale>
<asrwt>0</asrwt>
<pdfrwt beam="1">  1        1 0.25631892E+00 0.18152851E+04</pdfrwt>
<pdfrwt beam="2">  1       -1 0.76071560E-01 0.18152851E+04</pdfrwt>
<totfact> 0.82213955E+00</totfact>
</mgrwt>
</event>
<event>
11    1  0.2502641E-008  0.1627134E+04  0.7818608E-02  0.8804050E-01
         -2   -1    0    0    0  501 -0.00000000000E+00  0.00000000000E+00  0.54738829401E+03  0.54738829401E+03  0.00000000000E+00 0.  1.
          2   -1    0    0  501    0  0.00000000000E+00 -0.00000000000E+00 -0.12091801783E+04  0.12091801783E+04  0.00000000000E+00 0. -1.
         23    2    1    2    0    0 -0.72799025741E+02 -0.46993195062E+03  0.89816013583E+02  0.49166551391E+03  0.86788967664E+02 0.  0.
        254    2    1    2    0    0  0.72799025741E+02  0.46993195062E+03 -0.75160789785E+03  0.12649029584E+04  0.89940498423E+03 0.  0.
         24    2    4    4    0    0 -0.27772520671E+03  0.40517442816E+03 -0.56531188248E+03  0.75324176909E+03  0.80610362545E+02 0.  0.
         13    1    3    3    0    0 -0.12646021502E+02 -0.38968425154E+02 -0.15766597852E+02  0.43898127826E+02  0.00000000000E+00 0. -1.
        -13    1    3    3    0    0 -0.60153004239E+02 -0.43096352547E+03  0.10558261144E+03  0.44776738608E+03  0.00000000000E+00 0.  1.
          2    1    5    5  502    0 -0.27578204286E+03  0.39743131957E+03 -0.53226817418E+03  0.71924738317E+03  0.00000000000E+00 0. -1.
          3    1    4    4  503    0  0.28556648826E+03 -0.75665207038E+02 -0.38900392848E+02  0.29797094378E+03  0.00000000000E+00 0. -1.
         -4    1    4    4    0  503  0.64957744190E+02  0.14042272950E+03 -0.14739562253E+03  0.21369024552E+03  0.00000000000E+00 0.  1.
         -1    1    5    5    0  502 -0.19431638526E+01  0.77431085851E+01 -0.33043708296E+02  0.33994385923E+02  0.00000000000E+00 0.  1.
<mgrwt>
<rscale>  0 0.16271338E+04</rscale>
<asrwt>0</asrwt>
<pdfrwt beam="1">  1        2 0.18602772E+00 0.16271338E+04</pdfrwt>
<pdfrwt beam="2">  1       -2 0.84213585E-01 0.16271338E+04</pdfrwt>
<totfact> 0.22029457E+01</totfact>
</mgrwt>
</event>
<event>
12    1  0.2502641E-008  0.1540279E+04  0.7818608E-02  0.8858101E-01
          1   -1    0    0  501    0  0.00000000000E+00  0.00000000000E+00  0.56547401810E+03  0.56547401810E+03  0.00000000000E+00 0. -1.
         -1   -1    0    0    0  501 -0.00000000000E+00 -0.00000000000E+00 -0.10488804281E+04  0.10488804281E+04  0.00000000000E+00 0.  1.
         23    2    1    2    0    0  0.10534707270E+03 -0.19270813714E+03 -0.61373789483E+03  0.65859558340E+03  0.94018652837E+02 0.  0.
        254    2    1    2    0    0 -0.10534707270E+03  0.19270813714E+03  0.13033148486E+03  0.95575886277E+03  0.92100720734E+03 0.  0.
        -24    2    4    4    0    0  0.49839948525E+02  0.52686238434E+03 -0.46047209122E+02  0.53973832666E+03  0.95546445747E+02 0.  0.
         24    2    4    4    0    0 -0.15518702123E+03 -0.33415424720E+03  0.17637869398E+03  0.41602053611E+03  0.78876931287E+02 0.  0.
         11    1    3    3    0    0  0.81965762451E+02 -0.84837544650E+02 -0.41296353064E+03  0.42948186555E+03  0.00000000000E+00 0. -1.
        -11    1    3    3    0    0  0.23381310253E+02 -0.10787059249E+03 -0.20077436418E+03  0.22911371785E+03  0.00000000000E+00 0.  1.
          4    1    6    6  502    0 -0.14840989153E+03 -0.27343924137E+03  0.12183651402E+03  0.33412370580E+03  0.00000000000E+00 0. -1.
          3    1    5    5  503    0  0.24073426410E+02  0.34189651518E+03 -0.74733519412E+02  0.35079603173E+03  0.00000000000E+00 0. -1.
         -4    1    5    5    0  503  0.25766522116E+02  0.18496586916E+03  0.28686310291E+02  0.18894229493E+03  0.00000000000E+00 0.  1.
         -3    1    6    6    0  502 -0.67771296962E+01 -0.60715005833E+02  0.54542179956E+02  0.81896830308E+02  0.00000000000E+00 0.  1.
<mgrwt>
<rscale>  0 0.15402787E+04</rscale>
<asrwt>0</asrwt>
<pdfrwt beam="1">  1        1 0.86996003E-01 0.15402787E+04</pdfrwt>
<pdfrwt beam="2">  1       -1 0.16136622E+00 0.15402787E+04</pdfrwt>
<totfact> 0.10260668E+01</totfact>
</mgrwt>
</event>
<event>
12    1  0.2502641E-008  0.1365155E+04  0.7818608E-02  0.8979434E-01
         -1   -1    0    0    0  501 -0.00000000000E+00  0.00000000000E+00  0.39388385386E+03  0.39388385386E+03  0.00000000000E+00 0.  1.
          1   -1    0    0  501    0  0.00000000000E+00 -0.00000000000E+00 -0.11828670736E+04  0.11828670736E+04  0.00000000000E+00 0. -1.
         23    2    1    2    0    0 -0.22410846792E+03 -0.23642465751E+03 -0.43035017577E+00  0.33849398331E+03  0.91960684310E+02 0.  0.
        254    2    1    2    0    0  0.22410846792E+03  0.23642465751E+03 -0.78855286956E+03  0.12382569442E+04  0.89740927541E+03 0.  0.
        -24    2    4    4    0    0 -0.28046190487E+03  0.12527096181E+03 -0.60377857213E+03  0.68356115248E+03  0.91408922193E+02 0.  0.
         24    2    4    4    0    0  0.50457037279E+03  0.11115369571E+03 -0.18477429743E+03  0.55469579168E+03  0.81237153723E+02 0.  0.
         11    1    3    3    0    0  0.56876460836E+01  0.31582891140E+01 -0.44247139677E+00  0.65207276463E+01  0.00000000000E+00 0. -1.
        -11    1    3    3    0    0 -0.22979611401E+03 -0.23958294662E+03  0.12121220996E-01  0.33197325566E+03  0.00000000000E+00 0.  1.
          4    1    6    6  502    0  0.37146359212E+03  0.78957380293E+02 -0.96723951468E+02  0.39188645162E+03  0.00000000000E+00 0. -1.
          3    1    5    5  503    0 -0.13297688690E+03  0.24537937598E+02 -0.33052570451E+03  0.35711651344E+03  0.00000000000E+00 0. -1.
         -4    1    5    5    0  503 -0.14748501797E+03  0.10073302421E+03 -0.27325286762E+03  0.32644463904E+03  0.00000000000E+00 0.  1.
         -3    1    6    6    0  502  0.13310678067E+03  0.32196315412E+02 -0.88050345958E+02  0.16280934006E+03  0.00000000000E+00 0.  1.
<mgrwt>
<rscale>  0 0.13651553E+04</rscale>
<asrwt>0</asrwt>
<pdfrwt beam="1">  1        1 0.18197955E+00 0.13651553E+04</pdfrwt>
<pdfrwt beam="2">  1       -1 0.60597516E-01 0.13651553E+04</pdfrwt>
<totfact> 0.29698723E+01</totfact>
</mgrwt>
</event>
<event>
12    1  0.2502641E-008  0.1362158E+04  0.7818608E-02  0.8981676E-01
         -1   -1    0    0    0  501 -0.00000000000E+00  0.00000000000E+00  0.18320812611E+04  0.18320812611E+04  0.00000000000E+00 0.  1.
          1   -1    0    0  501    0  0.00000000000E+00 -0.00000000000E+00 -0.25319204975E+03  0.25319204975E+03  0.00000000000E+00 0. -1.
         23    2    1    2    0    0  0.10201408545E+03 -0.35927838773E+03  0.43825254217E+03  0.58307024157E+03  0.91748473349E+02 0.  0.
        254    2    1    2    0    0 -0.10201408545E+03  0.35927838773E+03  0.11406366692E+04  0.15022030693E+04  0.90336826199E+03 0.  0.
        -24    2    4    4    0    0  0.27434623198E+03  0.39268287514E+03  0.28807773617E+03  0.56622391580E+03  0.90305289551E+02 0.  0.
         24    2    4    4    0    0 -0.37636031743E+03 -0.33404487407E+02  0.85255893303E+03  0.93597915350E+03  0.80232743779E+02 0.  0.
         11    1    3    3    0    0  0.86670798902E+02 -0.23101349386E+03  0.34320168979E+03  0.42268955701E+03  0.00000000000E+00 0.  1.
        -11    1    3    3    0    0  0.15343286550E+02 -0.12826489387E+03  0.95050852377E+02  0.16038068456E+03  0.00000000000E+00 0. -1.
          4    1    6    6  502    0 -0.24912155741E+03 -0.13476454136E+01  0.63216221569E+03  0.67947953131E+03  0.00000000000E+00 0. -1.
          3    1    5    5  503    0  0.19710483755E+03  0.29774227133E+03  0.16747850297E+03  0.39439805538E+03  0.00000000000E+00 0. -1.
         -4    1    5    5    0  503  0.77241394427E+02  0.94940603805E+02  0.12059923320E+03  0.17182586043E+03  0.00000000000E+00 0.  1.
         -3    1    6    6    0  502 -0.12723876002E+03 -0.32056841993E+02  0.22039671734E+03  0.25649962219E+03  0.00000000000E+00 0.  1.
<mgrwt>
<rscale>  0 0.13621577E+04</rscale>
<asrwt>0</asrwt>
<pdfrwt beam="1">  1        1 0.38952624E-01 0.13621577E+04</pdfrwt>
<pdfrwt beam="2">  1       -1 0.28185865E+00 0.13621577E+04</pdfrwt>
<totfact> 0.46437619E+00</totfact>
</mgrwt>
</event>
<event>
11    1  0.2502641E-008  0.2240778E+04  0.7818608E-02  0.8501645E-01
         -2   -1    0    0    0  501 -0.00000000000E+00  0.00000000000E+00  0.83682390453E+03  0.83682390453E+03  0.00000000000E+00 0.  1.
          2   -1    0    0  501    0  0.00000000000E+00 -0.00000000000E+00 -0.15000425316E+04  0.15000425316E+04  0.00000000000E+00 0. -1.
         23    2    1    2    0    0  0.66011404000E+03 -0.25772135618E+03 -0.92460243904E+03  0.11684163031E+04  0.90200575194E+02 0.  0.
        254    2    1    2    0    0 -0.66011404000E+03  0.25772135618E+03  0.26138381195E+03  0.11684501331E+04  0.89150623841E+03 0.  0.
         24    2    4    4    0    0 -0.63524124616E+03  0.36383189346E+03  0.11972986736E+03  0.74597933054E+03  0.79024255283E+02 0.  0.
         11    1    3    3    0    0  0.60510792787E+03 -0.24245003625E+03 -0.80460716200E+03  0.10355338283E+04  0.00000000000E+00 0. -1.
        -11    1    3    3    0    0  0.55006112124E+02 -0.15271319930E+02 -0.11999527704E+03  0.13288247475E+03  0.00000000000E+00 0.  1.
          4    1    5    5  502    0 -0.57990514535E+03  0.30413130135E+03  0.10283930944E+03  0.66284368416E+03  0.00000000000E+00 0. -1.
          1    1    4    4  503    0 -0.83661476112E+02 -0.13314832166E+03  0.25054464870E+03  0.29580456241E+03  0.00000000000E+00 0. -1.
         -2    1    4    4    0  503  0.58788682275E+02  0.27037784379E+02 -0.10889070412E+03  0.12666624014E+03  0.00000000000E+00 0.  1.
         -3    1    5    5    0  502 -0.55336100813E+02  0.59700592111E+02  0.16890557925E+02  0.83135646377E+02  0.00000000000E+00 0.  1.
<mgrwt>
<rscale>  0 0.22407779E+04</rscale>
<asrwt>0</asrwt>
<pdfrwt beam="1">  1        2 0.23077577E+00 0.22407779E+04</pdfrwt>
<pdfrwt beam="2">  1       -2 0.12874214E+00 0.22407779E+04</pdfrwt>
<totfact> 0.51480651E+00</totfact>
</mgrwt>
</event>
<event>
11    1  0.2502641E-008  0.1670889E+04  0.7818608E-02  0.8778144E-01
          2   -1    0    0  501    0  0.00000000000E+00  0.00000000000E+00  0.16500633339E+04  0.16500633339E+04  0.00000000000E+00 0. -1.
         -2   -1    0    0    0  501 -0.00000000000E+00 -0.00000000000E+00 -0.42299453594E+03  0.42299453594E+03  0.00000000000E+00 0.  1.
         23    2    1    2    0    0  0.88453727023E+02 -0.55841546383E+03  0.22525498399E+03  0.61515987438E+03  0.89610106412E+02 0.  0.
        254    2    1    2    0    0 -0.88453727023E+02  0.55841546383E+03  0.10018138140E+04  0.14578979955E+04  0.89564711536E+03 0.  0.
         24    2    4    4    0    0 -0.34433191396E+03 -0.36003490911E+02  0.14640653350E+03  0.38429912213E+03  0.79938875951E+02 0.  0.
         13    1    3    3    0    0  0.16486361671E+02 -0.50989927403E+02 -0.39569697371E+01  0.53734815783E+02  0.00000000000E+00 0. -1.
        -13    1    3    3    0    0  0.71967365353E+02 -0.50742553642E+03  0.22921195373E+03  0.56142505860E+03  0.00000000000E+00 0.  1.
          2    1    5    5  502    0 -0.17666708406E+03 -0.24046122733E+02  0.32459279772E+02  0.18122659698E+03  0.00000000000E+00 0. -1.
          3    1    4    4  503    0  0.32955846820E+02  0.12170945672E+03  0.16194043785E+03  0.20524128509E+03  0.00000000000E+00 0. -1.
         -4    1    4    4    0  503  0.22292234012E+03  0.47270949802E+03  0.69346684262E+03  0.86835758824E+03  0.00000000000E+00 0.  1.
         -1    1    5    5    0  502 -0.16766482990E+03 -0.11957368179E+02  0.11394725373E+03  0.20307252516E+03  0.00000000000E+00 0.  1.
<mgrwt>
<rscale>  0 0.16708893E+04</rscale>
<asrwt>0</asrwt>
<pdfrwt beam="1">  1        2 0.25385589E+00 0.16708893E+04</pdfrwt>
<pdfrwt beam="2">  1       -2 0.65076083E-01 0.16708893E+04</pdfrwt>
<totfact> 0.21713156E+01</totfact>
</mgrwt>
</event>
<event>
12    1  0.2502641E-008  0.1919646E+04  0.7818608E-02  0.8645138E-01
         -2   -1    0    0    0  501 -0.00000000000E+00  0.00000000000E+00  0.92864056725E+03  0.92864056725E+03  0.00000000000E+00 0.  1.
          2   -1    0    0  501    0  0.00000000000E+00 -0.00000000000E+00 -0.99205296539E+03  0.99205296539E+03  0.00000000000E+00 0. -1.
         23    2    1    2    0    0 -0.15507596306E+03  0.52088286234E+03 -0.53299719932E+03  0.76669874299E+03  0.91506488434E+02 0.  0.
        254    2    1    2    0    0  0.15507596306E+03 -0.52088286234E+03  0.46958480118E+03  0.11539947897E+04  0.90323118771E+03 0.  0.
        -24    2    4    4    0    0  0.28190105437E+03 -0.57360476403E+03  0.64621327191E+03  0.91340765617E+03  0.90726643142E+02 0.  0.
         24    2    4    4    0    0 -0.12682509132E+03  0.52721901696E+02 -0.17662847073E+03  0.24058713348E+03  0.88432739517E+02 0.  0.
         11    1    3    3    0    0 -0.10492647784E+03  0.21385637109E+03 -0.20050318352E+03  0.31136094779E+03  0.00000000000E+00 0.  1.
        -11    1    3    3    0    0 -0.50149485220E+02  0.30702649125E+03 -0.33249401579E+03  0.45533779520E+03  0.00000000000E+00 0. -1.
          2    1    6    6  502    0 -0.10800554888E+03  0.71049022050E+02 -0.16985860085E+03  0.21345984729E+03  0.00000000000E+00 0. -1.
          3    1    5    5  503    0  0.16845828763E+03 -0.43449970690E+03  0.47039430258E+03  0.66214725694E+03  0.00000000000E+00 0. -1.
         -4    1    5    5    0  503  0.11344276674E+03 -0.13910505713E+03  0.17581896933E+03  0.25126039923E+03  0.00000000000E+00 0.  1.
         -1    1    6    6    0  502 -0.18819542435E+02 -0.18327120353E+02 -0.67698698839E+01  0.27127286192E+02  0.00000000000E+00 0.  1.
<mgrwt>
<rscale>  0 0.19196465E+04</rscale>
<asrwt>0</asrwt>
<pdfrwt beam="1">  1        2 0.15262353E+00 0.19196465E+04</pdfrwt>
<pdfrwt beam="2">  1       -2 0.14286778E+00 0.19196465E+04</pdfrwt>
<totfact> 0.81182223E+00</totfact>
</mgrwt>
</event>
<event>
11    1  0.2502641E-008  0.4144111E+04  0.7818608E-02  0.7976089E-01
         -1   -1    0    0    0  501 -0.00000000000E+00  0.00000000000E+00  0.19009480745E+04  0.19009480745E+04  0.00000000000E+00 0.  1.
          1   -1    0    0  501    0  0.00000000000E+00 -0.00000000000E+00 -0.22585644452E+04  0.22585644452E+04  0.00000000000E+00 0. -1.
         23    2    1    2    0    0 -0.18385011562E+04  0.65085335179E+03  0.13013169827E+03  0.19567490963E+04  0.90753403116E+02 0.  0.
        254    2    1    2    0    0  0.18385011562E+04 -0.65085335179E+03 -0.48774806904E+03  0.22027634233E+04  0.90031768469E+03 0.  0.
         24    2    4    4    0    0  0.10751624127E+04 -0.19920969802E+03 -0.57044252560E+03  0.12355622082E+04  0.74502199902E+02 0.  0.
         13    1    3    3    0    0 -0.16886954293E+03  0.80692694678E+02 -0.55445661602E+01  0.18724042223E+03  0.00000000000E+00 0.  1.
        -13    1    3    3    0    0 -0.16696316133E+04  0.57016065711E+03  0.13567626443E+03  0.17695086741E+04  0.00000000000E+00 0. -1.
          4    1    5    5  502    0  0.85193939118E+03 -0.18036226602E+03 -0.47628227113E+03  0.99256036342E+03  0.00000000000E+00 0. -1.
          3    1    4    4  503    0  0.26032010053E+03 -0.24766960066E+02  0.15424361392E+03  0.30359685355E+03  0.00000000000E+00 0. -1.
         -4    1    4    4    0  503  0.50301864296E+03 -0.42687669371E+03 -0.71549157359E+02  0.66360436158E+03  0.00000000000E+00 0.  1.
         -3    1    5    5    0  502  0.22322302155E+03 -0.18847431994E+02 -0.94160254467E+02  0.24300184478E+03  0.00000000000E+00 0.  1.
<mgrwt>
<rscale>  0 0.41441109E+04</rscale>
<asrwt>0</asrwt>
<pdfrwt beam="1">  1        1 0.34747145E+00 0.41441109E+04</pdfrwt>
<pdfrwt beam="2">  1       -1 0.29245355E+00 0.41441109E+04</pdfrwt>
<totfact> 0.56805926E-02</totfact>
</mgrwt>
</event>
<event>
12    1  0.2502641E-008  0.1834002E+04  0.7818608E-02  0.8688424E-01
         -1   -1    0    0    0  501 -0.00000000000E+00  0.00000000000E+00  0.45190495812E+03  0.45190495812E+03  0.00000000000E+00 0.  1.
          1   -1    0    0  501    0  0.00000000000E+00 -0.00000000000E+00 -0.18607692185E+04  0.18607692185E+04  0.00000000000E+00 0. -1.
         23    2    1    2    0    0  0.44998132798E+02  0.11302407101E+03  0.32451833427E+03  0.35795811757E+03  0.89568923602E+02 0.  0.
        254    2    1    2    0    0 -0.44998132798E+02 -0.11302407101E+03 -0.17333825946E+04  0.19547160590E+04  0.89526553576E+03 0.  0.
        -24    2    4    4    0    0  0.23473769794E+03 -0.26548212773E+03 -0.15171019764E+04  0.15618288971E+04  0.11012969530E+03 0.  0.
         24    2    4    4    0    0 -0.27973583074E+03  0.15245805672E+03 -0.21628061820E+03  0.39288716199E+03  0.78021934008E+02 0.  0.
         11    1    3    3    0    0 -0.70407687147E+01 -0.11482232225E+02  0.53944964913E+02  0.55601019059E+02  0.00000000000E+00 0. -1.
        -11    1    3    3    0    0  0.52038901513E+02  0.12450630323E+03  0.27057336935E+03  0.30235709851E+03  0.00000000000E+00 0.  1.
          4    1    6    6  502    0 -0.24818178548E+03  0.11281074229E+03 -0.20468729784E+03  0.34090666189E+03  0.00000000000E+00 0. -1.
          1    1    5    5  503    0  0.17810142417E+03 -0.22165108743E+03 -0.13565384037E+04  0.13860179517E+04  0.00000000000E+00 0. -1.
         -2    1    5    5    0  503  0.56636273774E+02 -0.43831040299E+02 -0.16056357276E+03  0.17581094533E+03  0.00000000000E+00 0.  1.
         -3    1    6    6    0  502 -0.31554045261E+02  0.39647314429E+02 -0.11593320353E+02  0.51980500099E+02  0.00000000000E+00 0.  1.
<mgrwt>
<rscale>  0 0.18340020E+04</rscale>
<asrwt>0</asrwt>
<pdfrwt beam="1">  1        1 0.28627219E+00 0.18340020E+04</pdfrwt>
<pdfrwt beam="2">  1       -1 0.69523839E-01 0.18340020E+04</pdfrwt>
<totfact> 0.72926366E+00</totfact>
</mgrwt>
</event>
<event>
12    1  0.2502641E-008  0.2155999E+04  0.7818608E-02  0.8536969E-01
         -1   -1    0    0    0  501 -0.00000000000E+00  0.00000000000E+00  0.90102025546E+03  0.90102025546E+03  0.00000000000E+00 0.  1.
          1   -1    0    0  501    0  0.00000000000E+00 -0.00000000000E+00 -0.12897414917E+04  0.12897414917E+04  0.00000000000E+00 0. -1.
         23    2    1    2    0    0 -0.19409824272E+03 -0.86080066635E+03 -0.57269895212E+02  0.88894059281E+03  0.91014403436E+02 0.  0.
        254    2    1    2    0    0  0.19409824272E+03  0.86080066635E+03 -0.33145134100E+03  0.13018211543E+04  0.89790111449E+03 0.  0.
        -24    2    4    4    0    0  0.39382816587E+03  0.10213743411E+03  0.60169885107E+02  0.42172971315E+03  0.93289100145E+02 0.  0.
         24    2    4    4    0    0 -0.19972992315E+03  0.75866323224E+03 -0.39162122611E+03  0.88009144118E+03  0.75708770544E+02 0.  0.
         13    1    3    3    0    0 -0.12474000223E+03 -0.49491772147E+03  0.10107414395E+02  0.51049562095E+03  0.00000000000E+00 0. -1.
        -13    1    3    3    0    0 -0.69358240488E+02 -0.36588294488E+03 -0.67377309607E+02  0.37844497186E+03  0.00000000000E+00 0.  1.
          2    1    6    6  502    0 -0.19727794154E+03  0.65678444663E+03 -0.35106439147E+03  0.77040937333E+03  0.00000000000E+00 0. -1.
          1    1    5    5  503    0  0.22362261714E+03  0.97683467341E+02  0.60708604883E+02  0.25146504607E+03  0.00000000000E+00 0. -1.
         -2    1    5    5    0  503  0.17020554873E+03  0.44539667649E+01 -0.53871977573E+00  0.17026466709E+03  0.00000000000E+00 0.  1.
         -1    1    6    6    0  502 -0.24519816061E+01  0.10187878561E+03 -0.40556834638E+02  0.10968206785E+03  0.00000000000E+00 0.  1.
<mgrwt>
<rscale>  0 0.21559993E+04</rscale>
<asrwt>0</asrwt>
<pdfrwt beam="1">  1        1 0.19842177E+00 0.21559993E+04</pdfrwt>
<pdfrwt beam="2">  1       -1 0.13861850E+00 0.21559993E+04</pdfrwt>
<totfact> 0.36222922E+00</totfact>
</mgrwt>
</event>
<event>
11    1  0.2502641E-008  0.1217438E+04  0.7818608E-02  0.9097729E-01
         -1   -1    0    0    0  501 -0.00000000000E+00  0.00000000000E+00  0.28225001513E+03  0.28225001513E+03  0.00000000000E+00 0.  1.
          1   -1    0    0  501    0  0.00000000000E+00 -0.00000000000E+00 -0.13128035934E+04  0.13128035934E+04  0.00000000000E+00 0. -1.
         23    2    1    2    0    0  0.66695929550E+02  0.60294080107E+02  0.89058715947E+02  0.15602519142E+03  0.91261614915E+02 0.  0.
        254    2    1    2    0    0 -0.66695929550E+02 -0.60294080107E+02 -0.11196122942E+04  0.14390284171E+04  0.89954842714E+03 0.  0.
         24    2    4    4    0    0 -0.38706086831E+03 -0.37143575804E+02 -0.95215336021E+03  0.10315531679E+04  0.79436488848E+02 0.  0.
         11    1    3    3    0    0  0.46696806097E+02  0.13868510430E+02 -0.52786977142E+01  0.48997876799E+02  0.00000000000E+00 0. -1.
        -11    1    3    3    0    0  0.19999123453E+02  0.46425569677E+02  0.94337413661E+02  0.10702731462E+03  0.00000000000E+00 0.  1.
          4    1    5    5  502    0 -0.11707137122E+02  0.11933552717E+02 -0.62820364965E+02  0.65006653462E+02  0.00000000000E+00 0. -1.
          1    1    4    4  503    0 -0.66064532973E+01  0.17924974435E+02 -0.56679343105E+02  0.59812188294E+02  0.00000000000E+00 0. -1.
         -2    1    4    4    0  503  0.32697139206E+03 -0.41075478737E+02 -0.11077959087E+03  0.34766306093E+03  0.00000000000E+00 0.  1.
         -3    1    5    5    0  502 -0.37535373119E+03 -0.49077128521E+02 -0.88933299525E+03  0.96654651440E+03  0.00000000000E+00 0.  1.
<mgrwt>
<rscale>  0 0.12174380E+04</rscale>
<asrwt>0</asrwt>
<pdfrwt beam="1">  1        1 0.20196978E+00 0.12174380E+04</pdfrwt>
<pdfrwt beam="2">  1       -1 0.43423080E-01 0.12174380E+04</pdfrwt>
<totfact> 0.45808862E+01</totfact>
</mgrwt>
</event>
<event>
11    1  0.2502641E-008  0.2687348E+04  0.7818608E-02  0.8339122E-01
         -2   -1    0    0    0  501 -0.00000000000E+00  0.00000000000E+00  0.13875635428E+04  0.13875635428E+04  0.00000000000E+00 0. -1.
          2   -1    0    0  501    0  0.00000000000E+00 -0.00000000000E+00 -0.13011725650E+04  0.13011725650E+04  0.00000000000E+00 0.  1.
         23    2    1    2    0    0  0.12767358674E+03 -0.55355050648E+03 -0.10071139437E+04  0.11599158475E+04  0.91692800976E+02 0.  0.
        254    2    1    2    0    0 -0.12767358674E+03  0.55355050648E+03  0.10935049215E+04  0.15288202603E+04  0.90488654923E+03 0.  0.
         24    2    4    4    0    0 -0.35604719015E+02  0.78132791653E+03  0.89355758695E+03  0.11902706729E+04  0.80982123707E+02 0.  0.
         11    1    3    3    0    0  0.11220436730E+01 -0.19225301158E+03 -0.35623941781E+03  0.40480736437E+03  0.00000000000E+00 0. -1.
        -11    1    3    3    0    0  0.12655154307E+03 -0.36129749490E+03 -0.65087452587E+03  0.75510848313E+03  0.00000000000E+00 0.  1.
          4    1    5    5  502    0 -0.24482269833E+02  0.72634907587E+02  0.10484917847E+03  0.12987902665E+03  0.00000000000E+00 0. -1.
          3    1    4    4  503    0  0.18556266733E+02 -0.13957950136E+02  0.49469118495E+02  0.54647535093E+02  0.00000000000E+00 0. -1.
         -4    1    4    4    0  503 -0.11062513446E+03 -0.21381945991E+03  0.15047821607E+03  0.28390205234E+03  0.00000000000E+00 0.  1.
         -3    1    5    5    0  502 -0.11122449182E+02  0.70869300894E+03  0.78870840847E+03  0.10603916462E+04  0.00000000000E+00 0.  1.
<mgrwt>
<rscale>  0 0.26873478E+04</rscale>
<asrwt>0</asrwt>
<pdfrwt beam="1">  1        2 0.20018039E+00 0.26873478E+04</pdfrwt>
<pdfrwt beam="2">  1       -2 0.21347131E+00 0.26873478E+04</pdfrwt>
<totfact> 0.15767398E+00</totfact>
</mgrwt>
</event>
<event>
11    1  0.2502641E-008  0.1999858E+04  0.7818608E-02  0.8606687E-01
         -1   -1    0    0    0  501 -0.00000000000E+00  0.00000000000E+00  0.12597025394E+04  0.12597025394E+04  0.00000000000E+00 0.  1.
          1   -1    0    0  501    0  0.00000000000E+00 -0.00000000000E+00 -0.79372525985E+03  0.79372525985E+03  0.00000000000E+00 0. -1.
         23    2    1    2    0    0  0.26807157030E+03 -0.33022278055E+03 -0.50493732840E+03  0.66609824911E+03  0.88406562341E+02 0.  0.
        254    2    1    2    0    0 -0.26807157030E+03  0.33022278055E+03  0.97091460800E+03  0.13873295502E+04  0.89504114609E+03 0.  0.
         24    2    4    4    0    0  0.30009475845E+03  0.99083820490E+01  0.21548986605E+03  0.37816314405E+03  0.80102690745E+02 0.  0.
         13    1    3    3    0    0  0.18139283448E+03 -0.26063879200E+03 -0.32341508427E+03  0.45324745672E+03  0.00000000000E+00 0. -1.
        -13    1    3    3    0    0  0.86678735820E+02 -0.69583988546E+02 -0.18152224413E+03  0.21285079239E+03  0.00000000000E+00 0.  1.
          2    1    5    5  502    0  0.49853544073E+02  0.26072852878E+02  0.18318396841E+02  0.59166993981E+02  0.00000000000E+00 0. -1.
          1    1    4    4  503    0 -0.52184919077E+03  0.25288557282E+03  0.70585869619E+03  0.91351748196E+03  0.00000000000E+00 0. -1.
         -2    1    4    4    0  503 -0.46317137983E+02  0.67428825681E+02  0.49566045753E+02  0.95648924172E+02  0.00000000000E+00 0.  1.
         -1    1    5    5    0  502  0.25024121438E+03 -0.16164470829E+02  0.19717146921E+03  0.31899615007E+03  0.00000000000E+00 0.  1.
<mgrwt>
<rscale>  0 0.19998577E+04</rscale>
<asrwt>0</asrwt>
<pdfrwt beam="1">  1        1 0.12211158E+00 0.19998577E+04</pdfrwt>
<pdfrwt beam="2">  1       -1 0.19380039E+00 0.19998577E+04</pdfrwt>
<totfact> 0.34516278E+00</totfact>
</mgrwt>
</event>
<event>
12    1  0.2502641E-008  0.1631069E+04  0.7818608E-02  0.8801685E-01
          2   -1    0    0  501    0  0.00000000000E+00  0.00000000000E+00  0.20452073811E+04  0.20452073811E+04  0.00000000000E+00 0. -1.
         -2   -1    0    0    0  501 -0.00000000000E+00 -0.00000000000E+00 -0.32519778757E+03  0.32519778757E+03  0.00000000000E+00 0.  1.
         23    2    1    2    0    0  0.20648793187E+03 -0.51349479544E+03  0.46684264145E+03  0.72822692127E+03  0.77834606947E+02 0.  0.
        254    2    1    2    0    0 -0.20648793187E+03  0.51349479544E+03  0.12531669521E+04  0.16421782474E+04  0.90554282918E+03 0.  0.
        -24    2    4    4    0    0  0.12154618185E+03  0.56293438566E+03  0.11423360635E+04  0.12827919478E+04  0.94630346714E+02 0.  0.
         24    2    4    4    0    0 -0.32803411372E+03 -0.49439590220E+02  0.11083088858E+03  0.35938629958E+03  0.82609767078E+02 0.  0.
         11    1    3    3    0    0  0.57450373961E+02 -0.11182108602E+03  0.14791086528E+03  0.19411884198E+03  0.00000000000E+00 0. -1.
        -11    1    3    3    0    0  0.14903755791E+03 -0.40167370942E+03  0.31893177617E+03  0.53410807929E+03  0.00000000000E+00 0.  1.
          2    1    6    6  502    0 -0.59842160303E+02 -0.19200886341E+01  0.55111751824E+02  0.81376139496E+02  0.00000000000E+00 0. -1.
          1    1    5    5  503    0 -0.22241418692E+01  0.40177015182E+02  0.13877472068E+03  0.14449070024E+03  0.00000000000E+00 0. -1.
         -2    1    5    5    0  503  0.12377032372E+03  0.52275737047E+03  0.10035613428E+04  0.11383012475E+04  0.00000000000E+00 0.  1.
         -1    1    6    6    0  502 -0.26819195342E+03 -0.47519501586E+02  0.55719136754E+02  0.27801016009E+03  0.00000000000E+00 0.  1.
<mgrwt>
<rscale>  0 0.16310695E+04</rscale>
<asrwt>0</asrwt>
<pdfrwt beam="1">  1        2 0.31464728E+00 0.16310695E+04</pdfrwt>
<pdfrwt beam="2">  1       -2 0.50030430E-01 0.16310695E+04</pdfrwt>
<totfact> 0.22802555E+01</totfact>
</mgrwt>
</event>
<event>
12    1  0.3867527E-008  0.2278913E+04  0.7818608E-02  0.8486282E-01
          1   -1    0    0  501    0  0.00000000000E+00  0.00000000000E+00  0.18560636706E+04  0.18560636706E+04  0.00000000000E+00 0. -1.
         -1   -1    0    0    0  501 -0.00000000000E+00 -0.00000000000E+00 -0.69952430247E+03  0.69952430247E+03  0.00000000000E+00 0.  1.
         23    2    1    2    0    0 -0.54276970854E+03  0.57564707888E+02 -0.40373705942E+03  0.68468407722E+03  0.88746945561E+02 0.  0.
        254    2    1    2    0    0  0.54276970854E+03 -0.57564707888E+02  0.15602764275E+04  0.18709038958E+04  0.87630257619E+03 0.  0.
        -24    2    4    4    0    0 -0.38950283665E+02 -0.94090520833E+02  0.11388632171E+04  0.11473295554E+04  0.94792040153E+02 0.  0.
         24    2    4    4    0    0  0.58171999221E+03  0.36525812945E+02  0.42141321047E+03  0.72357434040E+03  0.78983845080E+02 0.  0.
         13    1    3    3    0    0 -0.30206325868E+03  0.66561385592E+02 -0.26085025108E+03  0.40461770078E+03  0.00000000000E+00 0.  1.
        -13    1    3    3    0    0 -0.24070644987E+03 -0.89966777036E+01 -0.14288680834E+03  0.28006637644E+03  0.00000000000E+00 0. -1.
          4    1    6    6  502    0  0.14360573452E+02  0.90889875986E+01  0.27512083422E+02  0.32338065800E+02  0.00000000000E+00 0. -1.
          3    1    5    5  503    0  0.77238318658E+01  0.73369423917E+01  0.17978091093E+02  0.20897369731E+02  0.00000000000E+00 0. -1.
         -4    1    5    5    0  503 -0.46674115531E+02 -0.10142746322E+03  0.11208851260E+04  0.11264321857E+04  0.00000000000E+00 0.  1.
         -3    1    6    6    0  502  0.56735941876E+03  0.27436825346E+02  0.39390112704E+03  0.69123627460E+03  0.00000000000E+00 0.  1.
<mgrwt>
<rscale>  0 0.22789135E+04</rscale>
<asrwt>0</asrwt>
<pdfrwt beam="1">  1        1 0.28554826E+00 0.22789135E+04</pdfrwt>
<pdfrwt beam="2">  1       -1 0.10761912E+00 0.22789135E+04</pdfrwt>
<totfact> 0.27152735E+00</totfact>
</mgrwt>
</event>
<event>
11    1  0.2502641E-008  0.2426777E+04  0.7818608E-02  0.8429546E-01
         -1   -1    0    0    0  501 -0.00000000000E+00  0.00000000000E+00  0.90165126523E+03  0.90165126523E+03  0.00000000000E+00 0.  1.
          1   -1    0    0  501    0  0.00000000000E+00 -0.00000000000E+00 -0.16329055167E+04  0.16329055167E+04  0.00000000000E+00 0. -1.
         23    2    1    2    0    0  0.29382077782E+03 -0.23184406913E+03 -0.13350847671E+04  0.13896005660E+04  0.91956924671E+02 0.  0.
        254    2    1    2    0    0 -0.29382077782E+03  0.23184406913E+03  0.60383051555E+03  0.11449562159E+04  0.89790373817E+03 0.  0.
         24    2    4    4    0    0  0.21061098516E+03 -0.13027022873E+03 -0.75853296880E+01  0.26032954977E+03  0.79916316808E+02 0.  0.
         11    1    3    3    0    0  0.26640243883E+03 -0.23349184730E+03 -0.11772177614E+04  0.12293617693E+04  0.00000000000E+00 0. -1.
        -11    1    3    3    0    0  0.27418338988E+02  0.16477781672E+01 -0.15786700568E+03  0.16023879670E+03  0.00000000000E+00 0.  1.
          2    1    5    5  502    0  0.11228203735E+03 -0.10884711581E+03 -0.24481180044E+02  0.15828543429E+03  0.00000000000E+00 0. -1.
          3    1    4    4  503    0 -0.40353408350E+03  0.25990375898E+03  0.54547622395E+03  0.72659069040E+03  0.00000000000E+00 0. -1.
         -4    1    4    4    0  503 -0.10089767947E+03  0.10221053889E+03  0.65939621290E+02  0.15803597577E+03  0.00000000000E+00 0.  1.
         -1    1    5    5    0  502  0.98328947808E+02 -0.21423112921E+02  0.16895850356E+02  0.10204411548E+03  0.00000000000E+00 0.  1.
<mgrwt>
<rscale>  0 0.24267767E+04</rscale>
<asrwt>0</asrwt>
<pdfrwt beam="1">  1        1 0.25121623E+00 0.24267767E+04</pdfrwt>
<pdfrwt beam="2">  1       -1 0.13871558E+00 0.24267767E+04</pdfrwt>
<totfact> 0.20335600E+00</totfact>
</mgrwt>
</event>
<event>
12    1  0.2502641E-008  0.1655606E+04  0.7818608E-02  0.8787097E-01
         -1   -1    0    0    0  501 -0.00000000000E+00  0.00000000000E+00  0.67237307002E+03  0.67237307002E+03  0.00000000000E+00 0.  1.
          1   -1    0    0  501    0  0.00000000000E+00 -0.00000000000E+00 -0.10191636425E+04  0.10191636425E+04  0.00000000000E+00 0. -1.
         23    2    1    2    0    0  0.23554687831E+03 -0.25426354484E+03 -0.60052266281E+03  0.70262973581E+03  0.11370485908E+03 0.  0.
        254    2    1    2    0    0 -0.23554687831E+03  0.25426354484E+03  0.25373209038E+03  0.98890697666E+03  0.89074393216E+03 0.  0.
        -24    2    4    4    0    0 -0.92805895764E+02 -0.17155260128E+03  0.44385318795E+03  0.49463920838E+03  0.98076830694E+02 0.  0.
         24    2    4    4    0    0 -0.14274098255E+03  0.42581614612E+03 -0.19012109757E+03  0.49426776828E+03  0.80375472747E+02 0.  0.
         13    1    3    3    0    0  0.15266525854E+03 -0.16893211630E+03 -0.48970883872E+03  0.54005507849E+03  0.00000000000E+00 0. -1.
        -13    1    3    3    0    0  0.82881619774E+02 -0.85331428543E+02 -0.11081382409E+03  0.16257465732E+03  0.00000000000E+00 0.  1.
          4    1    6    6  502    0 -0.60524366332E+01  0.12616806822E+03 -0.63911997143E+02  0.14156184799E+03  0.00000000000E+00 0. -1.
          1    1    5    5  503    0 -0.10966066951E+03 -0.12553609894E+03  0.30792133132E+03  0.35014328618E+03  0.00000000000E+00 0. -1.
         -2    1    5    5    0  503  0.16854773747E+02 -0.46016502333E+02  0.13593185663E+03  0.14449592220E+03  0.00000000000E+00 0.  1.
         -1    1    6    6    0  502 -0.13668854592E+03  0.29964807790E+03 -0.12620910043E+03  0.35270592029E+03  0.00000000000E+00 0.  1.
<mgrwt>
<rscale>  0 0.16556065E+04</rscale>
<asrwt>0</asrwt>
<pdfrwt beam="1">  1        1 0.15679441E+00 0.16556065E+04</pdfrwt>
<pdfrwt beam="2">  1       -1 0.10344201E+00 0.16556065E+04</pdfrwt>
<totfact> 0.12311346E+01</totfact>
</mgrwt>
</event>
<event>
12    1  0.2576936E-008  0.2834604E+04  0.7818608E-02  0.8292605E-01
          2   -1    0    0  501    0  0.00000000000E+00  0.00000000000E+00  0.32093371081E+04  0.32093371081E+04  0.00000000000E+00 0. -1.
         -2   -1    0    0    0  501 -0.00000000000E+00 -0.00000000000E+00 -0.62590633798E+03  0.62590633798E+03  0.00000000000E+00 0.  1.
         23    2    1    2    0    0  0.30932723805E+02  0.17542699882E+03  0.28755891668E+04  0.28825523112E+04  0.91451106317E+02 0.  0.
        254    2    1    2    0    0 -0.30932723805E+02 -0.17542699882E+03 -0.29215839670E+03  0.95269113493E+03  0.88911889221E+03 0.  0.
        -24    2    4    4    0    0 -0.36227241943E+03 -0.36133629986E+03 -0.20861169114E+03  0.55546956312E+03  0.56765926409E+02 0.  0.
         24    2    4    4    0    0  0.33133969562E+03  0.18590930104E+03 -0.83546705560E+02  0.39722157181E+03  0.80353363289E+02 0.  0.
         11    1    3    3    0    0 -0.16329837884E+02  0.11926593683E+03  0.21171430505E+04  0.21205625960E+04  0.00000000000E+00 0. -1.
        -11    1    3    3    0    0  0.47262561688E+02  0.56161061994E+02  0.75844611634E+03  0.76198971516E+03  0.00000000000E+00 0.  1.
          2    1    6    6  502    0  0.16081184684E+03  0.60057355899E+02 -0.68249683479E+02  0.18473049390E+03  0.00000000000E+00 0. -1.
          1    1    5    5  503    0 -0.10411413991E+03 -0.70304593595E+02 -0.45214289486E+02  0.13351712243E+03  0.00000000000E+00 0. -1.
         -2    1    5    5    0  503 -0.25815827952E+03 -0.29103170626E+03 -0.16339740166E+03  0.42195244069E+03  0.00000000000E+00 0.  1.
         -1    1    6    6    0  502  0.17052784878E+03  0.12585194514E+03 -0.15297022080E+02  0.21249107790E+03  0.00000000000E+00 0.  1.
<mgrwt>
<rscale>  0 0.28346036E+04</rscale>
<asrwt>0</asrwt>
<pdfrwt beam="1">  1        2 0.49374416E+00 0.28346036E+04</pdfrwt>
<pdfrwt beam="2">  1       -2 0.96293285E-01 0.28346036E+04</pdfrwt>
<totfact> 0.10013679E+00</totfact>
</mgrwt>
</event>
<event>
12    1  0.2502641E-008  0.1023751E+04  0.7818608E-02  0.9282872E-01
         -1   -1    0    0    0  501 -0.00000000000E+00  0.00000000000E+00  0.31692692388E+03  0.31692692388E+03  0.00000000000E+00 0.  1.
          1   -1    0    0  501    0  0.00000000000E+00 -0.00000000000E+00 -0.82674168022E+03  0.82674168022E+03  0.00000000000E+00 0. -1.
         23    2    1    2    0    0 -0.14855069892E+02 -0.31272019350E+02  0.51312125788E+01  0.96045870353E+02  0.89441978812E+02 0.  0.
        254    2    1    2    0    0  0.14855069892E+02  0.31272019350E+02 -0.51494596892E+03  0.10476227338E+04  0.91167177706E+03 0.  0.
        -24    2    4    4    0    0 -0.26228434746E+03  0.97551006962E+01 -0.66361265733E+03  0.72218969329E+03  0.11085104065E+03 0.  0.
         24    2    4    4    0    0  0.27713941735E+03  0.21516918654E+02  0.14866668841E+03  0.32543304047E+03  0.80843337083E+02 0.  0.
         11    1    3    3    0    0 -0.24977409361E+02  0.24410066703E+02 -0.11978183296E+02  0.36921527730E+02  0.00000000000E+00 0. -1.
        -11    1    3    3    0    0  0.10122339469E+02 -0.55682086053E+02  0.17109395875E+02  0.59124342624E+02  0.00000000000E+00 0.  1.
          4    1    6    6  502    0  0.24047457409E+02  0.22396892683E+02  0.20198161441E+01  0.32923861666E+02  0.00000000000E+00 0. -1.
          3    1    5    5  503    0 -0.10995405381E+03 -0.49133556777E+02 -0.31431708945E+03  0.33659951436E+03  0.00000000000E+00 0. -1.
         -4    1    5    5    0  503 -0.15233029365E+03  0.58888657473E+02 -0.34929556788E+03  0.38559017893E+03  0.00000000000E+00 0.  1.
         -3    1    6    6    0  502  0.25309195994E+03 -0.87997402945E+00  0.14664687226E+03  0.29250917880E+03  0.00000000000E+00 0.  1.
<mgrwt>
<rscale>  0 0.10237513E+04</rscale>
<asrwt>0</asrwt>
<pdfrwt beam="1">  1        1 0.12719103E+00 0.10237513E+04</pdfrwt>
<pdfrwt beam="2">  1       -1 0.48757988E-01 0.10237513E+04</pdfrwt>
<totfact> 0.88334330E+01</totfact>
</mgrwt>
</event>
<event>
11    1  0.2502641E-008  0.1603586E+04  0.7818608E-02  0.8818348E-01
          2   -1    0    0  501    0  0.00000000000E+00  0.00000000000E+00  0.21544471286E+04  0.21544471286E+04  0.00000000000E+00 0. -1.
         -2   -1    0    0    0  501 -0.00000000000E+00 -0.00000000000E+00 -0.29839285347E+03  0.29839285347E+03  0.00000000000E+00 0.  1.
         23    2    1    2    0    0  0.54800975817E+02 -0.51078877917E+03  0.41169553725E+03  0.66466645320E+03  0.91542092694E+02 0.  0.
        254    2    1    2    0    0 -0.54800975817E+02  0.51078877917E+03  0.14443587379E+04  0.17881735289E+04  0.92058898636E+03 0.  0.
         24    2    4    4    0    0  0.55393225421E+02  0.53713375479E+03  0.14439724169E+04  0.15436955274E+04  0.79739956599E+02 0.  0.
         11    1    3    3    0    0  0.18874069094E+02 -0.25592349725E+03  0.14827082521E+03  0.29637358948E+03  0.00000000000E+00 0.  1.
        -11    1    3    3    0    0  0.35926906723E+02 -0.25486528192E+03  0.26342471204E+03  0.36829286372E+03  0.00000000000E+00 0. -1.
          2    1    5    5  502    0 -0.73490962248E+01  0.59958339471E+01  0.13405316391E+02  0.16421380806E+02  0.00000000000E+00 0. -1.
          3    1    4    4  503    0  0.57352411867E+02  0.61547042707E+00  0.40358667980E+02  0.70132018593E+02  0.00000000000E+00 0. -1.
         -4    1    4    4    0  503 -0.16754661311E+03 -0.26960446044E+02 -0.39972346998E+02  0.17434598286E+03  0.00000000000E+00 0.  1.
         -1    1    5    5    0  502  0.62742321646E+02  0.53113792084E+03  0.14305671005E+04  0.15272741466E+04  0.00000000000E+00 0.  1.
<mgrwt>
<rscale>  0 0.16035855E+04</rscale>
<asrwt>0</asrwt>
<pdfrwt beam="1">  1        2 0.33145339E+00 0.16035855E+04</pdfrwt>
<pdfrwt beam="2">  1       -2 0.45906594E-01 0.16035855E+04</pdfrwt>
<totfact> 0.23641054E+01</totfact>
</mgrwt>
</event>
<event>
12    1  0.2502641E-008  0.2211320E+04  0.7818608E-02  0.8513731E-01
          2   -1    0    0  501    0  0.00000000000E+00  0.00000000000E+00  0.20215630828E+04  0.20215630828E+04  0.00000000000E+00 0.  1.
         -2   -1    0    0    0  501 -0.00000000000E+00 -0.00000000000E+00 -0.60472192950E+03  0.60472192950E+03  0.00000000000E+00 0. -1.
         23    2    1    2    0    0 -0.47576396612E+03  0.15474491723E+03 -0.32520081373E+03  0.60412751991E+03  0.94430663408E+02 0.  0.
        254    2    1    2    0    0  0.47576396612E+03 -0.15474491723E+03  0.17420419671E+04  0.20221574924E+04  0.89672368556E+03 0.  0.
        -24    2    4    4    0    0  0.61914059329E+03 -0.19937434952E+03  0.66519920043E+03  0.93198213933E+03  0.54913807642E+02 0.  0.
         24    2    4    4    0    0 -0.14337662717E+03  0.44629432286E+02  0.10768427666E+04  0.10901753531E+04  0.79644918022E+02 0.  0.
         11    1    3    3    0    0 -0.20203936980E+03  0.11405109736E+03 -0.16010962715E+03  0.28189120678E+03  0.00000000000E+00 0. -1.
        -11    1    3    3    0    0 -0.27372459632E+03  0.40693819872E+02 -0.16509118659E+03  0.32223631312E+03  0.00000000000E+00 0.  1.
          4    1    6    6  502    0 -0.62059958033E+02 -0.17274607356E+02  0.52624214079E+03  0.53017038883E+03  0.00000000000E+00 0. -1.
          1    1    5    5  503    0  0.35004189416E+02 -0.35285549531E+01  0.22937831087E+02  0.41998667499E+02  0.00000000000E+00 0. -1.
         -2    1    5    5    0  503  0.58413640388E+03 -0.19584579457E+03  0.64226136934E+03  0.88998347183E+03  0.00000000000E+00 0.  1.
         -3    1    6    6    0  502 -0.81316669142E+02  0.61904039642E+02  0.55060062586E+03  0.56000496426E+03  0.00000000000E+00 0.  1.
<mgrwt>
<rscale>  0 0.22113195E+04</rscale>
<asrwt>0</asrwt>
<pdfrwt beam="1">  1        2 0.31100970E+00 0.22113195E+04</pdfrwt>
<pdfrwt beam="2">  1       -2 0.93034144E-01 0.22113195E+04</pdfrwt>
<totfact> 0.58073653E+00</totfact>
</mgrwt>
</event>
<event>
12    1  0.2502641E-008  0.2018545E+04  0.7818608E-02  0.8597999E-01
          2   -1    0    0  501    0  0.00000000000E+00  0.00000000000E+00  0.90518693625E+03  0.90518693625E+03  0.00000000000E+00 0. -1.
         -2   -1    0    0    0  501 -0.00000000000E+00 -0.00000000000E+00 -0.11253264850E+04  0.11253264850E+04  0.00000000000E+00 0.  1.
         23    2    1    2    0    0 -0.23088262981E+03 -0.76190036157E+03 -0.18559219367E+03  0.82254034707E+03  0.91264508489E+02 0.  0.
        254    2    1    2    0    0  0.23088262981E+03  0.76190036157E+03 -0.34547355087E+02  0.12079730742E+04  0.90785818195E+03 0.  0.
        -24    2    4    4    0    0 -0.25389332085E+03  0.98942510898E+02 -0.21384054949E+03  0.36348432584E+03  0.11018909059E+03 0.  0.
         24    2    4    4    0    0  0.48477595067E+03  0.66295785067E+03  0.17929319440E+03  0.84448874836E+03  0.80587607230E+02 0.  0.
         11    1    3    3    0    0 -0.20142597031E+03 -0.72921634775E+03 -0.18366072435E+03  0.77849866089E+03  0.00000000000E+00 0. -1.
        -11    1    3    3    0    0 -0.29456659499E+02 -0.32684013815E+02 -0.19314693215E+01  0.44041686181E+02  0.00000000000E+00 0.  1.
          4    1    6    6  502    0  0.23995107283E+03  0.36447717789E+03  0.12991327776E+03  0.45529945124E+03  0.00000000000E+00 0. -1.
          1    1    5    5  503    0 -0.15943000564E+03  0.46744395766E+02 -0.62295800773E+02  0.17743655776E+03  0.00000000000E+00 0. -1.
         -2    1    5    5    0  503 -0.94463315213E+02  0.52198115131E+02 -0.15154474872E+03  0.18604776808E+03  0.00000000000E+00 0.  1.
         -3    1    6    6    0  502  0.24482487783E+03  0.29848067278E+03  0.49379916640E+02  0.38918929712E+03  0.00000000000E+00 0.  1.
<mgrwt>
<rscale>  0 0.20185449E+04</rscale>
<asrwt>0</asrwt>
<pdfrwt beam="1">  1        2 0.13925953E+00 0.20185449E+04</pdfrwt>
<pdfrwt beam="2">  1       -2 0.17312715E+00 0.20185449E+04</pdfrwt>
<totfact> 0.54630006E+00</totfact>
</mgrwt>
</event>
<event>
11    1  0.2502641E-008  0.1481886E+04  0.7818608E-02  0.8896589E-01
          2   -1    0    0  501    0  0.00000000000E+00  0.00000000000E+00  0.16432726111E+04  0.16432726111E+04  0.00000000000E+00 0. -1.
         -2   -1    0    0    0  501 -0.00000000000E+00 -0.00000000000E+00 -0.33408736177E+03  0.33408736177E+03  0.00000000000E+00 0.  1.
         23    2    1    2    0    0  0.18674035701E+03 -0.77853178324E+01 -0.16136212811E+03  0.26392396200E+03  0.93196294033E+02 0.  0.
        254    2    1    2    0    0 -0.18674035701E+03  0.77853178324E+01  0.14705473775E+04  0.17134360109E+04  0.85931414625E+03 0.  0.
         24    2    4    4    0    0 -0.22425490900E+03  0.84531931942E+02  0.15165544857E+04  0.15374040642E+04  0.78979976499E+02 0.  0.
         11    1    3    3    0    0  0.72533642964E+02  0.14281315484E+02 -0.12451237407E+02  0.74967450581E+02  0.00000000000E+00 0. -1.
        -11    1    3    3    0    0  0.11420671405E+03 -0.22066633317E+02 -0.14891089070E+03  0.18895651142E+03  0.00000000000E+00 0.  1.
          2    1    5    5  502    0 -0.16496240434E+03  0.89946176784E+02  0.12663574270E+04  0.12802203101E+04  0.00000000000E+00 0. -1.
          1    1    4    4  503    0  0.83602207773E+01 -0.92241811147E+02  0.26521329281E+02  0.96342233324E+02  0.00000000000E+00 0. -1.
         -4    1    4    4    0  503  0.29154331212E+02  0.15495197037E+02 -0.72528437563E+02  0.79689713357E+02  0.00000000000E+00 0.  1.
         -1    1    5    5    0  502 -0.59292504658E+02 -0.54142448415E+01  0.25019705879E+03  0.25718375412E+03  0.00000000000E+00 0.  1.
<mgrwt>
<rscale>  0 0.14818861E+04</rscale>
<asrwt>0</asrwt>
<pdfrwt beam="1">  1        2 0.25281117E+00 0.14818861E+04</pdfrwt>
<pdfrwt beam="2">  1       -2 0.51398057E-01 0.14818861E+04</pdfrwt>
<totfact> 0.36490643E+01</totfact>
</mgrwt>
</event>
<event>
11    1  0.2502641E-008  0.1019600E+04  0.7818608E-02  0.9287305E-01
         -2   -1    0    0    0  501 -0.00000000000E+00  0.00000000000E+00  0.46272155826E+03  0.46272155826E+03  0.00000000000E+00 0. -1.
          2   -1    0    0  501    0  0.00000000000E+00 -0.00000000000E+00 -0.56166854419E+03  0.56166854419E+03  0.00000000000E+00 0.  1.
         23    2    1    2    0    0  0.31818716974E+02  0.74654607931E+02 -0.31964337540E+02  0.12730353246E+03  0.92729333367E+02 0.  0.
        254    2    1    2    0    0 -0.31818716974E+02 -0.74654607931E+02 -0.66982648393E+02  0.89708656999E+03  0.89089387563E+03 0.  0.
         24    2    4    4    0    0 -0.67899199531E+02 -0.18585274284E+02 -0.40262455528E+03  0.41618807523E+03  0.78423642647E+02 0.  0.
         13    1    3    3    0    0  0.59401292693E+02  0.42999489171E+02 -0.41483500813E+02  0.84251709077E+02  0.00000000000E+00 0.  1.
        -13    1    3    3    0    0 -0.27582575719E+02  0.31655118760E+02  0.95191632737E+01  0.43051823381E+02  0.00000000000E+00 0. -1.
          4    1    5    5  502    0 -0.67990099807E+02 -0.34361563425E+02 -0.21870004319E+03  0.23158816810E+03  0.00000000000E+00 0. -1.
          1    1    4    4  503    0 -0.10696458932E+03 -0.12152534562E+03  0.26015266825E+03  0.30641351764E+03  0.00000000000E+00 0. -1.
         -2    1    4    4    0  503  0.14304507187E+03  0.65456011973E+02  0.75489238642E+02  0.17448497712E+03  0.00000000000E+00 0.  1.
         -3    1    5    5    0  502  0.90900276574E-01  0.15776289141E+02 -0.18392451210E+03  0.18459990713E+03  0.00000000000E+00 0.  1.
<mgrwt>
<rscale>  0 0.10196002E+04</rscale>
<asrwt>0</asrwt>
<pdfrwt beam="1">  1        2 0.86410545E-01 0.10196002E+04</pdfrwt>
<pdfrwt beam="2">  1       -2 0.71187932E-01 0.10196002E+04</pdfrwt>
<totfact> 0.96018227E+01</totfact>
</mgrwt>
</event>
<event>
11    1  0.2502641E-008  0.1196827E+04  0.7818608E-02  0.9115639E-01
          2   -1    0    0  501    0  0.00000000000E+00  0.00000000000E+00  0.82691480993E+03  0.82691480993E+03  0.00000000000E+00 0. -1.
         -2   -1    0    0    0  501 -0.00000000000E+00 -0.00000000000E+00 -0.43305361180E+03  0.43305361180E+03  0.00000000000E+00 0.  1.
         23    2    1    2    0    0  0.15851067673E+03 -0.12347186411E+03  0.23342750457E+03  0.32133865550E+03  0.91647126345E+02 0.  0.
        254    2    1    2    0    0 -0.15851067673E+03  0.12347186411E+03  0.16043369356E+03  0.93862976623E+03  0.90272694219E+03 0.  0.
         24    2    4    4    0    0  0.42974000884E+02  0.25061938004E+03 -0.20558285812E+03  0.33631534913E+03  0.78656621499E+02 0.  0.
         13    1    3    3    0    0  0.15832994064E+03 -0.13448156672E+03  0.22972600953E+03  0.30972197427E+03  0.00000000000E+00 0. -1.
        -13    1    3    3    0    0  0.18073608834E+00  0.11009702618E+02  0.37014950385E+01  0.11616681230E+02  0.00000000000E+00 0.  1.
          2    1    5    5  502    0 -0.12383165529E+02  0.71608056075E+02 -0.27162416082E+02  0.77581269200E+02  0.00000000000E+00 0. -1.
          1    1    4    4  503    0  0.98259245975E+02 -0.13381626287E+03  0.19885047331E+03  0.25904281956E+03  0.00000000000E+00 0. -1.
         -2    1    4    4    0  503 -0.29974392359E+03  0.66687469382E+01  0.16716607837E+03  0.34327159753E+03  0.00000000000E+00 0.  1.
         -1    1    5    5    0  502  0.55357166413E+02  0.17901132397E+03 -0.17842044204E+03  0.25873407993E+03  0.00000000000E+00 0.  1.
<mgrwt>
<rscale>  0 0.11968265E+04</rscale>
<asrwt>0</asrwt>
<pdfrwt beam="1">  1        2 0.12721766E+00 0.11968265E+04</pdfrwt>
<pdfrwt beam="2">  1       -2 0.66623633E-01 0.11968265E+04</pdfrwt>
<totfact> 0.67339891E+01</totfact>
</mgrwt>
</event>
<event>
11    1  0.2502641E-008  0.3384249E+04  0.7818608E-02  0.8141783E-01
         -2   -1    0    0    0  501 -0.00000000000E+00  0.00000000000E+00  0.87514572297E+03  0.87514572297E+03  0.00000000000E+00 0.  1.
          2   -1    0    0  501    0  0.00000000000E+00 -0.00000000000E+00 -0.32717813154E+04  0.32717813154E+04  0.00000000000E+00 0. -1.
         23    2    1    2    0    0  0.86217794097E+03 -0.89102140044E+02  0.49154736416E+03  0.10009447709E+04  0.94771461134E+02 0.  0.
        254    2    1    2    0    0 -0.86217794097E+03  0.89102140044E+02 -0.28881829566E+04  0.31459822675E+04  0.89683534911E+03 0.  0.
         24    2    4    4    0    0 -0.75134805473E+03 -0.97515588604E+02 -0.10988899885E+04  0.13371335518E+04  0.79584793118E+02 0.  0.
         13    1    3    3    0    0  0.63182762899E+03 -0.10524804631E+03  0.37592520947E+03  0.74269984995E+03  0.00000000000E+00 0.  1.
        -13    1    3    3    0    0  0.23035031198E+03  0.16145906270E+02  0.11562215469E+03  0.25824492091E+03  0.00000000000E+00 0. -1.
          4    1    5    5  502    0 -0.65552033514E+03 -0.10841136091E+03 -0.98080475697E+03  0.11846678455E+04  0.00000000000E+00 0. -1.
          3    1    4    4  503    0 -0.83952904572E+02  0.19883744368E+03 -0.12311858744E+04  0.12499612300E+04  0.00000000000E+00 0. -1.
         -4    1    4    4    0  503 -0.26876981673E+02 -0.12219715030E+02 -0.55810709371E+03  0.55888748566E+03  0.00000000000E+00 0.  1.
         -3    1    5    5    0  502 -0.95827719591E+02  0.10895772309E+02 -0.11808523151E+03  0.15246570630E+03  0.00000000000E+00 0.  1.
<mgrwt>
<rscale>  0 0.33842491E+04</rscale>
<asrwt>0</asrwt>
<pdfrwt beam="1">  1        2 0.50335097E+00 0.33842491E+04</pdfrwt>
<pdfrwt beam="2">  1       -2 0.13463780E+00 0.33842491E+04</pdfrwt>
<totfact> 0.38280684E-01</totfact>
</mgrwt>
</event>
<event>
11    1  0.2502641E-008  0.1156132E+04  0.7818608E-02  0.9152145E-01
         -2   -1    0    0    0  501 -0.00000000000E+00  0.00000000000E+00  0.15958663883E+03  0.15958663883E+03  0.00000000000E+00 0.  1.
          2   -1    0    0  501    0  0.00000000000E+00 -0.00000000000E+00 -0.20939111696E+04  0.20939111696E+04  0.00000000000E+00 0. -1.
         23    2    1    2    0    0  0.98044908898E+02 -0.37853480503E+02 -0.74635495761E+03  0.75881095112E+03  0.87764723206E+02 0.  0.
        254    2    1    2    0    0 -0.98044908898E+02  0.37853480503E+02 -0.11879695731E+04  0.14946868573E+04  0.90098357616E+03 0.  0.
         24    2    4    4    0    0 -0.41440074251E+03 -0.96473262248E+02 -0.45364273390E+03  0.62756642230E+03  0.83742573748E+02 0.  0.
         11    1    3    3    0    0  0.10554460018E+03 -0.17433862436E+02 -0.49033635646E+03  0.50186984832E+03  0.00000000000E+00 0. -1.
        -11    1    3    3    0    0 -0.74996912849E+01 -0.20419618068E+02 -0.25601860115E+03  0.25694110279E+03  0.00000000000E+00 0.  1.
          2    1    5    5  502    0 -0.23582855177E+03 -0.32916303216E+02 -0.30349940879E+03  0.38575961424E+03  0.00000000000E+00 0. -1.
          1    1    4    4  503    0  0.36790604571E+03  0.12118725484E+03 -0.70963811242E+03  0.80847229996E+03  0.00000000000E+00 0. -1.
         -2    1    4    4    0  503 -0.51550212098E+02  0.13139487913E+02 -0.24688726800E+02  0.58648135017E+02  0.00000000000E+00 0.  1.
         -1    1    5    5    0  502 -0.17857219073E+03 -0.63556959033E+02 -0.15014332511E+03  0.24180680805E+03  0.00000000000E+00 0.  1.
<mgrwt>
<rscale>  0 0.11561319E+04</rscale>
<asrwt>0</asrwt>
<pdfrwt beam="1">  1        2 0.32214018E+00 0.11561319E+04</pdfrwt>
<pdfrwt beam="2">  1       -2 0.24551790E-01 0.11561319E+04</pdfrwt>
<totfact> 0.87085315E+01</totfact>
</mgrwt>
</event>
<event>
11    1  0.2502641E-008  0.1148441E+04  0.7818608E-02  0.9159223E-01
          2   -1    0    0  501    0  0.00000000000E+00  0.00000000000E+00  0.13543316509E+04  0.13543316509E+04  0.00000000000E+00 0. -1.
         -2   -1    0    0    0  501 -0.00000000000E+00 -0.00000000000E+00 -0.24346267635E+03  0.24346267635E+03  0.00000000000E+00 0.  1.
         23    2    1    2    0    0  0.18244778326E+03 -0.64792049946E+02  0.61044181784E+02  0.22266634003E+03  0.91480618159E+02 0.  0.
        254    2    1    2    0    0 -0.18244778326E+03  0.64792049946E+02  0.10498247927E+04  0.13751279872E+04  0.86681006129E+03 0.  0.
         24    2    4    4    0    0 -0.50201118465E+03  0.15291990441E+02  0.44572771687E+03  0.67621130772E+03  0.79620729805E+02 0.  0.
         11    1    3    3    0    0  0.66689584516E+02 -0.11049152319E+02  0.66632946891E+02  0.94918565419E+02  0.00000000000E+00 0. -1.
        -11    1    3    3    0    0  0.11575819875E+03 -0.53742897627E+02 -0.55887651072E+01  0.12774777461E+03  0.00000000000E+00 0.  1.
          4    1    5    5  502    0 -0.13485424686E+02 -0.11084006026E+02  0.27513961935E+02  0.32584198163E+02  0.00000000000E+00 0. -1.
          1    1    4    4  503    0  0.11320164379E+03 -0.28334562179E+02  0.31052315279E+03  0.33172592300E+03  0.00000000000E+00 0. -1.
         -2    1    4    4    0  503  0.20636175759E+03  0.77834621685E+02  0.29357392307E+03  0.36719075647E+03  0.00000000000E+00 0.  1.
         -3    1    5    5    0  502 -0.48852575996E+03  0.26375996467E+02  0.41821375494E+03  0.64362710956E+03  0.00000000000E+00 0.  1.
<mgrwt>
<rscale>  0 0.11484410E+04</rscale>
<asrwt>0</asrwt>
<pdfrwt beam="1">  1        2 0.20835871E+00 0.11484410E+04</pdfrwt>
<pdfrwt beam="2">  1       -2 0.37455797E-01 0.11484410E+04</pdfrwt>
<totfact> 0.10222934E+02</totfact>
</mgrwt>
</event>
<event>
11    1  0.2502641E-008  0.2281397E+04  0.7818608E-02  0.8485292E-01
         -2   -1    0    0    0  501 -0.00000000000E+00  0.00000000000E+00  0.70907655105E+03  0.70907655105E+03  0.00000000000E+00 0.  1.
          2   -1    0    0  501    0  0.00000000000E+00 -0.00000000000E+00 -0.18350537376E+04  0.18350537376E+04  0.00000000000E+00 0. -1.
         23    2    1    2    0    0  0.86908475051E+03 -0.12515139144E+03 -0.90121100038E+03  0.12616276444E+04  0.92476330243E+02 0.  0.
        254    2    1    2    0    0 -0.86908475051E+03  0.12515139144E+03 -0.22476618619E+03  0.12825026442E+04  0.90737093828E+03 0.  0.
         24    2    4    4    0    0 -0.33908881677E+03 -0.33716646814E+03  0.10808721791E+03  0.49612925264E+03  0.76150743609E+02 0.  0.
         13    1    3    3    0    0 -0.11173394316E+01 -0.22913200494E+01  0.37765773414E+00  0.25770565260E+01  0.00000000000E+00 0.  1.
        -13    1    3    3    0    0  0.87020208994E+03 -0.12286007139E+03 -0.90158865811E+03  0.12590505879E+04  0.00000000000E+00 0. -1.
          2    1    5    5  502    0 -0.26210439990E+03 -0.22346506331E+03  0.54445993491E+02  0.34871150995E+03  0.00000000000E+00 0. -1.
          1    1    4    4  503    0 -0.45793599366E+03  0.43980152363E+03 -0.27835421681E+03  0.69326172871E+03  0.00000000000E+00 0. -1.
         -2    1    4    4    0  503 -0.72059940082E+02  0.22516335947E+02 -0.54499187285E+02  0.93111662878E+02  0.00000000000E+00 0.  1.
         -1    1    5    5    0  502 -0.76984416867E+02 -0.11370140483E+03  0.53641224420E+02  0.14741774268E+03  0.00000000000E+00 0.  1.
<mgrwt>
<rscale>  0 0.22813974E+04</rscale>
<asrwt>0</asrwt>
<pdfrwt beam="1">  1        2 0.28231596E+00 0.22813974E+04</pdfrwt>
<pdfrwt beam="2">  1       -2 0.10908870E+00 0.22813974E+04</pdfrwt>
<totfact> 0.50223925E+00</totfact>
</mgrwt>
</event>
<event>
11    1  0.2502641E-008  0.1438821E+04  0.7818608E-02  0.8926188E-01
         -1   -1    0    0    0  501 -0.00000000000E+00  0.00000000000E+00  0.47182080655E+03  0.47182080655E+03  0.00000000000E+00 0.  1.
          1   -1    0    0  501    0  0.00000000000E+00 -0.00000000000E+00 -0.10969230844E+04  0.10969230844E+04  0.00000000000E+00 0. -1.
         23    2    1    2    0    0  0.12011389006E+03 -0.37947251345E+03 -0.35917817577E+03  0.54376275305E+03  0.90786753518E+02 0.  0.
        254    2    1    2    0    0 -0.12011389006E+03  0.37947251345E+03 -0.26592410205E+03  0.10249811378E+04  0.90633546209E+03 0.  0.
         24    2    4    4    0    0 -0.32299043427E+03  0.52796595558E+03 -0.37462464160E+03  0.72799375017E+03  0.80996341381E+02 0.  0.
         13    1    3    3    0    0  0.81476162388E+01 -0.13059730221E+03 -0.15552355790E+03  0.20324767171E+03  0.00000000000E+00 0. -1.
        -13    1    3    3    0    0  0.11196627382E+03 -0.24887521124E+03 -0.20365461787E+03  0.34051508134E+03  0.00000000000E+00 0.  1.
          4    1    5    5  502    0 -0.82307760505E+00  0.23101938409E+01 -0.13014743721E+02  0.13243791241E+02  0.00000000000E+00 0. -1.
          3    1    4    4  503    0  0.47986702130E+02 -0.10291240783E+03  0.59529320716E+02  0.12820853050E+03  0.00000000000E+00 0. -1.
         -4    1    4    4    0  503  0.15488984208E+03 -0.45581034299E+02  0.49171218836E+02  0.16877885718E+03  0.00000000000E+00 0.  1.
         -3    1    5    5    0  502 -0.32216735667E+03  0.52565576174E+03 -0.36160989788E+03  0.71474995893E+03  0.00000000000E+00 0.  1.
<mgrwt>
<rscale>  0 0.14388205E+04</rscale>
<asrwt>0</asrwt>
<pdfrwt beam="1">  1        1 0.16875740E+00 0.14388205E+04</pdfrwt>
<pdfrwt beam="2">  1       -1 0.72587817E-01 0.14388205E+04</pdfrwt>
<totfact> 0.23720251E+01</totfact>
</mgrwt>
</event>
<event>
11    1  0.2502641E-008  0.3499019E+04  0.7818608E-02  0.8114022E-01
         -1   -1    0    0    0  501 -0.00000000000E+00  0.00000000000E+00  0.12493744862E+04  0.12493744862E+04  0.00000000000E+00 0.  1.
          1   -1    0    0  501    0  0.00000000000E+00 -0.00000000000E+00 -0.24498526566E+04  0.24498526566E+04  0.00000000000E+00 0. -1.
         23    2    1    2    0    0  0.33403685236E+03 -0.15707977313E+04 -0.26528792627E+03  0.16300704511E+04  0.88124118765E+02 0.  0.
        254    2    1    2    0    0 -0.33403685236E+03  0.15707977313E+04 -0.93519024413E+03  0.20691566917E+04  0.90985850031E+03 0.  0.
         24    2    4    4    0    0 -0.20542400826E+03  0.28111383082E+03 -0.64229553366E+03  0.73497494807E+03  0.80128725708E+02 0.  0.
         11    1    3    3    0    0  0.25084228809E+03 -0.11552867649E+04 -0.23414827169E+03  0.12051700195E+04  0.00000000000E+00 0. -1.
        -11    1    3    3    0    0  0.83194564271E+02 -0.41551096640E+03 -0.31139654587E+02  0.42490043164E+03  0.00000000000E+00 0.  1.
          4    1    5    5  502    0 -0.16543923024E+03  0.26694273770E+03 -0.54879571707E+03  0.63230159195E+03  0.00000000000E+00 0. -1.
          1    1    4    4  503    0 -0.35986398546E+02  0.78077207504E+03 -0.21864942090E+03  0.81160804783E+03  0.00000000000E+00 0. -1.
         -2    1    4    4    0  503 -0.92626445554E+02  0.50891182546E+03 -0.74245289571E+02  0.52257369579E+03  0.00000000000E+00 0.  1.
         -3    1    5    5    0  502 -0.39984778022E+02  0.14171093116E+02 -0.93499816593E+02  0.10267335612E+03  0.00000000000E+00 0.  1.
<mgrwt>
<rscale>  0 0.34990190E+04</rscale>
<asrwt>0</asrwt>
<pdfrwt beam="1">  1        1 0.37690041E+00 0.34990190E+04</pdfrwt>
<pdfrwt beam="2">  1       -1 0.19221146E+00 0.34990190E+04</pdfrwt>
<totfact> 0.20413962E-01</totfact>
</mgrwt>
</event>
<event>
11    1  0.2502641E-008  0.1553480E+04  0.7818608E-02  0.8849648E-01
         -1   -1    0    0    0  501 -0.00000000000E+00  0.00000000000E+00  0.26436411788E+03  0.26436411788E+03  0.00000000000E+00 0. -1.
          1   -1    0    0  501    0  0.00000000000E+00 -0.00000000000E+00 -0.22821746973E+04  0.22821746973E+04  0.00000000000E+00 0.  1.
         23    2    1    2    0    0 -0.66703201101E+02  0.28449996252E+03 -0.13594721014E+04  0.13935893180E+04  0.92397224008E+02 0.  0.
        254    2    1    2    0    0  0.66703201101E+02 -0.28449996252E+03 -0.65833847800E+03  0.11529494972E+04  0.90027409477E+03 0.  0.
         24    2    4    4    0    0  0.12255681384E+03 -0.49937427976E+03 -0.11203570636E+03  0.53245371785E+03  0.80994556884E+02 0.  0.
         11    1    3    3    0    0 -0.13077186643E+02  0.19380286487E+03 -0.10128138502E+04  0.10312722523E+04  0.00000000000E+00 0.  1.
        -11    1    3    3    0    0 -0.53626014457E+02  0.90697097651E+02 -0.34665825120E+03  0.36231706566E+03  0.00000000000E+00 0. -1.
          2    1    5    5  502    0  0.63153424104E+02 -0.30012549443E+03 -0.10583691703E+03  0.32444586666E+03  0.00000000000E+00 0. -1.
          3    1    4    4  503    0  0.16568712438E+02  0.22006493240E+03 -0.38890326514E+03  0.44715640032E+03  0.00000000000E+00 0. -1.
         -4    1    4    4    0  503 -0.72422325177E+02 -0.51906151586E+01 -0.15739950650E+03  0.17333937901E+03  0.00000000000E+00 0.  1.
         -1    1    5    5    0  502  0.59403389736E+02 -0.19924878533E+03 -0.61987893230E+01  0.20800785119E+03  0.00000000000E+00 0.  1.
<mgrwt>
<rscale>  0 0.15534801E+04</rscale>
<asrwt>0</asrwt>
<pdfrwt beam="1">  1        1 0.35110381E+00 0.15534801E+04</pdfrwt>
<pdfrwt beam="2">  1       -1 0.40671402E-01 0.15534801E+04</pdfrwt>
<totfact> 0.10906807E+01</totfact>
</mgrwt>
</event>
<event>
12    1  0.2502641E-008  0.1779825E+04  0.7818608E-02  0.8717102E-01
          1   -1    0    0  501    0  0.00000000000E+00  0.00000000000E+00  0.24082169278E+04  0.24082169278E+04  0.00000000000E+00 0. -1.
         -1   -1    0    0    0  501 -0.00000000000E+00 -0.00000000000E+00 -0.32885095124E+03  0.32885095124E+03  0.00000000000E+00 0.  1.
         23    2    1    2    0    0 -0.41900853026E+03 -0.25749497958E+03  0.14380571138E+04  0.15226331862E+04  0.92367442889E+02 0.  0.
        254    2    1    2    0    0  0.41900853026E+03  0.25749497958E+03  0.64130886277E+03  0.12144346928E+04  0.90647821406E+03 0.  0.
        -24    2    4    4    0    0 -0.86399676736E+02  0.40645015150E+03  0.51080615277E+03  0.66627669471E+03  0.10166158771E+03 0.  0.
         24    2    4    4    0    0  0.50540820700E+03 -0.14895517191E+03  0.13050271000E+03  0.54815799805E+03  0.76296360117E+02 0.  0.
         13    1    3    3    0    0 -0.11611718133E+03 -0.81830549225E+02  0.54978928317E+03  0.56784478026E+03  0.00000000000E+00 0.  1.
        -13    1    3    3    0    0 -0.30289134893E+03 -0.17566443036E+03  0.88826783058E+03  0.95478840598E+03  0.00000000000E+00 0. -1.
          2    1    6    6  502    0  0.37369616953E+03 -0.10214257195E+03  0.61446047539E+02  0.39224679588E+03  0.00000000000E+00 0. -1.
          1    1    5    5  503    0  0.12547539848E+02  0.18699687678E+02  0.56683826954E+02  0.60993239902E+02  0.00000000000E+00 0. -1.
         -2    1    5    5    0  503 -0.98947216585E+02  0.38775046382E+03  0.45412232582E+03  0.60528345481E+03  0.00000000000E+00 0.  1.
         -1    1    6    6    0  502  0.13171203747E+03 -0.46812599962E+02  0.69056662460E+02  0.15591120216E+03  0.00000000000E+00 0.  1.
<mgrwt>
<rscale>  0 0.17798252E+04</rscale>
<asrwt>0</asrwt>
<pdfrwt beam="1">  1        1 0.37049490E+00 0.17798252E+04</pdfrwt>
<pdfrwt beam="2">  1       -1 0.50592456E-01 0.17798252E+04</pdfrwt>
<totfact> 0.58224738E+00</totfact>
</mgrwt>
</event>
<event>
12    1  0.2502641E-008  0.2348654E+04  0.7818608E-02  0.8458981E-01
         -1   -1    0    0    0  501 -0.00000000000E+00  0.00000000000E+00  0.10265180599E+04  0.10265180599E+04  0.00000000000E+00 0.  1.
          1   -1    0    0  501    0  0.00000000000E+00 -0.00000000000E+00 -0.13434188342E+04  0.13434188342E+04  0.00000000000E+00 0. -1.
         23    2    1    2    0    0 -0.51424581040E+03  0.83616370912E+03  0.39319915984E+02  0.98668189110E+03  0.91523748076E+02 0.  0.
        254    2    1    2    0    0  0.51424581040E+03 -0.83616370912E+03 -0.35622069037E+03  0.13832550030E+04  0.90712883378E+03 0.  0.
        -24    2    4    4    0    0  0.22287022430E+03 -0.69389474786E+03  0.17789969195E+03  0.75310881576E+03  0.66057020716E+02 0.  0.
         24    2    4    4    0    0  0.29137558610E+03 -0.14226896126E+03 -0.53412038232E+03  0.63014618723E+03  0.81605422332E+02 0.  0.
         11    1    3    3    0    0 -0.50401266231E+03  0.78938800925E+03  0.48923570211E+02  0.93784631398E+03  0.00000000000E+00 0. -1.
        -11    1    3    3    0    0 -0.10233148091E+02  0.46775699874E+02 -0.96036542273E+01  0.48835577125E+02  0.00000000000E+00 0.  1.
          4    1    6    6  502    0  0.15640443881E+03 -0.60273204109E+02 -0.34646605149E+03  0.38488171228E+03  0.00000000000E+00 0. -1.
          1    1    5    5  503    0  0.20354547138E+03 -0.56491294544E+03  0.13162657102E+03  0.61472184689E+03  0.00000000000E+00 0. -1.
         -2    1    5    5    0  503  0.19324752915E+02 -0.12898180243E+03  0.46273120934E+02  0.13838696887E+03  0.00000000000E+00 0.  1.
         -3    1    6    6    0  502  0.13497114730E+03 -0.81995757150E+02 -0.18765433084E+03  0.24526447496E+03  0.00000000000E+00 0.  1.
<mgrwt>
<rscale>  0 0.23486538E+04</rscale>
<asrwt>0</asrwt>
<pdfrwt beam="1">  1        1 0.20667982E+00 0.23486538E+04</pdfrwt>
<pdfrwt beam="2">  1       -1 0.15792586E+00 0.23486538E+04</pdfrwt>
<totfact> 0.22979331E+00</totfact>
</mgrwt>
</event>
<event>
12    1  0.2502641E-008  0.2351620E+04  0.7818608E-02  0.8457842E-01
          1   -1    0    0  501    0  0.00000000000E+00  0.00000000000E+00  0.16192694733E+04  0.16192694733E+04  0.00000000000E+00 0. -1.
         -1   -1    0    0    0  501 -0.00000000000E+00 -0.00000000000E+00 -0.85379779144E+03  0.85379779144E+03  0.00000000000E+00 0.  1.
         23    2    1    2    0    0 -0.70219289105E+03 -0.25283865990E+03  0.10223694674E+04  0.12690685301E+04  0.91067897830E+02 0.  0.
        254    2    1    2    0    0  0.70219289105E+03  0.25283865990E+03 -0.25689778553E+03  0.12039987347E+04  0.90918328003E+03 0.  0.
        -24    2    4    4    0    0  0.70849341682E+03 -0.79541787675E+02  0.81214010004E+02  0.72330934474E+03  0.91054242587E+02 0.  0.
         24    2    4    4    0    0 -0.63005257741E+01  0.33238044757E+03 -0.33811179554E+03  0.48068938993E+03  0.78906557098E+02 0.  0.
         13    1    3    3    0    0 -0.41361168492E+03 -0.18219941166E+03  0.66958893633E+03  0.80784936416E+03  0.00000000000E+00 0. -1.
        -13    1    3    3    0    0 -0.28858120613E+03 -0.70639248236E+02  0.35278053107E+03  0.46121916593E+03  0.00000000000E+00 0.  1.
          4    1    6    6  502    0  0.80999268087E+01  0.10233615480E+02 -0.37985144019E+02  0.40164746560E+02  0.00000000000E+00 0. -1.
          1    1    5    5  503    0  0.38909488596E+03 -0.19029345235E+02  0.58326739641E+01  0.38960360156E+03  0.00000000000E+00 0. -1.
         -2    1    5    5    0  503  0.31939853086E+03 -0.60512442439E+02  0.75381336040E+02  0.33370574317E+03  0.00000000000E+00 0.  1.
         -1    1    6    6    0  502 -0.14400452583E+02  0.32214683209E+03 -0.30012665152E+03  0.44052464337E+03  0.00000000000E+00 0.  1.
<mgrwt>
<rscale>  0 0.23516196E+04</rscale>
<asrwt>0</asrwt>
<pdfrwt beam="1">  1        1 0.24911838E+00 0.23516196E+04</pdfrwt>
<pdfrwt beam="2">  1       -1 0.13135351E+00 0.23516196E+04</pdfrwt>
<totfact> 0.24060798E+00</totfact>
</mgrwt>
</event>
<event>
12    1  0.2696601E-008  0.1239955E+04  0.7818608E-02  0.9078585E-01
         -2   -1    0    0    0  501 -0.00000000000E+00  0.00000000000E+00  0.42562520441E+03  0.42562520441E+03  0.00000000000E+00 0.  1.
          2   -1    0    0  501    0  0.00000000000E+00 -0.00000000000E+00 -0.90307686786E+03  0.90307686786E+03  0.00000000000E+00 0. -1.
         23    2    1    2    0    0  0.16492258460E+03  0.20298864310E+03 -0.18693283823E+02  0.27776791119E+03  0.91660926725E+02 0.  0.
        254    2    1    2    0    0 -0.16492258460E+03 -0.20298864310E+03 -0.45875837963E+03  0.10509341611E+04  0.90862506673E+03 0.  0.
        -24    2    4    4    0    0 -0.33865730148E+02 -0.82881985225E+02  0.26839323862E+03  0.29811542432E+03  0.93923184171E+02 0.  0.
         24    2    4    4    0    0 -0.13105685445E+03 -0.12010665788E+03 -0.72715161825E+03  0.75281873676E+03  0.79906608794E+02 0.  0.
         13    1    3    3    0    0  0.12436645135E+03  0.15675459770E+03 -0.53465635008E+02  0.20711733932E+03  0.00000000000E+00 0. -1.
        -13    1    3    3    0    0  0.40556133249E+02  0.46234045403E+02  0.34772351185E+02  0.70650571869E+02  0.00000000000E+00 0.  1.
          2    1    6    6  502    0  0.38927476259E+01 -0.14790319454E+02 -0.19636292526E+02  0.24889576489E+02  0.00000000000E+00 0. -1.
          1    1    5    5  503    0 -0.31361151787E+01 -0.25779730421E+02  0.44812865476E+01  0.26353588904E+02  0.00000000000E+00 0. -1.
         -2    1    5    5    0  503 -0.30729614970E+02 -0.57102254804E+02  0.26391195207E+03  0.27176183541E+03  0.00000000000E+00 0.  1.
         -1    1    6    6    0  502 -0.13494960208E+03 -0.10531633842E+03 -0.70751532572E+03  0.72792916027E+03  0.00000000000E+00 0.  1.
<mgrwt>
<rscale>  0 0.12399553E+04</rscale>
<asrwt>0</asrwt>
<pdfrwt beam="1">  1        2 0.13893490E+00 0.12399553E+04</pdfrwt>
<pdfrwt beam="2">  1       -2 0.65480801E-01 0.12399553E+04</pdfrwt>
<totfact> 0.61728674E+01</totfact>
</mgrwt>
</event>
<event>
11    1  0.2502641E-008  0.1127320E+04  0.7818608E-02  0.9178966E-01
         -1   -1    0    0    0  501 -0.00000000000E+00  0.00000000000E+00  0.24399454777E+03  0.24399454777E+03  0.00000000000E+00 0.  1.
          1   -1    0    0  501    0  0.00000000000E+00 -0.00000000000E+00 -0.13021296404E+04  0.13021296404E+04  0.00000000000E+00 0. -1.
         23    2    1    2    0    0 -0.57111139667E+02  0.21512531465E+03 -0.15146874479E+03  0.28391787824E+03  0.90144315764E+02 0.  0.
        254    2    1    2    0    0  0.57111139667E+02 -0.21512531465E+03 -0.90666634783E+03  0.12622063099E+04  0.84945883905E+03 0.  0.
         24    2    4    4    0    0 -0.27047180626E+03 -0.40130350828E+03 -0.59897286130E+03  0.77427279257E+03  0.80810673820E+02 0.  0.
         13    1    3    3    0    0  0.24060949816E+02  0.34288278091E+02 -0.24702808708E+02  0.48629662538E+02  0.00000000000E+00 0. -1.
        -13    1    3    3    0    0 -0.81172089483E+02  0.18083703655E+03 -0.12676593608E+03  0.23528821571E+03  0.00000000000E+00 0.  1.
          2    1    5    5  502    0 -0.22117256994E+03 -0.34646010743E+03 -0.45958536007E+03  0.61657977175E+03  0.00000000000E+00 0. -1.
          1    1    4    4  503    0  0.15731157507E+03  0.68079356027E+02 -0.14351842249E+03  0.22356043470E+03  0.00000000000E+00 0. -1.
         -2    1    4    4    0  503  0.17027137086E+03  0.11809883761E+03 -0.16417506404E+03  0.26437308266E+03  0.00000000000E+00 0.  1.
         -1    1    5    5    0  502 -0.49299236319E+02 -0.54843400850E+02 -0.13938750122E+03  0.15769302082E+03  0.00000000000E+00 0.  1.
<mgrwt>
<rscale>  0 0.11273199E+04</rscale>
<asrwt>0</asrwt>
<pdfrwt beam="1">  1        1 0.20032764E+00 0.11273199E+04</pdfrwt>
<pdfrwt beam="2">  1       -1 0.37537623E-01 0.11273199E+04</pdfrwt>
<totfact> 0.61282185E+01</totfact>
</mgrwt>
</event>
<event>
12    1  0.2502641E-008  0.1210221E+04  0.7818608E-02  0.9103957E-01
         -2   -1    0    0    0  501 -0.00000000000E+00  0.00000000000E+00  0.24601624253E+03  0.24601624253E+03  0.00000000000E+00 0.  1.
          2   -1    0    0  501    0  0.00000000000E+00 -0.00000000000E+00 -0.14883514544E+04  0.14883514544E+04  0.00000000000E+00 0. -1.
         23    2    1    2    0    0 -0.16168116320E+03 -0.19594772169E+03 -0.25400004082E+03  0.37072099694E+03  0.91551781353E+02 0.  0.
        254    2    1    2    0    0  0.16168116320E+03  0.19594772169E+03 -0.98833517105E+03  0.13636467000E+04  0.90453833743E+03 0.  0.
        -24    2    4    4    0    0 -0.18818924873E+03 -0.25101592627E+03 -0.55842224479E+03  0.64718175771E+03  0.92653307860E+02 0.  0.
         24    2    4    4    0    0  0.34987041193E+03  0.44696364796E+03 -0.42991292626E+03  0.71646494227E+03  0.79442316192E+02 0.  0.
         11    1    3    3    0    0 -0.78665006747E+02 -0.29498907544E+02 -0.80957308977E+02  0.11667242480E+03  0.00000000000E+00 0.  1.
        -11    1    3    3    0    0 -0.83016156458E+02 -0.16644881415E+03 -0.17304273184E+03  0.25404857214E+03  0.00000000000E+00 0. -1.
          4    1    6    6  502    0  0.23599676227E+03  0.23938779767E+03 -0.26223628547E+03  0.42634359253E+03  0.00000000000E+00 0. -1.
          1    1    5    5  503    0 -0.11161280266E+03 -0.19247295645E+03 -0.45071846876E+03  0.50264340716E+03  0.00000000000E+00 0. -1.
         -2    1    5    5    0  503 -0.76576446069E+02 -0.58542969818E+02 -0.10770377603E+03  0.14453835055E+03  0.00000000000E+00 0.  1.
         -3    1    6    6    0  502  0.11387364966E+03  0.20757585029E+03 -0.16767664078E+03  0.29012134974E+03  0.00000000000E+00 0.  1.
<mgrwt>
<rscale>  0 0.12102209E+04</rscale>
<asrwt>0</asrwt>
<pdfrwt beam="1">  1        2 0.22897714E+00 0.12102209E+04</pdfrwt>
<pdfrwt beam="2">  1       -2 0.37848654E-01 0.12102209E+04</pdfrwt>
<totfact> 0.83675082E+01</totfact>
</mgrwt>
</event>
<event>
12    1  0.2502641E-008  0.1754434E+04  0.7818608E-02  0.8730913E-01
         -2   -1    0    0    0  501 -0.00000000000E+00  0.00000000000E+00  0.33662015489E+03  0.33662015489E+03  0.00000000000E+00 0.  1.
          2   -1    0    0  501    0  0.00000000000E+00 -0.00000000000E+00 -0.22859885091E+04  0.22859885091E+04  0.00000000000E+00 0. -1.
         23    2    1    2    0    0 -0.41160034744E+03  0.50641379843E+02  0.14704183803E+02  0.42480725562E+03  0.90915323484E+02 0.  0.
        254    2    1    2    0    0  0.41160034744E+03 -0.50641379843E+02 -0.19640725380E+04  0.21978014084E+04  0.89485792208E+03 0.  0.
        -24    2    4    4    0    0  0.13745154710E+03 -0.13301176079E+03 -0.18745715046E+04  0.18871280744E+04  0.10319392896E+03 0.  0.
         24    2    4    4    0    0  0.27414880034E+03  0.82370380944E+02 -0.89501033397E+02  0.31067333397E+03  0.81024941083E+02 0.  0.
         13    1    3    3    0    0 -0.51183043883E+02  0.23604863188E+02 -0.24100203448E+02  0.61300190485E+02  0.00000000000E+00 0. -1.
        -13    1    3    3    0    0 -0.36041730356E+03  0.27036516655E+02  0.38804387250E+02  0.36350706514E+03  0.00000000000E+00 0.  1.
          2    1    6    6  502    0  0.65854327086E+02  0.56671258383E+02 -0.36310273462E+02  0.94164005233E+02  0.00000000000E+00 0. -1.
          3    1    5    5  503    0  0.45647405602E+02 -0.68571390234E+02 -0.40558955602E+03  0.41387028058E+03  0.00000000000E+00 0. -1.
         -4    1    5    5    0  503  0.91804141497E+02 -0.64440370552E+02 -0.14689819486E+04  0.14732577938E+04  0.00000000000E+00 0.  1.
         -1    1    6    6    0  502  0.20829447325E+03  0.25699122561E+02 -0.53190759935E+02  0.21650932874E+03  0.00000000000E+00 0.  1.
<mgrwt>
<rscale>  0 0.17544342E+04</rscale>
<asrwt>0</asrwt>
<pdfrwt beam="1">  1        2 0.35169055E+00 0.17544342E+04</pdfrwt>
<pdfrwt beam="2">  1       -2 0.51787714E-01 0.17544342E+04</pdfrwt>
<totfact> 0.15414754E+01</totfact>
</mgrwt>
</event>
<event>
11    1  0.2502641E-008  0.1570206E+04  0.7818608E-02  0.8839063E-01
          2   -1    0    0  501    0  0.00000000000E+00  0.00000000000E+00  0.20011386977E+04  0.20011386977E+04  0.00000000000E+00 0.  1.
         -2   -1    0    0    0  501 -0.00000000000E+00 -0.00000000000E+00 -0.30801808841E+03  0.30801808841E+03  0.00000000000E+00 0. -1.
         23    2    1    2    0    0  0.52303090997E+03 -0.12143511423E+02  0.52620084297E+03  0.74680400955E+03  0.84380707934E+02 0.  0.
        254    2    1    2    0    0 -0.52303090997E+03  0.12143511423E+02  0.11669197663E+04  0.15623527766E+04  0.89751638412E+03 0.  0.
         24    2    4    4    0    0 -0.38463894611E+03 -0.12446588177E+03  0.65084423052E+03  0.77023166528E+03  0.78865272510E+02 0.  0.
         13    1    3    3    0    0  0.66777004146E+01  0.11111711396E+02  0.10803655827E+02  0.16875449393E+02  0.00000000000E+00 0.  1.
        -13    1    3    3    0    0  0.51635320956E+03 -0.23255222818E+02  0.51539718715E+03  0.72992856015E+03  0.00000000000E+00 0. -1.
          4    1    5    5  502    0 -0.16716238103E+03 -0.93254329658E+02  0.32669689133E+03  0.37864295905E+03  0.00000000000E+00 0. -1.
          3    1    4    4  503    0 -0.34257719145E+03  0.17708043946E+03  0.39149356646E+03  0.54953055122E+03  0.00000000000E+00 0. -1.
         -4    1    4    4    0  503  0.20418522759E+03 -0.40471046269E+02  0.12458196933E+03  0.24259056007E+03  0.00000000000E+00 0.  1.
         -3    1    5    5    0  502 -0.21747656508E+03 -0.31211552114E+02  0.32414733919E+03  0.39158870624E+03  0.00000000000E+00 0.  1.
<mgrwt>
<rscale>  0 0.15702062E+04</rscale>
<asrwt>0</asrwt>
<pdfrwt beam="1">  1        2 0.30786748E+00 0.15702062E+04</pdfrwt>
<pdfrwt beam="2">  1       -2 0.47387400E-01 0.15702062E+04</pdfrwt>
<totfact> 0.27068661E+01</totfact>
</mgrwt>
</event>
<event>
12    1  0.2502641E-008  0.1518348E+04  0.7818608E-02  0.8872343E-01
         -1   -1    0    0    0  501 -0.00000000000E+00  0.00000000000E+00  0.38057338809E+03  0.38057338809E+03  0.00000000000E+00 0.  1.
          1   -1    0    0  501    0  0.00000000000E+00 -0.00000000000E+00 -0.15144118694E+04  0.15144118694E+04  0.00000000000E+00 0. -1.
         23    2    1    2    0    0  0.29388302684E+02  0.43380813404E+03 -0.60555194078E+03  0.75105494822E+03  0.91308338929E+02 0.  0.
        254    2    1    2    0    0 -0.29388302684E+02 -0.43380813404E+03 -0.52828654049E+03  0.11439303092E+04  0.91675335507E+03 0.  0.
        -24    2    4    4    0    0  0.42309073733E+03 -0.21622055397E+03 -0.37255542091E+03  0.61213983431E+03  0.10079947975E+03 0.  0.
         24    2    4    4    0    0 -0.45247904002E+03 -0.21758758007E+03 -0.15573111957E+03  0.53179047493E+03  0.80419468842E+02 0.  0.
         13    1    3    3    0    0  0.15306487723E+02  0.42381015399E+02 -0.11368194019E+03  0.12228664097E+03  0.00000000000E+00 0.  1.
        -13    1    3    3    0    0  0.14081814961E+02  0.39142711864E+03 -0.49187000059E+03  0.62876830725E+03  0.00000000000E+00 0. -1.
          4    1    6    6  502    0 -0.14031655881E+03 -0.10976842671E+03 -0.50431830478E+02  0.18515186660E+03  0.00000000000E+00 0. -1.
          3    1    5    5  503    0  0.65133472810E+02 -0.70706990743E+02 -0.10369935369E+03  0.14140510520E+03  0.00000000000E+00 0. -1.
         -4    1    5    5    0  503  0.35795726452E+03 -0.14551356323E+03 -0.26885606722E+03  0.47073472911E+03  0.00000000000E+00 0.  1.
         -3    1    6    6    0  502 -0.31216248120E+03 -0.10781915336E+03 -0.10529928910E+03  0.34663860833E+03  0.00000000000E+00 0.  1.
<mgrwt>
<rscale>  0 0.15183476E+04</rscale>
<asrwt>0</asrwt>
<pdfrwt beam="1">  1        1 0.23298643E+00 0.15183476E+04</pdfrwt>
<pdfrwt beam="2">  1       -1 0.58549754E-01 0.15183476E+04</pdfrwt>
<totfact> 0.18252933E+01</totfact>
</mgrwt>
</event>
<event>
11    1  0.2502641E-008  0.1342376E+04  0.7818608E-02  0.8996619E-01
         -1   -1    0    0    0  501 -0.00000000000E+00  0.00000000000E+00  0.19471689567E+03  0.19471689567E+03  0.00000000000E+00 0.  1.
          1   -1    0    0  501    0  0.00000000000E+00 -0.00000000000E+00 -0.23135813490E+04  0.23135813490E+04  0.00000000000E+00 0. -1.
         23    2    1    2    0    0  0.22594384122E+03  0.19032359813E+03 -0.20219870578E+03  0.36954256901E+03  0.91671709352E+02 0.  0.
        254    2    1    2    0    0 -0.22594384122E+03 -0.19032359813E+03 -0.19166657476E+04  0.21387556757E+04  0.90188389549E+03 0.  0.
         24    2    4    4    0    0 -0.51353694133E+03  0.77406357045E+02 -0.91069636606E+03  0.10513883996E+04  0.79610058523E+02 0.  0.
         13    1    3    3    0    0  0.62076137423E+02  0.11105533388E+03 -0.79688193105E+02  0.15012308997E+03  0.00000000000E+00 0. -1.
        -13    1    3    3    0    0  0.16386770380E+03  0.79268264252E+02 -0.12251051268E+03  0.21941947904E+03  0.00000000000E+00 0.  1.
          2    1    5    5  502    0 -0.37154123494E+03  0.22575591290E+02 -0.67457309634E+03  0.77045532570E+03  0.00000000000E+00 0. -1.
          1    1    4    4  503    0  0.16828342962E+03 -0.72407636467E+02 -0.41578006819E+03  0.45435145384E+03  0.00000000000E+00 0. -1.
         -2    1    4    4    0  503  0.11930967048E+03 -0.19532231871E+03 -0.59018931331E+03  0.63301582224E+03  0.00000000000E+00 0.  1.
         -1    1    5    5    0  502 -0.14199570639E+03  0.54830765755E+02 -0.23612326972E+03  0.28093307390E+03  0.00000000000E+00 0.  1.
<mgrwt>
<rscale>  0 0.13423761E+04</rscale>
<asrwt>0</asrwt>
<pdfrwt beam="1">  1        1 0.35593559E+00 0.13423761E+04</pdfrwt>
<pdfrwt beam="2">  1       -1 0.29956446E-01 0.13423761E+04</pdfrwt>
<totfact> 0.18302698E+01</totfact>
</mgrwt>
</event>
<event>
12    1  0.2502641E-008  0.1918993E+04  0.7818608E-02  0.8645460E-01
          1   -1    0    0  501    0  0.00000000000E+00  0.00000000000E+00  0.11831924123E+04  0.11831924123E+04  0.00000000000E+00 0. -1.
         -1   -1    0    0    0  501 -0.00000000000E+00 -0.00000000000E+00 -0.77809242717E+03  0.77809242717E+03  0.00000000000E+00 0.  1.
         23    2    1    2    0    0 -0.11792049685E+02 -0.33314566761E+03 -0.51927171222E+03  0.62368794676E+03  0.90655697706E+02 0.  0.
        254    2    1    2    0    0  0.11792049685E+02  0.33314566761E+03  0.92437169733E+03  0.13375968927E+04  0.90751161107E+03 0.  0.
        -24    2    4    4    0    0 -0.37856995604E+03  0.11837916556E+03  0.74638708295E+03  0.85114239713E+03  0.10010426639E+03 0.  0.
         24    2    4    4    0    0  0.39036200573E+03  0.21476650205E+03  0.17798461438E+03  0.48645449556E+03  0.80326255790E+02 0.  0.
         13    1    3    3    0    0  0.30527604655E+01  0.32755587188E+01 -0.26298137654E+02  0.26676594150E+02  0.00000000000E+00 0. -1.
        -13    1    3    3    0    0 -0.14844810150E+02 -0.33642122633E+03 -0.49297357457E+03  0.59701135260E+03  0.00000000000E+00 0.  1.
          4    1    6    6  502    0  0.90133996211E+02  0.27631078551E+02  0.99388211044E+01  0.94796592449E+02  0.00000000000E+00 0. -1.
          1    1    5    5  503    0 -0.70076009567E+02  0.25201587961E+01  0.71749705728E+02  0.10032456623E+03  0.00000000000E+00 0. -1.
         -2    1    5    5    0  503 -0.30849394648E+03  0.11585900676E+03  0.67463737722E+03  0.75081783090E+03  0.00000000000E+00 0.  1.
         -3    1    6    6    0  502  0.30022800952E+03  0.18713542350E+03  0.16804579328E+03  0.39165790311E+03  0.00000000000E+00 0.  1.
<mgrwt>
<rscale>  0 0.19189925E+04</rscale>
<asrwt>0</asrwt>
<pdfrwt beam="1">  1        1 0.18202960E+00 0.19189925E+04</pdfrwt>
<pdfrwt beam="2">  1       -1 0.11970653E+00 0.19189925E+04</pdfrwt>
<totfact> 0.63963997E+00</totfact>
</mgrwt>
</event>
<event>
11    1  0.2502641E-008  0.1592900E+04  0.7818608E-02  0.8824922E-01
          2   -1    0    0  501    0  0.00000000000E+00  0.00000000000E+00  0.34997609589E+03  0.34997609589E+03  0.00000000000E+00 0. -1.
         -2   -1    0    0    0  501 -0.00000000000E+00 -0.00000000000E+00 -0.18125026673E+04  0.18125026673E+04  0.00000000000E+00 0.  1.
         23    2    1    2    0    0  0.32126555512E+03 -0.20915448976E+03 -0.10171563648E+04  0.10908627149E+04  0.91745489378E+02 0.  0.
        254    2    1    2    0    0 -0.32126555512E+03  0.20915448976E+03 -0.44537020658E+03  0.10716160483E+04  0.89613011136E+03 0.  0.
         24    2    4    4    0    0  0.26132827326E+03 -0.42344308257E+02  0.18687717206E+01  0.27670062362E+03  0.80462637026E+02 0.  0.
         11    1    3    3    0    0  0.32251264960E+03 -0.21507119035E+03 -0.10070864036E+04  0.10791167918E+04  0.00000000000E+00 0.  1.
        -11    1    3    3    0    0 -0.12470944811E+01  0.59167005939E+01 -0.10069961227E+02  0.11745923109E+02  0.00000000000E+00 0. -1.
          4    1    5    5  502    0  0.23608790705E+03 -0.58294442345E+02 -0.12635361644E+02  0.24350645623E+03  0.00000000000E+00 0. -1.
          1    1    4    4  503    0 -0.43511880214E+03  0.25934119060E+03 -0.37664433061E+03  0.63122672385E+03  0.00000000000E+00 0. -1.
         -2    1    4    4    0  503 -0.14747502623E+03 -0.78423925806E+01 -0.70594647689E+02  0.16368870079E+03  0.00000000000E+00 0.  1.
         -3    1    5    5    0  502  0.25240366212E+02  0.15950134088E+02  0.14504133364E+02  0.33194167389E+02  0.00000000000E+00 0.  1.
<mgrwt>
<rscale>  0 0.15929000E+04</rscale>
<asrwt>0</asrwt>
<pdfrwt beam="1">  1        2 0.53842477E-01 0.15929000E+04</pdfrwt>
<pdfrwt beam="2">  1       -2 0.27884656E+00 0.15929000E+04</pdfrwt>
<totfact> 0.38016211E+00</totfact>
</mgrwt>
</event>
<event>
12    1  0.2502641E-008  0.1509872E+04  0.7818608E-02  0.8877915E-01
         -2   -1    0    0    0  501 -0.00000000000E+00  0.00000000000E+00  0.20466847366E+03  0.20466847366E+03  0.00000000000E+00 0.  1.
          2   -1    0    0  501    0  0.00000000000E+00 -0.00000000000E+00 -0.27846405637E+04  0.27846405637E+04  0.00000000000E+00 0. -1.
         23    2    1    2    0    0 -0.21679131596E+03  0.42132933371E+03 -0.95825466176E+03  0.10723359866E+04  0.84472417300E+02 0.  0.
        254    2    1    2    0    0  0.21679131596E+03 -0.42132933371E+03 -0.16217174282E+04  0.19169730507E+04  0.90570490665E+03 0.  0.
        -24    2    4    4    0    0 -0.30043931851E+03 -0.34654782249E+03 -0.55904860802E+03  0.73008801690E+03  0.10066771537E+03 0.  0.
         24    2    4    4    0    0  0.51723063447E+03 -0.74781511227E+02 -0.10626688202E+04  0.11868850338E+04  0.79443428468E+02 0.  0.
         11    1    3    3    0    0  0.52924206687E+01  0.97120739256E+00 -0.64274624158E+01  0.83824360087E+01  0.00000000000E+00 0.  1.
        -11    1    3    3    0    0 -0.22208373663E+03  0.42035812632E+03 -0.95182719935E+03  0.10639535506E+04  0.00000000000E+00 0. -1.
          2    1    6    6  502    0  0.25678034206E+03 -0.63978730505E+02 -0.60156571348E+03  0.65719915525E+03  0.00000000000E+00 0. -1.
          1    1    5    5  503    0 -0.11866496093E+03 -0.99341385122E+02 -0.12718337374E+03  0.20031398929E+03  0.00000000000E+00 0. -1.
         -2    1    5    5    0  503 -0.18177435758E+03 -0.24720643736E+03 -0.43186523428E+03  0.52977402761E+03  0.00000000000E+00 0.  1.
         -1    1    6    6    0  502  0.26045029241E+03 -0.10802780722E+02 -0.46110310675E+03  0.52968587856E+03  0.00000000000E+00 0.  1.
<mgrwt>
<rscale>  0 0.15098717E+04</rscale>
<asrwt>0</asrwt>
<pdfrwt beam="1">  1        2 0.42840621E+00 0.15098717E+04</pdfrwt>
<pdfrwt beam="2">  1       -2 0.31487460E-01 0.15098717E+04</pdfrwt>
<totfact> 0.21466779E+01</totfact>
</mgrwt>
</event>
<event>
12    1  0.2502641E-008  0.1396309E+04  0.7818608E-02  0.8956494E-01
         -2   -1    0    0    0  501 -0.00000000000E+00  0.00000000000E+00  0.13582098083E+03  0.13582098083E+03  0.00000000000E+00 0.  1.
          2   -1    0    0  501    0  0.00000000000E+00 -0.00000000000E+00 -0.35886936420E+04  0.35886936420E+04  0.00000000000E+00 0. -1.
         23    2    1    2    0    0 -0.24632915316E+03 -0.27055952420E+03 -0.58327053454E+03  0.69456782373E+03  0.91320520488E+02 0.  0.
        254    2    1    2    0    0  0.24632915316E+03  0.27055952420E+03 -0.28696021266E+04  0.30299467991E+04  0.90115522105E+03 0.  0.
        -24    2    4    4    0    0  0.55269631083E+03  0.18595221273E-01 -0.16404514746E+04  0.17321635019E+04  0.61936616326E+02 0.  0.
         24    2    4    4    0    0 -0.30636715767E+03  0.27054092898E+03 -0.12291506520E+04  0.12977832972E+04  0.79855692181E+02 0.  0.
         13    1    3    3    0    0 -0.18698809839E+03 -0.18779862601E+03 -0.34182244599E+03  0.43252220457E+03  0.00000000000E+00 0.  1.
        -13    1    3    3    0    0 -0.59341054772E+02 -0.82760898190E+02 -0.24144808855E+03  0.26204561915E+03  0.00000000000E+00 0. -1.
          4    1    6    6  502    0 -0.19057082330E+03  0.16404816035E+03 -0.87173444464E+03  0.90727613194E+03  0.00000000000E+00 0. -1.
          3    1    5    5  503    0  0.11237059165E+03  0.13155482235E+02 -0.27330434596E+03  0.29579635241E+03  0.00000000000E+00 0. -1.
         -2    1    5    5    0  503  0.44032571918E+03 -0.13136887014E+02 -0.13671471286E+04  0.14363671495E+04  0.00000000000E+00 0.  1.
         -3    1    6    6    0  502 -0.11579633437E+03  0.10649276863E+03 -0.35741620738E+03  0.39050716526E+03  0.00000000000E+00 0.  1.
<mgrwt>
<rscale>  0 0.13963093E+04</rscale>
<asrwt>0</asrwt>
<pdfrwt beam="1">  1        2 0.55210661E+00 0.13963093E+04</pdfrwt>
<pdfrwt beam="2">  1       -2 0.20895539E-01 0.13963093E+04</pdfrwt>
<totfact> 0.13810629E+01</totfact>
</mgrwt>
</event>
<event>
11    1  0.2502641E-008  0.2301862E+04  0.7818608E-02  0.8477187E-01
          1   -1    0    0  501    0  0.00000000000E+00  0.00000000000E+00  0.67065847406E+03  0.67065847406E+03  0.00000000000E+00 0. -1.
         -1   -1    0    0    0  501 -0.00000000000E+00 -0.00000000000E+00 -0.19751361741E+04  0.19751361741E+04  0.00000000000E+00 0.  1.
         23    2    1    2    0    0  0.33405329156E+03  0.76147171234E+03  0.26788707136E+02  0.83665008401E+03  0.88515297835E+02 0.  0.
        254    2    1    2    0    0 -0.33405329156E+03 -0.76147171234E+03 -0.13312664072E+04  0.18091445642E+04  0.89961271494E+03 0.  0.
         24    2    4    4    0    0 -0.17590168529E+03 -0.61556315316E+03 -0.14064280349E+04  0.15472750765E+04  0.78491697465E+02 0.  0.
         13    1    3    3    0    0  0.16540422539E+03  0.44170510700E+03  0.50521363452E+02  0.47435679345E+03  0.00000000000E+00 0. -1.
        -13    1    3    3    0    0  0.16864906617E+03  0.31976660534E+03 -0.23732656317E+02  0.36229329056E+03  0.00000000000E+00 0.  1.
          2    1    5    5  502    0 -0.13778447683E+03 -0.56063129694E+03 -0.12351844967E+04  0.13634415111E+04  0.00000000000E+00 0. -1.
          3    1    4    4  503    0 -0.17413787700E+03 -0.10820236654E+03  0.42239569150E+02  0.20932255859E+03  0.00000000000E+00 0. -1.
         -4    1    4    4    0  503  0.15986270736E+02 -0.37706192644E+02  0.32922058569E+02  0.52546929084E+02  0.00000000000E+00 0.  1.
         -1    1    5    5    0  502 -0.38117208468E+02 -0.54931856219E+02 -0.17124353821E+03  0.18383356545E+03  0.00000000000E+00 0.  1.
<mgrwt>
<rscale>  0 0.23018617E+04</rscale>
<asrwt>0</asrwt>
<pdfrwt beam="1">  1        1 0.10317823E+00 0.23018617E+04</pdfrwt>
<pdfrwt beam="2">  1       -1 0.30386710E+00 0.23018617E+04</pdfrwt>
<totfact> 0.81904730E-01</totfact>
</mgrwt>
</event>
<event>
12    1  0.2502641E-008  0.1747313E+04  0.7818608E-02  0.8734831E-01
         -2   -1    0    0    0  501 -0.00000000000E+00  0.00000000000E+00  0.77677638245E+03  0.77677638245E+03  0.00000000000E+00 0. -1.
          2   -1    0    0  501    0  0.00000000000E+00 -0.00000000000E+00 -0.98261977133E+03  0.98261977133E+03  0.00000000000E+00 0.  1.
         23    2    1    2    0    0  0.43341410069E+03  0.44770391145E+03 -0.17686325701E+03  0.65350985441E+03  0.86648387885E+02 0.  0.
        254    2    1    2    0    0 -0.43341410069E+03 -0.44770391145E+03 -0.28980131865E+02  0.11058862994E+04  0.91315830177E+03 0.  0.
        -24    2    4    4    0    0  0.16880088544E+03 -0.41724804139E+03  0.12955078657E+03  0.47740025045E+03  0.92400897498E+02 0.  0.
         24    2    4    4    0    0 -0.60221498613E+03 -0.30455870060E+02 -0.15853091844E+03  0.62848604892E+03  0.79197298250E+02 0.  0.
         13    1    3    3    0    0  0.11579851227E+03  0.69670791043E+02 -0.45310608065E+02  0.14253548951E+03  0.00000000000E+00 0. -1.
        -13    1    3    3    0    0  0.31761558842E+03  0.37803312041E+03 -0.13155264894E+03  0.51097436490E+03  0.00000000000E+00 0.  1.
          4    1    6    6  502    0 -0.56232926754E+03 -0.15197404605E+02 -0.13071730427E+03  0.57752244967E+03  0.00000000000E+00 0. -1.
          1    1    5    5  503    0  0.17439814462E+03 -0.41740525008E+03  0.12302980559E+03  0.46880506471E+03  0.00000000000E+00 0. -1.
         -4    1    5    5    0  503 -0.55972591819E+01  0.15720868286E+00  0.65209809791E+01  0.85951857368E+01  0.00000000000E+00 0.  1.
         -3    1    6    6    0  502 -0.39885718589E+02 -0.15258465454E+02 -0.27813614173E+02  0.50963599252E+02  0.00000000000E+00 0.  1.
<mgrwt>
<rscale>  0 0.17473132E+04</rscale>
<asrwt>0</asrwt>
<pdfrwt beam="1">  1        2 0.15117227E+00 0.17473132E+04</pdfrwt>
<pdfrwt beam="2">  1       -2 0.11950406E+00 0.17473132E+04</pdfrwt>
<totfact> 0.13147531E+01</totfact>
</mgrwt>
</event>
<event>
12    1  0.2502641E-008  0.2412599E+04  0.7818608E-02  0.8434802E-01
          1   -1    0    0  501    0  0.00000000000E+00  0.00000000000E+00  0.23008854338E+04  0.23008854338E+04  0.00000000000E+00 0. -1.
         -1   -1    0    0    0  501 -0.00000000000E+00 -0.00000000000E+00 -0.63243422329E+03  0.63243422329E+03  0.00000000000E+00 0.  1.
         23    2    1    2    0    0 -0.27688215619E+02 -0.92289623811E+03  0.15801596461E+03  0.94146657270E+03  0.94266424763E+02 0.  0.
        254    2    1    2    0    0  0.27688215619E+02  0.92289623811E+03  0.15104352459E+04  0.19918530843E+04  0.91299505698E+03 0.  0.
        -24    2    4    4    0    0 -0.17008304699E+03  0.30320477815E+02 -0.27043044619E+02  0.20128606657E+03  0.99685405563E+02 0.  0.
         24    2    4    4    0    0  0.19777126261E+03  0.89257576030E+03  0.15374782905E+04  0.17905670178E+04  0.80534410496E+02 0.  0.
         11    1    3    3    0    0  0.75636341011E+01 -0.40848657507E+03  0.26902074280E+02  0.40944134156E+03  0.00000000000E+00 0. -1.
        -11    1    3    3    0    0 -0.35251849720E+02 -0.51440966304E+03  0.13111389033E+03  0.53202523115E+03  0.00000000000E+00 0.  1.
          2    1    6    6  502    0  0.29467469661E+02  0.10543760740E+03  0.23825575634E+03  0.26220455040E+03  0.00000000000E+00 0. -1.
          1    1    5    5  503    0 -0.15875329783E+02  0.41138438763E+02  0.13382841354E+01  0.44115623582E+02  0.00000000000E+00 0. -1.
         -2    1    5    5    0  503 -0.15420771721E+03 -0.10817960948E+02 -0.28381328754E+02  0.15717044298E+03  0.00000000000E+00 0.  1.
         -3    1    6    6    0  502  0.16830379295E+03  0.78713815290E+03  0.12992225341E+04  0.15283624674E+04  0.00000000000E+00 0.  1.
<mgrwt>
<rscale>  0 0.24125992E+04</rscale>
<asrwt>0</asrwt>
<pdfrwt beam="1">  1        1 0.35398237E+00 0.24125992E+04</pdfrwt>
<pdfrwt beam="2">  1       -1 0.97297574E-01 0.24125992E+04</pdfrwt>
<totfact> 0.16873734E+00</totfact>
</mgrwt>
</event>
<event>
12    1  0.2502641E-008  0.1683496E+04  0.7818608E-02  0.8770833E-01
          2   -1    0    0  501    0  0.00000000000E+00  0.00000000000E+00  0.13858639514E+04  0.13858639514E+04  0.00000000000E+00 0. -1.
         -2   -1    0    0    0  501 -0.00000000000E+00 -0.00000000000E+00 -0.51126238301E+03  0.51126238301E+03  0.00000000000E+00 0.  1.
         23    2    1    2    0    0  0.53648826155E+03  0.16695309510E+03  0.53138936510E+03  0.77865344302E+03  0.90738835336E+02 0.  0.
        254    2    1    2    0    0 -0.53648826155E+03 -0.16695309510E+03  0.34321220332E+03  0.11184728914E+04  0.90415374886E+03 0.  0.
        -24    2    4    4    0    0 -0.48910751624E+03 -0.48157863433E+03  0.38144462533E+03  0.78824105505E+03  0.68409174791E+02 0.  0.
         24    2    4    4    0    0 -0.47380745313E+02  0.31462553924E+03 -0.38232422003E+02  0.33023183636E+03  0.79731942719E+02 0.  0.
         13    1    3    3    0    0  0.41306976415E+03  0.95316389368E+02  0.36458762137E+03  0.55913860339E+03  0.00000000000E+00 0. -1.
        -13    1    3    3    0    0  0.12341849740E+03  0.71636705728E+02  0.16680174373E+03  0.21951483963E+03  0.00000000000E+00 0.  1.
          2    1    6    6  502    0 -0.17339865775E+02  0.10933649908E+03 -0.51984880698E+02  0.12230113980E+03  0.00000000000E+00 0. -1.
          1    1    5    5  503    0 -0.30325309916E+03 -0.25139606852E+03  0.22231806615E+03  0.45231377157E+03  0.00000000000E+00 0. -1.
         -2    1    5    5    0  503 -0.18585441707E+03 -0.23018256581E+03  0.15912655918E+03  0.33592728348E+03  0.00000000000E+00 0.  1.
         -1    1    6    6    0  502 -0.30040879539E+02  0.20528904016E+03  0.13752458694E+02  0.20793069656E+03  0.00000000000E+00 0.  1.
<mgrwt>
<rscale>  0 0.16834965E+04</rscale>
<asrwt>0</asrwt>
<pdfrwt beam="1">  1        2 0.21320984E+00 0.16834965E+04</pdfrwt>
<pdfrwt beam="2">  1       -2 0.78655752E-01 0.16834965E+04</pdfrwt>
<totfact> 0.20171558E+01</totfact>
</mgrwt>
</event>
<event>
12    1  0.2502641E-008  0.1374808E+04  0.7818608E-02  0.8972258E-01
         -2   -1    0    0    0  501 -0.00000000000E+00  0.00000000000E+00  0.30257550151E+03  0.30257550151E+03  0.00000000000E+00 0.  1.
          2   -1    0    0  501    0  0.00000000000E+00 -0.00000000000E+00 -0.15616745804E+04  0.15616745804E+04  0.00000000000E+00 0. -1.
         23    2    1    2    0    0  0.20051008103E+03 -0.23216652609E+03 -0.67431698639E+03  0.74628144879E+03  0.90149954234E+02 0.  0.
        254    2    1    2    0    0 -0.20051008103E+03  0.23216652609E+03 -0.58478209249E+03  0.11179686331E+04  0.90209654721E+03 0.  0.
        -24    2    4    4    0    0  0.24129573532E+03  0.12117833902E+03  0.85224002163E+02  0.30370525612E+03  0.10984502865E+03 0.  0.
         24    2    4    4    0    0 -0.44180581635E+03  0.11098818708E+03 -0.67000609465E+03  0.81426337698E+03  0.81276830582E+02 0.  0.
         11    1    3    3    0    0  0.18664444240E+03 -0.20834963455E+03 -0.52929662071E+03  0.59866570872E+03  0.00000000000E+00 0. -1.
        -11    1    3    3    0    0  0.13865638627E+02 -0.23816891545E+02 -0.14502036568E+03  0.14761574008E+03  0.00000000000E+00 0.  1.
          2    1    6    6  502    0 -0.33998640309E+03  0.11959212664E+03 -0.53015707136E+03  0.64106126958E+03  0.00000000000E+00 0. -1.
          3    1    5    5  503    0  0.21686776905E+03  0.14028305939E+03  0.87260855188E+02  0.27262689312E+03  0.00000000000E+00 0. -1.
         -4    1    5    5    0  503  0.24427966274E+02 -0.19104720372E+02 -0.20368530247E+01  0.31078363004E+02  0.00000000000E+00 0.  1.
         -1    1    6    6    0  502 -0.10181941327E+03 -0.86039395631E+01 -0.13984902329E+03  0.17320210740E+03  0.00000000000E+00 0.  1.
<mgrwt>
<rscale>  0 0.13748083E+04</rscale>
<asrwt>0</asrwt>
<pdfrwt beam="1">  1        2 0.24025763E+00 0.13748083E+04</pdfrwt>
<pdfrwt beam="2">  1       -2 0.46550077E-01 0.13748083E+04</pdfrwt>
<totfact> 0.49975490E+01</totfact>
</mgrwt>
</event>
<event>
12    1  0.2502641E-008  0.1597268E+04  0.7818608E-02  0.8822228E-01
         -2   -1    0    0    0  501 -0.00000000000E+00  0.00000000000E+00  0.52901533535E+03  0.52901533535E+03  0.00000000000E+00 0.  1.
          2   -1    0    0  501    0  0.00000000000E+00 -0.00000000000E+00 -0.12056666170E+04  0.12056666170E+04  0.00000000000E+00 0. -1.
         23    2    1    2    0    0 -0.25335378742E+03  0.11960544687E+03 -0.73352237620E+03  0.79046448252E+03  0.91024267222E+02 0.  0.
        254    2    1    2    0    0  0.25335378742E+03 -0.11960544687E+03  0.56871094554E+02  0.94421746982E+03  0.89989927458E+03 0.  0.
        -24    2    4    4    0    0  0.31174826458E+03  0.28925437192E+03  0.22962894591E+03  0.48763057203E+03  0.64800075894E+02 0.  0.
         24    2    4    4    0    0 -0.58394477161E+02 -0.40885981879E+03 -0.17275785135E+03  0.45658689779E+03  0.89722091168E+02 0.  0.
         11    1    3    3    0    0 -0.24943369466E+03  0.13107459375E+03 -0.69085101643E+03  0.74610511596E+03  0.00000000000E+00 0. -1.
        -11    1    3    3    0    0 -0.39200927618E+01 -0.11469146879E+02 -0.42671359769E+02  0.44359366564E+02  0.00000000000E+00 0.  1.
          2    1    6    6  502    0 -0.22068184357E+02 -0.35124524023E+03 -0.16274275388E+03  0.38774402315E+03  0.00000000000E+00 0. -1.
          3    1    5    5  503    0  0.24117544628E+03  0.18801499933E+03  0.17818269444E+03  0.35392698182E+03  0.00000000000E+00 0. -1.
         -4    1    5    5    0  503  0.70572818294E+02  0.10123937259E+03  0.51446251470E+02  0.13370359021E+03  0.00000000000E+00 0.  1.
         -1    1    6    6    0  502 -0.36326292804E+02 -0.57614578561E+02 -0.10015097472E+02  0.68842874642E+02  0.00000000000E+00 0.  1.
<mgrwt>
<rscale>  0 0.15972678E+04</rscale>
<asrwt>0</asrwt>
<pdfrwt beam="1">  1        2 0.18548717E+00 0.15972678E+04</pdfrwt>
<pdfrwt beam="2">  1       -2 0.81386975E-01 0.15972678E+04</pdfrwt>
<totfact> 0.23972394E+01</totfact>
</mgrwt>
</event>
<event>
12    1  0.2502641E-008  0.1376582E+04  0.7818608E-02  0.8970947E-01
         -1   -1    0    0    0  501 -0.00000000000E+00  0.00000000000E+00  0.33803530281E+03  0.33803530281E+03  0.00000000000E+00 0.  1.
          1   -1    0    0  501    0  0.00000000000E+00 -0.00000000000E+00 -0.14014637523E+04  0.14014637523E+04  0.00000000000E+00 0. -1.
         23    2    1    2    0    0 -0.24349672278E+03 -0.18113402579E+03 -0.58304253277E+03  0.66351180878E+03  0.90604282793E+02 0.  0.
        254    2    1    2    0    0  0.24349672278E+03  0.18113402579E+03 -0.48038591667E+03  0.10759872463E+04  0.91371644176E+03 0.  0.
        -24    2    4    4    0    0 -0.12628778495E+03 -0.29219850991E+03 -0.66912403056E+02  0.34285065420E+03  0.10835463803E+03 0.  0.
         24    2    4    4    0    0  0.36978450773E+03  0.47333253570E+03 -0.41347351361E+03  0.73313659209E+03  0.75793434406E+02 0.  0.
         11    1    3    3    0    0 -0.25421431277E+02 -0.64676423784E+02 -0.12749328051E+03  0.14520270499E+03  0.00000000000E+00 0.  1.
        -11    1    3    3    0    0 -0.21807529150E+03 -0.11645760201E+03 -0.45554925226E+03  0.51830910379E+03  0.00000000000E+00 0. -1.
          4    1    6    6  502    0  0.29911560314E+03  0.32969807639E+03 -0.31182069073E+03  0.54350998959E+03  0.00000000000E+00 0. -1.
          1    1    5    5  503    0 -0.10580097268E+03 -0.29292436088E+03 -0.48313114889E+02  0.31517088077E+03  0.00000000000E+00 0. -1.
         -2    1    5    5    0  503 -0.20486812266E+02  0.72585097332E+00 -0.18599288167E+02  0.27679773424E+02  0.00000000000E+00 0.  1.
         -3    1    6    6    0  502  0.70668904589E+02  0.14363445931E+03 -0.10165282288E+03  0.18962660250E+03  0.00000000000E+00 0.  1.
<mgrwt>
<rscale>  0 0.13765816E+04</rscale>
<asrwt>0</asrwt>
<pdfrwt beam="1">  1        1 0.21560980E+00 0.13765816E+04</pdfrwt>
<pdfrwt beam="2">  1       -1 0.52005432E-01 0.13765816E+04</pdfrwt>
<totfact> 0.27869791E+01</totfact>
</mgrwt>
</event>
<event>
11    1  0.2502641E-008  0.1543348E+04  0.7818608E-02  0.8856128E-01
          1   -1    0    0  501    0  0.00000000000E+00  0.00000000000E+00  0.66037419333E+03  0.66037419333E+03  0.00000000000E+00 0. -1.
         -1   -1    0    0    0  501 -0.00000000000E+00 -0.00000000000E+00 -0.90173283695E+03  0.90173283695E+03  0.00000000000E+00 0.  1.
         23    2    1    2    0    0  0.30985666041E+03 -0.36257910192E+03 -0.26458524843E+03  0.55291274841E+03  0.90732565960E+02 0.  0.
        254    2    1    2    0    0 -0.30985666041E+03  0.36257910192E+03  0.23226604811E+02  0.10091942819E+04  0.88907753782E+03 0.  0.
         24    2    4    4    0    0 -0.46737371628E+03 -0.55415406125E+02 -0.93891869500E+02  0.48644265931E+03  0.79383371922E+02 0.  0.
         13    1    3    3    0    0  0.23321578758E+03 -0.31555363782E+03 -0.23894385897E+03  0.45941034996E+03  0.00000000000E+00 0.  1.
        -13    1    3    3    0    0  0.76640872831E+02 -0.47025464098E+02 -0.25641389455E+02  0.93502398446E+02  0.00000000000E+00 0. -1.
          2    1    5    5  502    0 -0.43083257467E+03 -0.28603994557E+02 -0.88989730728E+02  0.44085606277E+03  0.00000000000E+00 0. -1.
          1    1    4    4  503    0  0.21852081131E+03  0.28656689676E+03  0.52809880479E+02  0.36422632356E+03  0.00000000000E+00 0. -1.
         -2    1    4    4    0  503 -0.61003755440E+02  0.13142761128E+03  0.64308593832E+02  0.15852529901E+03  0.00000000000E+00 0.  1.
         -1    1    5    5    0  502 -0.36541141604E+02 -0.26811411567E+02 -0.49021387725E+01  0.45586596544E+02  0.00000000000E+00 0.  1.
<mgrwt>
<rscale>  0 0.15433484E+04</rscale>
<asrwt>0</asrwt>
<pdfrwt beam="1">  1        1 0.10159603E+00 0.15433484E+04</pdfrwt>
<pdfrwt beam="2">  1       -1 0.13872813E+00 0.15433484E+04</pdfrwt>
<totfact> 0.12311605E+01</totfact>
</mgrwt>
</event>
<event>
11    1  0.2502641E-008  0.2362980E+04  0.7818608E-02  0.8453495E-01
         -2   -1    0    0    0  501 -0.00000000000E+00  0.00000000000E+00  0.12957129614E+04  0.12957129614E+04  0.00000000000E+00 0.  1.
          2   -1    0    0  501    0  0.00000000000E+00 -0.00000000000E+00 -0.10773364973E+04  0.10773364973E+04  0.00000000000E+00 0. -1.
         23    2    1    2    0    0 -0.43904393861E+03  0.80894780826E+03 -0.32284334267E+03  0.97969431734E+03  0.91744182385E+02 0.  0.
        254    2    1    2    0    0  0.43904393861E+03 -0.80894780826E+03  0.54121980681E+03  0.13933551414E+04  0.89518910529E+03 0.  0.
         24    2    4    4    0    0  0.22674192903E+03 -0.40213564703E+03  0.65220377635E+03  0.80311434320E+03  0.80609561281E+02 0.  0.
         11    1    3    3    0    0 -0.18541606030E+03  0.25961641914E+03 -0.13195035970E+03  0.34524005840E+03  0.00000000000E+00 0.  1.
        -11    1    3    3    0    0 -0.25362787831E+03  0.54933138913E+03 -0.19089298297E+03  0.63445425894E+03  0.00000000000E+00 0. -1.
          2    1    5    5  502    0  0.81242304535E+02 -0.77794593309E+02  0.13883049842E+03  0.17867909247E+03  0.00000000000E+00 0. -1.
          3    1    4    4  503    0  0.23754408411E+03 -0.13329461849E+03  0.42352646178E+02  0.27565992427E+03  0.00000000000E+00 0. -1.
         -2    1    4    4    0  503 -0.25242074525E+02 -0.27351754274E+03 -0.15333661572E+03  0.31458087392E+03  0.00000000000E+00 0.  1.
         -1    1    5    5    0  502  0.14549962450E+03 -0.32434105372E+03  0.51337327794E+03  0.62443525073E+03  0.00000000000E+00 0.  1.
<mgrwt>
<rscale>  0 0.23629802E+04</rscale>
<asrwt>0</asrwt>
<pdfrwt beam="1">  1        2 0.16574408E+00 0.23629802E+04</pdfrwt>
<pdfrwt beam="2">  1       -2 0.19934046E+00 0.23629802E+04</pdfrwt>
<totfact> 0.27262164E+00</totfact>
</mgrwt>
</event>
<event>
12    1  0.2502641E-008  0.2793802E+04  0.7818608E-02  0.8305195E-01
         -1   -1    0    0    0  501 -0.00000000000E+00  0.00000000000E+00  0.17040287250E+04  0.17040287250E+04  0.00000000000E+00 0.  1.
          1   -1    0    0  501    0  0.00000000000E+00 -0.00000000000E+00 -0.11451286735E+04  0.11451286735E+04  0.00000000000E+00 0. -1.
         23    2    1    2    0    0  0.62836391783E+03  0.47612237980E+03 -0.73482379655E+03  0.10818098971E+04  0.93877088092E+02 0.  0.
        254    2    1    2    0    0 -0.62836391783E+03 -0.47612237980E+03  0.12937238481E+04  0.17673475014E+04  0.91008904062E+03 0.  0.
        -24    2    4    4    0    0 -0.60237726264E+03 -0.70587586094E+03  0.11594355487E+04  0.14866715598E+04  0.69155169561E+02 0.  0.
         24    2    4    4    0    0 -0.25986655194E+02  0.22975348114E+03  0.13428829936E+03  0.28067594161E+03  0.85344411110E+02 0.  0.
         11    1    3    3    0    0  0.41219320585E+03  0.34502497447E+03 -0.45060915722E+03  0.70142289992E+03  0.00000000000E+00 0. -1.
        -11    1    3    3    0    0  0.21617071198E+03  0.13109740533E+03 -0.28421463933E+03  0.38038699716E+03  0.00000000000E+00 0.  1.
          4    1    6    6  502    0 -0.40998279209E+02  0.90230382420E+02  0.23424566989E+02  0.10183855433E+03  0.00000000000E+00 0. -1.
          1    1    5    5  503    0 -0.40258378187E+03 -0.43870819819E+03  0.70213224687E+03  0.92061298963E+03  0.00000000000E+00 0. -1.
         -2    1    5    5    0  503 -0.19979348077E+03 -0.26716766275E+03  0.45730330185E+03  0.56605857017E+03  0.00000000000E+00 0.  1.
         -3    1    6    6    0  502  0.15011624014E+02  0.13952309872E+03  0.11086373238E+03  0.17883738728E+03  0.00000000000E+00 0.  1.
<mgrwt>
<rscale>  0 0.27938018E+04</rscale>
<asrwt>0</asrwt>
<pdfrwt beam="1">  1        1 0.17617364E+00 0.27938018E+04</pdfrwt>
<pdfrwt beam="2">  1       -1 0.26215827E+00 0.27938018E+04</pdfrwt>
<totfact> 0.59021388E-01</totfact>
</mgrwt>
</event>
<event>
12    1  0.2502641E-008  0.1847731E+04  0.7818608E-02  0.8681321E-01
          1   -1    0    0  501    0  0.00000000000E+00  0.00000000000E+00  0.21268783766E+04  0.21268783766E+04  0.00000000000E+00 0. -1.
         -1   -1    0    0    0  501 -0.00000000000E+00 -0.00000000000E+00 -0.40130523511E+03  0.40130523511E+03  0.00000000000E+00 0.  1.
         23    2    1    2    0    0 -0.38439010662E+03  0.33140633959E+03  0.42944581489E+01  0.51571893477E+03  0.91442120064E+02 0.  0.
        254    2    1    2    0    0  0.38439010662E+03 -0.33140633959E+03  0.17212786833E+04  0.20124646769E+04  0.91083909348E+03 0.  0.
        -24    2    4    4    0    0 -0.17550021951E+03  0.19044116474E+03  0.54597726302E+03  0.60769473044E+03  0.64292685320E+02 0.  0.
         24    2    4    4    0    0  0.55989032613E+03 -0.52184750433E+03  0.11753014203E+04  0.14047699465E+04  0.79013789477E+02 0.  0.
         11    1    3    3    0    0 -0.12516141266E+03  0.10662405222E+03  0.44293941761E+02  0.17028218054E+03  0.00000000000E+00 0. -1.
        -11    1    3    3    0    0 -0.25922869395E+03  0.22478228737E+03 -0.39999483612E+02  0.34543675423E+03  0.00000000000E+00 0.  1.
          4    1    6    6  502    0  0.50545328642E+02 -0.23209778059E+02  0.67490509672E+02  0.87455662715E+02  0.00000000000E+00 0. -1.
          3    1    5    5  503    0 -0.13115781799E+02  0.48732997977E+02  0.12367084096E+03  0.13357172503E+03  0.00000000000E+00 0. -1.
         -4    1    5    5    0  503 -0.16238443771E+03  0.14170816677E+03  0.42230642206E+03  0.47412300540E+03  0.00000000000E+00 0.  1.
         -3    1    6    6    0  502  0.50934499749E+03 -0.49863772627E+03  0.11078109106E+04  0.13173142838E+04  0.00000000000E+00 0.  1.
<mgrwt>
<rscale>  0 0.18477310E+04</rscale>
<asrwt>0</asrwt>
<pdfrwt beam="1">  1        1 0.32721205E+00 0.18477310E+04</pdfrwt>
<pdfrwt beam="2">  1       -1 0.61739268E-01 0.18477310E+04</pdfrwt>
<totfact> 0.61111762E+00</totfact>
</mgrwt>
</event>
<event>
12    1  0.2502641E-008  0.2436253E+04  0.7818608E-02  0.8426054E-01
         -1   -1    0    0    0  501 -0.00000000000E+00  0.00000000000E+00  0.14594116835E+04  0.14594116835E+04  0.00000000000E+00 0.  1.
          1   -1    0    0  501    0  0.00000000000E+00 -0.00000000000E+00 -0.10167329913E+04  0.10167329913E+04  0.00000000000E+00 0. -1.
         23    2    1    2    0    0 -0.35738340193E+03  0.47133004485E+03  0.10737494363E+04  0.12298315648E+04  0.98350997334E+02 0.  0.
        254    2    1    2    0    0  0.35738340193E+03 -0.47133004485E+03 -0.63107074418E+03  0.12463131100E+04  0.89731331033E+03 0.  0.
        -24    2    4    4    0    0  0.59704738983E+02  0.18091219193E+03  0.83716788164E+02  0.23073511469E+03  0.99681068826E+02 0.  0.
         24    2    4    4    0    0  0.29767866294E+03 -0.65224223678E+03 -0.71478753234E+03  0.10155779953E+04  0.80280298909E+02 0.  0.
         11    1    3    3    0    0 -0.28681739686E+03  0.41625099893E+03  0.85166767841E+03  0.99038727158E+03  0.00000000000E+00 0. -1.
        -11    1    3    3    0    0 -0.70566005065E+02  0.55079045913E+02  0.22208175787E+03  0.23944429321E+03  0.00000000000E+00 0.  1.
          2    1    6    6  502    0  0.11277064491E+02 -0.87424429666E+02 -0.89208199196E+02  0.12541254279E+03  0.00000000000E+00 0. -1.
          3    1    5    5  503    0 -0.39583535546E+01 -0.92773024650E+01  0.16257416418E+02  0.19132184728E+02  0.00000000000E+00 0. -1.
         -4    1    5    5    0  503  0.63663092538E+02  0.19018949440E+03  0.67459371746E+02  0.21160292996E+03  0.00000000000E+00 0.  1.
         -1    1    6    6    0  502  0.28640159845E+03 -0.56481780712E+03 -0.62557933314E+03  0.89016545254E+03  0.00000000000E+00 0.  1.
<mgrwt>
<rscale>  0 0.24362529E+04</rscale>
<asrwt>0</asrwt>
<pdfrwt beam="1">  1        1 0.15642046E+00 0.24362529E+04</pdfrwt>
<pdfrwt beam="2">  1       -1 0.22452487E+00 0.24362529E+04</pdfrwt>
<totfact> 0.13462942E+00</totfact>
</mgrwt>
</event>
<event>
12    1  0.2502641E-008  0.1971625E+04  0.7818608E-02  0.8620003E-01
          1   -1    0    0  501    0  0.00000000000E+00  0.00000000000E+00  0.41455432278E+03  0.41455432278E+03  0.00000000000E+00 0. -1.
         -1   -1    0    0    0  501 -0.00000000000E+00 -0.00000000000E+00 -0.23442681975E+04  0.23442681975E+04  0.00000000000E+00 0.  1.
         23    2    1    2    0    0 -0.55291762040E+02 -0.62912552954E+03 -0.15396386632E+03  0.65634854820E+03  0.90732759944E+02 0.  0.
        254    2    1    2    0    0  0.55291762040E+02  0.62912552954E+03 -0.17757500084E+04  0.21024739721E+04  0.93180072981E+03 0.  0.
        -24    2    4    4    0    0 -0.30263069575E+03  0.61335811381E+03 -0.78357189575E+03  0.10444412837E+04  0.95284655271E+02 0.  0.
         24    2    4    4    0    0  0.35792245779E+03  0.15767415732E+02 -0.99217811267E+03  0.10580326884E+04  0.81600644860E+02 0.  0.
         13    1    3    3    0    0 -0.44672973684E+02 -0.60834277569E+03 -0.16289960360E+03  0.63135797149E+03  0.00000000000E+00 0. -1.
        -13    1    3    3    0    0 -0.10618788356E+02 -0.20782753855E+02  0.89357372784E+01  0.24990576717E+02  0.00000000000E+00 0.  1.
          4    1    6    6  502    0  0.90954049520E+02  0.13744942947E+02 -0.36466109866E+03  0.37608413880E+03  0.00000000000E+00 0. -1.
          1    1    5    5  503    0  0.46339306690E+01  0.18810215057E+02 -0.10903127276E+02  0.22230062716E+02  0.00000000000E+00 0. -1.
         -2    1    5    5    0  503 -0.30726462642E+03  0.59454789875E+03 -0.77266876847E+03  0.10222112210E+04  0.00000000000E+00 0.  1.
         -3    1    6    6    0  502  0.26696840827E+03  0.20224727859E+01 -0.62751701401E+03  0.68194854959E+03  0.00000000000E+00 0.  1.
<mgrwt>
<rscale>  0 0.19716252E+04</rscale>
<asrwt>0</asrwt>
<pdfrwt beam="1">  1        1 0.63777585E-01 0.19716252E+04</pdfrwt>
<pdfrwt beam="2">  1       -1 0.36065666E+00 0.19716252E+04</pdfrwt>
<totfact> 0.70318282E-01</totfact>
</mgrwt>
</event>
<event>
12    1  0.2502641E-008  0.1758724E+04  0.7818608E-02  0.8728563E-01
         -2   -1    0    0    0  501 -0.00000000000E+00  0.00000000000E+00  0.13255381838E+04  0.13255381838E+04  0.00000000000E+00 0. -1.
          2   -1    0    0  501    0  0.00000000000E+00 -0.00000000000E+00 -0.58336876682E+03  0.58336876682E+03  0.00000000000E+00 0.  1.
         23    2    1    2    0    0 -0.59596182489E+03 -0.18222504492E+03  0.91510344594E+02  0.63649966858E+03  0.91549009888E+02 0.  0.
        254    2    1    2    0    0  0.59596182489E+03  0.18222504492E+03  0.65065907234E+03  0.12724072820E+04  0.89849129051E+03 0.  0.
        -24    2    4    4    0    0 -0.10864333850E+03 -0.14293092779E+02  0.49946989936E+03  0.52116937120E+03  0.10069590659E+03 0.  0.
         24    2    4    4    0    0  0.70460516338E+03  0.19651813770E+03  0.15118917298E+03  0.75123791080E+03  0.80077574126E+02 0.  0.
         11    1    3    3    0    0 -0.32007031648E+03 -0.98534524871E+02  0.95227275772E+02  0.34816992135E+03  0.00000000000E+00 0. -1.
        -11    1    3    3    0    0 -0.27589150841E+03 -0.83690520049E+02 -0.37169311776E+01  0.28832974723E+03  0.00000000000E+00 0.  1.
          4    1    6    6  502    0  0.57139860521E+03  0.18383047700E+03  0.14378985624E+03  0.61722405419E+03  0.00000000000E+00 0. -1.
          1    1    5    5  503    0 -0.51758910473E+02 -0.23837157699E+02  0.41494533907E+03  0.41883986118E+03  0.00000000000E+00 0. -1.
         -2    1    5    5    0  503 -0.56884428025E+02  0.95440649194E+01  0.84524560294E+02  0.10232951001E+03  0.00000000000E+00 0.  1.
         -3    1    6    6    0  502  0.13320655817E+03  0.12687660699E+02  0.73993167362E+01  0.13401385661E+03  0.00000000000E+00 0.  1.
<mgrwt>
<rscale>  0 0.17587241E+04</rscale>
<asrwt>0</asrwt>
<pdfrwt beam="1">  1        2 0.89749041E-01 0.17587241E+04</pdfrwt>
<pdfrwt beam="2">  1       -2 0.20392895E+00 0.17587241E+04</pdfrwt>
<totfact> 0.60869267E+00</totfact>
</mgrwt>
</event>
<event>
12    1  0.2502641E-008  0.2454295E+04  0.7818608E-02  0.8419451E-01
          2   -1    0    0  501    0  0.00000000000E+00  0.00000000000E+00  0.16304378948E+04  0.16304378948E+04  0.00000000000E+00 0. -1.
         -2   -1    0    0    0  501 -0.00000000000E+00 -0.00000000000E+00 -0.92361156436E+03  0.92361156436E+03  0.00000000000E+00 0.  1.
         23    2    1    2    0    0  0.96192762521E+03  0.25369265830E+03  0.69106139655E+03  0.12147928132E+04  0.92146645338E+02 0.  0.
        254    2    1    2    0    0 -0.96192762521E+03 -0.25369265830E+03  0.15764933900E+02  0.13392566459E+04  0.89649044029E+03 0.  0.
        -24    2    4    4    0    0 -0.49839469235E+03 -0.22224439444E+03  0.43823521283E+03  0.70618759899E+03  0.94132794378E+02 0.  0.
         24    2    4    4    0    0 -0.46353293286E+03 -0.31448263866E+02 -0.42247027893E+03  0.63306904695E+03  0.80271467419E+02 0.  0.
         11    1    3    3    0    0  0.45553393263E+03  0.13258351438E+03  0.38361743328E+03  0.61012448499E+03  0.00000000000E+00 0. -1.
        -11    1    3    3    0    0  0.50639369258E+03  0.12110914393E+03  0.30744396327E+03  0.60466832824E+03  0.00000000000E+00 0.  1.
          4    1    6    6  502    0 -0.30382833636E+01 -0.46489425619E+01 -0.20453354870E+02  0.21193950981E+02  0.00000000000E+00 0. -1.
          1    1    5    5  503    0 -0.36140944015E+03 -0.14971590777E+03  0.25868376438E+03  0.46898712820E+03  0.00000000000E+00 0. -1.
         -2    1    5    5    0  503 -0.13698525221E+03 -0.72528486672E+02  0.17955144846E+03  0.23720047079E+03  0.00000000000E+00 0.  1.
         -3    1    6    6    0  502 -0.46049464950E+03 -0.26799321304E+02 -0.40201692406E+03  0.61187509597E+03  0.00000000000E+00 0.  1.
<mgrwt>
<rscale>  0 0.24542953E+04</rscale>
<asrwt>0</asrwt>
<pdfrwt beam="1">  1        2 0.25083660E+00 0.24542953E+04</pdfrwt>
<pdfrwt beam="2">  1       -2 0.14209409E+00 0.24542953E+04</pdfrwt>
<totfact> 0.33175184E+00</totfact>
</mgrwt>
</event>
<event>
12    1  0.2502641E-008  0.2874840E+04  0.7818608E-02  0.8280403E-01
          2   -1    0    0  501    0  0.00000000000E+00  0.00000000000E+00  0.74839455307E+03  0.74839455307E+03  0.00000000000E+00 0. -1.
         -2   -1    0    0    0  501 -0.00000000000E+00 -0.00000000000E+00 -0.27608113589E+04  0.27608113589E+04  0.00000000000E+00 0.  1.
         23    2    1    2    0    0 -0.80325550523E+03  0.43870202802E+03  0.20964204143E+03  0.94328283133E+03  0.90298606151E+02 0.  0.
        254    2    1    2    0    0  0.80325550523E+03 -0.43870202802E+03 -0.22220588472E+04  0.25659230806E+04  0.89929798124E+03 0.  0.
        -24    2    4    4    0    0  0.87791231390E+03 -0.97744150532E+02 -0.12666930325E+04  0.15456461250E+04  0.65013500450E+02 0.  0.
         24    2    4    4    0    0 -0.74656808668E+02 -0.34095787749E+03 -0.95536581469E+03  0.10202769556E+04  0.80095648827E+02 0.  0.
         11    1    3    3    0    0 -0.57391653176E+03  0.35854375213E+03  0.15039134280E+03  0.69321812123E+03  0.00000000000E+00 0. -1.
        -11    1    3    3    0    0 -0.22933897347E+03  0.80158275888E+02  0.59250698631E+02  0.25006471009E+03  0.00000000000E+00 0.  1.
          2    1    6    6  502    0  0.32349158292E+01 -0.11336572591E+03 -0.23771121057E+03  0.26337971092E+03  0.00000000000E+00 0. -1.
          1    1    5    5  503    0  0.41666914107E+03 -0.18772690100E+02 -0.62721835061E+03  0.75323863839E+03  0.00000000000E+00 0. -1.
         -4    1    5    5    0  503  0.46124317283E+03 -0.78971460431E+02 -0.63947468193E+03  0.79240748663E+03  0.00000000000E+00 0.  1.
         -1    1    6    6    0  502 -0.77891724498E+02 -0.22759215158E+03 -0.71765460412E+03  0.75689724469E+03  0.00000000000E+00 0.  1.
<mgrwt>
<rscale>  0 0.28748399E+04</rscale>
<asrwt>0</asrwt>
<pdfrwt beam="1">  1        2 0.11513762E+00 0.28748399E+04</pdfrwt>
<pdfrwt beam="2">  1       -2 0.42474021E+00 0.28748399E+04</pdfrwt>
<totfact> 0.16575488E-01</totfact>
</mgrwt>
</event>
<event>
12    1  0.2502641E-008  0.2513841E+04  0.7818608E-02  0.8398071E-01
         -1   -1    0    0    0  501 -0.00000000000E+00  0.00000000000E+00  0.15401269564E+04  0.15401269564E+04  0.00000000000E+00 0.  1.
          1   -1    0    0  501    0  0.00000000000E+00 -0.00000000000E+00 -0.10257911796E+04  0.10257911796E+04  0.00000000000E+00 0. -1.
         23    2    1    2    0    0 -0.55878245468E+03 -0.90119779981E+03  0.48546280459E+03  0.11699401263E+04  0.93222628638E+02 0.  0.
        254    2    1    2    0    0  0.55878245468E+03  0.90119779981E+03  0.28872972162E+02  0.13959780097E+04  0.90748313984E+03 0.  0.
        -24    2    4    4    0    0  0.15971463787E+03  0.96538146038E+03 -0.10846198472E+01  0.98338781316E+03  0.97878930714E+02 0.  0.
         24    2    4    4    0    0  0.39906781681E+03 -0.64183660576E+02  0.29957592009E+02  0.41259019656E+03  0.77191633510E+02 0.  0.
         11    1    3    3    0    0 -0.20618788447E+02 -0.30802335890E+02  0.37909111206E+02  0.53019044180E+02  0.00000000000E+00 0.  1.
        -11    1    3    3    0    0 -0.53816366623E+03 -0.87039546392E+03  0.44755369339E+03  0.11169210821E+04  0.00000000000E+00 0. -1.
          2    1    6    6  502    0  0.32445450392E+03 -0.28526042317E+02  0.44151625222E+02  0.32868499542E+03  0.00000000000E+00 0. -1.
          1    1    5    5  503    0  0.56515547999E+02  0.56982486242E+03 -0.31301110214E+02  0.57347549250E+03  0.00000000000E+00 0. -1.
         -2    1    5    5    0  503  0.10319908987E+03  0.39555659797E+03  0.30216490366E+02  0.40991232067E+03  0.00000000000E+00 0.  1.
         -3    1    6    6    0  502  0.74613312887E+02 -0.35657618259E+02 -0.14194033213E+02  0.83905201142E+02  0.00000000000E+00 0.  1.
<mgrwt>
<rscale>  0 0.25138406E+04</rscale>
<asrwt>0</asrwt>
<pdfrwt beam="1">  1        1 0.15781403E+00 0.25138406E+04</pdfrwt>
<pdfrwt beam="2">  1       -1 0.23694261E+00 0.25138406E+04</pdfrwt>
<totfact> 0.10885872E+00</totfact>
</mgrwt>
</event>
<event>
12    1  0.2502641E-008  0.1731980E+04  0.7818608E-02  0.8743333E-01
          1   -1    0    0  501    0  0.00000000000E+00  0.00000000000E+00  0.28936081957E+04  0.28936081957E+04  0.00000000000E+00 0. -1.
         -1   -1    0    0    0  501 -0.00000000000E+00 -0.00000000000E+00 -0.25917063697E+03  0.25917063697E+03  0.00000000000E+00 0.  1.
         23    2    1    2    0    0 -0.61630700372E+03 -0.47277046801E+02  0.74892793151E+03  0.97526645189E+03  0.90455312688E+02 0.  0.
        254    2    1    2    0    0  0.61630700372E+03  0.47277046801E+02  0.18855096272E+04  0.21775123808E+04  0.89685236921E+03 0.  0.
        -24    2    4    4    0    0  0.14788544016E+03 -0.14598136642E+03  0.15453089477E+04  0.15621847814E+04  0.96233491137E+02 0.  0.
         24    2    4    4    0    0  0.46842156356E+03  0.19325841322E+03  0.34020067958E+03  0.61532759939E+03  0.78255841299E+02 0.  0.
         13    1    3    3    0    0 -0.70783336171E+01 -0.11717458922E+01 -0.17458498633E+01  0.73840224117E+01  0.00000000000E+00 0. -1.
        -13    1    3    3    0    0 -0.60922867010E+03 -0.46105300909E+02  0.75067378138E+03  0.96788242948E+03  0.00000000000E+00 0.  1.
          2    1    6    6  502    0  0.38474958494E+03  0.13508086032E+03  0.24409226498E+03  0.47524742583E+03  0.00000000000E+00 0. -1.
          1    1    5    5  503    0  0.14853954471E+03 -0.15783974411E+03  0.14425685753E+04  0.14587602530E+04  0.00000000000E+00 0. -1.
         -2    1    5    5    0  503 -0.65410454697E+00  0.11858377695E+02  0.10274037235E+03  0.10342452845E+03  0.00000000000E+00 0.  1.
         -1    1    6    6    0  502  0.83671978620E+02  0.58177552898E+02  0.96108414600E+02  0.14008017356E+03  0.00000000000E+00 0.  1.
<mgrwt>
<rscale>  0 0.17319795E+04</rscale>
<asrwt>0</asrwt>
<pdfrwt beam="1">  1        1 0.44517047E+00 0.17319795E+04</pdfrwt>
<pdfrwt beam="2">  1       -1 0.39872408E-01 0.17319795E+04</pdfrwt>
<totfact> 0.41647277E+00</totfact>
</mgrwt>
</event>
<event>
12    1  0.2502641E-008  0.1627797E+04  0.7818608E-02  0.8803651E-01
          4   -1    0    0  501    0  0.00000000000E+00  0.00000000000E+00  0.94914378935E+03  0.94914378935E+03  0.00000000000E+00 0.  1.
         -4   -1    0    0    0  501 -0.00000000000E+00 -0.00000000000E+00 -0.69792420763E+03  0.69792420763E+03  0.00000000000E+00 0. -1.
         23    2    1    2    0    0 -0.50832133736E+03 -0.89602562582E+02  0.30937771503E+03  0.60936010556E+03  0.95843447628E+02 0.  0.
        254    2    1    2    0    0  0.50832133736E+03  0.89602562582E+02 -0.58158133319E+02  0.10377078914E+04  0.89835187884E+03 0.  0.
        -24    2    4    4    0    0  0.59527923190E+03 -0.25145629148E+03 -0.13411373170E+03  0.66864375720E+03  0.10728630183E+03 0.  0.
         24    2    4    4    0    0 -0.86957894545E+02  0.34105885406E+03  0.75955598381E+02  0.36906413422E+03  0.80970765640E+02 0.  0.
         13    1    3    3    0    0 -0.42204584662E+03 -0.53533818310E+02  0.28707496326E+03  0.51322568222E+03  0.00000000000E+00 0.  1.
        -13    1    3    3    0    0 -0.86275490732E+02 -0.36068744273E+02  0.22302751772E+02  0.96134423341E+02  0.00000000000E+00 0. -1.
          4    1    6    6  502    0  0.15249335855E+02  0.28725685831E+02  0.76322846844E+01  0.33405973119E+02  0.00000000000E+00 0. -1.
          3    1    5    5  503    0  0.39967059046E+03 -0.13383859234E+03 -0.12732264184E+03  0.44029581511E+03  0.00000000000E+00 0. -1.
         -4    1    5    5    0  503  0.19560864144E+03 -0.11761769914E+03 -0.67910898606E+01  0.22834794209E+03  0.00000000000E+00 0.  1.
         -3    1    6    6    0  502 -0.10220723040E+03  0.31233316823E+03  0.68323313696E+02  0.33565816110E+03  0.00000000000E+00 0.  1.
<mgrwt>
<rscale>  0 0.16277966E+04</rscale>
<asrwt>0</asrwt>
<pdfrwt beam="1">  1        4 0.14602212E+00 0.16277966E+04</pdfrwt>
<pdfrwt beam="2">  1       -4 0.10737295E+00 0.16277966E+04</pdfrwt>
<totfact> 0.42591683E-01</totfact>
</mgrwt>
</event>
<event>
11    1  0.2502641E-008  0.1509477E+04  0.7818608E-02  0.8878175E-01
         -1   -1    0    0    0  501 -0.00000000000E+00  0.00000000000E+00  0.14556481527E+03  0.14556481527E+03  0.00000000000E+00 0.  1.
          1   -1    0    0  501    0  0.00000000000E+00 -0.00000000000E+00 -0.39132428248E+04  0.39132428248E+04  0.00000000000E+00 0. -1.
         23    2    1    2    0    0 -0.31471197904E+03  0.32145681538E+02 -0.22044520896E+04  0.22289152107E+04  0.91526098562E+02 0.  0.
        254    2    1    2    0    0  0.31471197904E+03 -0.32145681538E+02 -0.15632259199E+04  0.18298924293E+04  0.89708085008E+03 0.  0.
         24    2    4    4    0    0 -0.13873401151E+03 -0.19264583710E+03 -0.60833240393E+03  0.65767710410E+03  0.78174900564E+02 0.  0.
         13    1    3    3    0    0 -0.22586526370E+03  0.31458911140E+02 -0.12756689958E+04  0.12958920353E+04  0.00000000000E+00 0. -1.
        -13    1    3    3    0    0 -0.88846715339E+02  0.68677039774E+00 -0.92878309382E+03  0.93302317540E+03  0.00000000000E+00 0.  1.
          2    1    5    5  502    0  0.80486531188E+01 -0.48903454395E+00 -0.22628979862E+02  0.24022712199E+02  0.00000000000E+00 0. -1.
          3    1    4    4  503    0  0.21443544861E+03  0.23992098418E+03 -0.83182381774E+03  0.89189433456E+03  0.00000000000E+00 0. -1.
         -4    1    4    4    0  503  0.23901054195E+03 -0.79420828617E+02 -0.12306969826E+03  0.28032099067E+03  0.00000000000E+00 0.  1.
         -1    1    5    5    0  502 -0.14678266463E+03 -0.19215680256E+03 -0.58570342407E+03  0.63365439190E+03  0.00000000000E+00 0.  1.
<mgrwt>
<rscale>  0 0.15094774E+04</rscale>
<asrwt>0</asrwt>
<pdfrwt beam="1">  1        1 0.60203729E+00 0.15094774E+04</pdfrwt>
<pdfrwt beam="2">  1       -1 0.22394590E-01 0.15094774E+04</pdfrwt>
<totfact> 0.18988615E+00</totfact>
</mgrwt>
</event>
<event>
11    1  0.2502641E-008  0.4057743E+04  0.7818608E-02  0.7992998E-01
          1   -1    0    0  501    0  0.00000000000E+00  0.00000000000E+00  0.24413505289E+04  0.24413505289E+04  0.00000000000E+00 0. -1.
         -1   -1    0    0    0  501 -0.00000000000E+00 -0.00000000000E+00 -0.16860828017E+04  0.16860828017E+04  0.00000000000E+00 0.  1.
         23    2    1    2    0    0 -0.13810865916E+04  0.13211444044E+04  0.48303576467E+03  0.19734952671E+04  0.92397557466E+02 0.  0.
        254    2    1    2    0    0  0.13810865916E+04 -0.13211444044E+04  0.27223196253E+03  0.21539380635E+04  0.95525715346E+03 0.  0.
         24    2    4    4    0    0  0.12781825396E+04 -0.14388345230E+04  0.31746119565E+03  0.19522496082E+04  0.80632082472E+02 0.  0.
         11    1    3    3    0    0 -0.11571455454E+04  0.10853094589E+04  0.36856449240E+03  0.16287179682E+04  0.00000000000E+00 0. -1.
        -11    1    3    3    0    0 -0.22394104625E+03  0.23583494545E+03  0.11447127227E+03  0.34477729894E+03  0.00000000000E+00 0.  1.
          4    1    5    5  502    0  0.41036843790E+03 -0.51340299197E+03  0.90992833524E+02  0.66352436484E+03  0.00000000000E+00 0. -1.
          3    1    4    4  503    0 -0.14123558394E+01  0.56825230822E+02  0.24869454645E+02  0.62045075400E+02  0.00000000000E+00 0. -1.
         -4    1    4    4    0  503  0.10431640788E+03  0.60864887862E+02 -0.70098687764E+02  0.13964337991E+03  0.00000000000E+00 0.  1.
         -3    1    5    5    0  502  0.86781410167E+03 -0.92543153107E+03  0.22646836212E+03  0.12887252433E+04  0.00000000000E+00 0.  1.
<mgrwt>
<rscale>  0 0.40577428E+04</rscale>
<asrwt>0</asrwt>
<pdfrwt beam="1">  1        1 0.37559239E+00 0.40577428E+04</pdfrwt>
<pdfrwt beam="2">  1       -1 0.25939735E+00 0.40577428E+04</pdfrwt>
<totfact> 0.70163346E-02</totfact>
</mgrwt>
</event>
<event>
11    1  0.2502641E-008  0.1486938E+04  0.7818608E-02  0.8893186E-01
         -1   -1    0    0    0  501 -0.00000000000E+00  0.00000000000E+00  0.13868566174E+04  0.13868566174E+04  0.00000000000E+00 0.  1.
          1   -1    0    0  501    0  0.00000000000E+00 -0.00000000000E+00 -0.39856035910E+03  0.39856035910E+03  0.00000000000E+00 0. -1.
         23    2    1    2    0    0  0.42517346945E+03  0.12774746132E+02  0.81356813942E+02  0.44200725401E+03  0.88407059434E+02 0.  0.
        254    2    1    2    0    0 -0.42517346945E+03 -0.12774746132E+02  0.90693944431E+03  0.13434097224E+04  0.89513957205E+03 0.  0.
         24    2    4    4    0    0  0.30277538462E+02 -0.37338899797E+03  0.25720759252E+03  0.46123764630E+03  0.79046489951E+02 0.  0.
         11    1    3    3    0    0  0.39814705649E+03  0.14791928108E+02  0.97876401369E+02  0.41026780238E+03  0.00000000000E+00 0. -1.
        -11    1    3    3    0    0  0.27026412962E+02 -0.20171819752E+01 -0.16519587426E+02  0.31739451625E+02  0.00000000000E+00 0.  1.
          2    1    5    5  502    0 -0.88848909251E+01 -0.29061071910E+03  0.20588877276E+03  0.35626355145E+03  0.00000000000E+00 0. -1.
          1    1    4    4  503    0 -0.31953217994E+03  0.26192215294E+03  0.36355513938E+03  0.55034204599E+03  0.00000000000E+00 0. -1.
         -2    1    4    4    0  503 -0.13591882797E+03  0.98692098908E+02  0.28617671241E+03  0.33183003015E+03  0.00000000000E+00 0.  1.
         -1    1    5    5    0  502  0.39162429387E+02 -0.82778278874E+02  0.51318819764E+02  0.10497409486E+03  0.00000000000E+00 0.  1.
<mgrwt>
<rscale>  0 0.14869379E+04</rscale>
<asrwt>0</asrwt>
<pdfrwt beam="1">  1        1 0.61316979E-01 0.14869379E+04</pdfrwt>
<pdfrwt beam="2">  1       -1 0.21336255E+00 0.14869379E+04</pdfrwt>
<totfact> 0.71208879E+00</totfact>
</mgrwt>
</event>
<event>
11    1  0.2502641E-008  0.2148388E+04  0.7818608E-02  0.8540223E-01
         -2   -1    0    0    0  501 -0.00000000000E+00  0.00000000000E+00  0.54469871300E+03  0.54469871300E+03  0.00000000000E+00 0.  1.
          2   -1    0    0  501    0  0.00000000000E+00 -0.00000000000E+00 -0.21184047062E+04  0.21184047062E+04  0.00000000000E+00 0. -1.
         23    2    1    2    0    0  0.62422667191E+03 -0.25919973644E+03 -0.13462481246E+04  0.15091501678E+04  0.91141508324E+02 0.  0.
        254    2    1    2    0    0 -0.62422667191E+03  0.25919973644E+03 -0.22745786860E+03  0.11539532515E+04  0.90720867681E+03 0.  0.
         24    2    4    4    0    0  0.66483468886E+02 -0.22056330117E+03 -0.15579737601E+03  0.29030635826E+03  0.83287080731E+02 0.  0.
         11    1    3    3    0    0  0.17783042875E+03 -0.40203064566E+02 -0.42048019959E+03  0.45830507966E+03  0.00000000000E+00 0.  1.
        -11    1    3    3    0    0  0.44639624316E+03 -0.21899667188E+03 -0.92576792503E+03  0.10508450881E+04  0.00000000000E+00 0. -1.
          4    1    5    5  502    0  0.81495839214E+01 -0.79173633514E+02 -0.12219774708E+02  0.80524548156E+02  0.00000000000E+00 0. -1.
          3    1    4    4  503    0 -0.45753391842E+03  0.22736407655E+03  0.77357840383E+01  0.51097118526E+03  0.00000000000E+00 0. -1.
         -4    1    4    4    0  503 -0.23317622238E+03  0.25239896106E+03 -0.79396276627E+02  0.35267570794E+03  0.00000000000E+00 0.  1.
         -3    1    5    5    0  502  0.58333884965E+02 -0.14138966766E+03 -0.14357760130E+03  0.20978181011E+03  0.00000000000E+00 0.  1.
<mgrwt>
<rscale>  0 0.21483876E+04</rscale>
<asrwt>0</asrwt>
<pdfrwt beam="1">  1        2 0.32590842E+00 0.21483876E+04</pdfrwt>
<pdfrwt beam="2">  1       -2 0.83799801E-01 0.21483876E+04</pdfrwt>
<totfact> 0.65545298E+00</totfact>
</mgrwt>
</event>
<event>
12    1  0.2502641E-008  0.1504463E+04  0.7818608E-02  0.8881491E-01
          2   -1    0    0  501    0  0.00000000000E+00  0.00000000000E+00  0.15288866598E+04  0.15288866598E+04  0.00000000000E+00 0.  1.
         -2   -1    0    0    0  501 -0.00000000000E+00 -0.00000000000E+00 -0.37010714834E+03  0.37010714834E+03  0.00000000000E+00 0. -1.
         23    2    1    2    0    0  0.45682349681E+03  0.14530432284E+03  0.35270776883E+03  0.60188089294E+03  0.89759599066E+02 0.  0.
        254    2    1    2    0    0 -0.45682349681E+03 -0.14530432284E+03  0.80607174263E+03  0.12971129152E+04  0.89607433121E+03 0.  0.
        -24    2    4    4    0    0  0.15353883984E+03  0.39092057842E+02  0.59713612341E+03  0.62028785232E+03  0.55525719553E+02 0.  0.
         24    2    4    4    0    0 -0.61036233664E+03 -0.18439638068E+03  0.20893561923E+03  0.67682506289E+03  0.88847428616E+02 0.  0.
         11    1    3    3    0    0  0.12842324508E+03  0.56972426703E+02  0.58426472152E+02  0.15215794402E+03  0.00000000000E+00 0. -1.
        -11    1    3    3    0    0  0.32840025173E+03  0.88331896136E+02  0.29428129668E+03  0.44972294892E+03  0.00000000000E+00 0.  1.
          4    1    6    6  502    0 -0.52302621619E+03 -0.18864107277E+03  0.18782961948E+03  0.58687464004E+03  0.00000000000E+00 0. -1.
          1    1    5    5  503    0  0.12131008848E+03  0.56507871117E+01  0.43178613610E+03  0.44853911345E+03  0.00000000000E+00 0. -1.
         -4    1    5    5    0  503  0.32228751352E+02  0.33441270731E+02  0.16534998730E+03  0.17174873887E+03  0.00000000000E+00 0.  1.
         -3    1    6    6    0  502 -0.87336120449E+02  0.42446920923E+01  0.21105999749E+02  0.89950422853E+02  0.00000000000E+00 0.  1.
<mgrwt>
<rscale>  0 0.15044625E+04</rscale>
<asrwt>0</asrwt>
<pdfrwt beam="1">  1        2 0.23521333E+00 0.15044625E+04</pdfrwt>
<pdfrwt beam="2">  1       -2 0.56939562E-01 0.15044625E+04</pdfrwt>
<totfact> 0.34144289E+01</totfact>
</mgrwt>
</event>
<event>
12    1  0.2502641E-008  0.2174596E+04  0.7818608E-02  0.8529077E-01
          1   -1    0    0  501    0  0.00000000000E+00  0.00000000000E+00  0.20593175605E+04  0.20593175605E+04  0.00000000000E+00 0. -1.
         -1   -1    0    0    0  501 -0.00000000000E+00 -0.00000000000E+00 -0.57408204841E+03  0.57408204841E+03  0.00000000000E+00 0.  1.
         23    2    1    2    0    0  0.76490080977E+02  0.62942680787E+03 -0.14358614923E+03  0.65661710271E+03  0.92196520323E+02 0.  0.
        254    2    1    2    0    0 -0.76490080977E+02 -0.62942680787E+03  0.16288216614E+04  0.19767825062E+04  0.92335271350E+03 0.  0.
        -24    2    4    4    0    0 -0.31858707595E+03 -0.19713161456E+03  0.14842766806E+03  0.41365290109E+03  0.93377467902E+02 0.  0.
         24    2    4    4    0    0  0.24209699498E+03 -0.43229519332E+03  0.14803939933E+04  0.15631296052E+04  0.79483947949E+02 0.  0.
         11    1    3    3    0    0 -0.17180759958E+02  0.11939263177E+03 -0.94902441162E+01  0.12099522208E+03  0.00000000000E+00 0. -1.
        -11    1    3    3    0    0  0.93670840934E+02  0.51003417610E+03 -0.13409590511E+03  0.53562188062E+03  0.00000000000E+00 0.  1.
          2    1    6    6  502    0  0.21770289231E+03 -0.33614111626E+03  0.12401586719E+04  0.13032186812E+04  0.00000000000E+00 0. -1.
          1    1    5    5  503    0 -0.12792016641E+03 -0.90424981035E+02  0.14372041218E+02  0.15731116215E+03  0.00000000000E+00 0. -1.
         -2    1    5    5    0  503 -0.19066690954E+03 -0.10670663352E+03  0.13405562684E+03  0.25634173894E+03  0.00000000000E+00 0.  1.
         -1    1    6    6    0  502  0.24394102668E+02 -0.96154077059E+02  0.24023532135E+03  0.25991092398E+03  0.00000000000E+00 0.  1.
<mgrwt>
<rscale>  0 0.21745963E+04</rscale>
<asrwt>0</asrwt>
<pdfrwt beam="1">  1        1 0.31681808E+00 0.21745963E+04</pdfrwt>
<pdfrwt beam="2">  1       -1 0.88320316E-01 0.21745963E+04</pdfrwt>
<totfact> 0.31243718E+00</totfact>
</mgrwt>
</event>
<event>
12    1  0.2502641E-008  0.1462469E+04  0.7818608E-02  0.8909801E-01
          2   -1    0    0  501    0  0.00000000000E+00  0.00000000000E+00  0.18409495069E+04  0.18409495069E+04  0.00000000000E+00 0. -1.
         -2   -1    0    0    0  501 -0.00000000000E+00 -0.00000000000E+00 -0.29045021806E+03  0.29045021806E+03  0.00000000000E+00 0.  1.
         23    2    1    2    0    0  0.32045212055E+03 -0.81540487021E+02  0.42986682599E+02  0.34596825056E+03  0.92237535327E+02 0.  0.
        254    2    1    2    0    0 -0.32045212055E+03  0.81540487021E+02  0.15075126062E+04  0.17854314744E+04  0.89768194771E+03 0.  0.
        -24    2    4    4    0    0 -0.26447069172E+02 -0.25118684720E+03  0.12211530490E+04  0.12511578235E+04  0.10191590046E+03 0.  0.
         24    2    4    4    0    0 -0.29400505138E+03  0.33272733422E+03  0.28635955729E+03  0.53427365087E+03  0.79373098623E+02 0.  0.
         13    1    3    3    0    0  0.11150108217E+02  0.23301537611E+01  0.22043967386E+02  0.24813122092E+02  0.00000000000E+00 0. -1.
        -13    1    3    3    0    0  0.30930201234E+03 -0.83870640782E+02  0.20942715213E+02  0.32115512847E+03  0.00000000000E+00 0.  1.
          2    1    6    6  502    0 -0.48771816367E+01 -0.25475820591E+01  0.12593465626E+02  0.13743087409E+02  0.00000000000E+00 0. -1.
          3    1    5    5  503    0 -0.28686903578E+02 -0.39755836830E+02  0.11559077593E+03  0.12555752657E+03  0.00000000000E+00 0. -1.
         -4    1    5    5    0  503  0.22398344055E+01 -0.21143101037E+03  0.11055622730E+04  0.11256002970E+04  0.00000000000E+00 0.  1.
         -1    1    6    6    0  502 -0.28912786974E+03  0.33527491628E+03  0.27376609166E+03  0.52053056346E+03  0.00000000000E+00 0.  1.
<mgrwt>
<rscale>  0 0.14624694E+04</rscale>
<asrwt>0</asrwt>
<pdfrwt beam="1">  1        2 0.28322300E+00 0.14624694E+04</pdfrwt>
<pdfrwt beam="2">  1       -2 0.44684650E-01 0.14624694E+04</pdfrwt>
<totfact> 0.37685602E+01</totfact>
</mgrwt>
</event>
<event>
12    1  0.2502641E-008  0.2253283E+04  0.7818608E-02  0.8496572E-01
         -1   -1    0    0    0  501 -0.00000000000E+00  0.00000000000E+00  0.54287618997E+03  0.54287618997E+03  0.00000000000E+00 0.  1.
          1   -1    0    0  501    0  0.00000000000E+00 -0.00000000000E+00 -0.23381403072E+04  0.23381403072E+04  0.00000000000E+00 0. -1.
         23    2    1    2    0    0 -0.14732756501E+03 -0.75918610179E+03 -0.15789527496E+04  0.17605082428E+04  0.90711295028E+02 0.  0.
        254    2    1    2    0    0  0.14732756501E+03  0.75918610179E+03 -0.21631136764E+03  0.11205082544E+04  0.78145965459E+03 0.  0.
        -24    2    4    4    0    0  0.11532621521E+03  0.72982242356E+02  0.23959055763E+03  0.29199244589E+03  0.96069815932E+02 0.  0.
         24    2    4    4    0    0  0.32001349792E+02  0.68620385943E+03 -0.45590192528E+03  0.82851580847E+03  0.81804989658E+02 0.  0.
         11    1    3    3    0    0 -0.44333626018E+02 -0.91475024506E+02 -0.17303820672E+03  0.20068724795E+03  0.00000000000E+00 0.  1.
        -11    1    3    3    0    0 -0.10299393899E+03 -0.66771107728E+03 -0.14059145428E+04  0.15598209948E+04  0.00000000000E+00 0. -1.
          2    1    6    6  502    0  0.17129153377E+02  0.31346855556E+03 -0.25732887645E+03  0.40592375377E+03  0.00000000000E+00 0. -1.
          1    1    5    5  503    0  0.75760126230E+02 -0.85837648336E+01  0.10917943621E+03  0.13316691420E+03  0.00000000000E+00 0. -1.
         -2    1    5    5    0  503  0.39566088984E+02  0.81566007190E+02  0.13041112142E+03  0.15882553169E+03  0.00000000000E+00 0.  1.
         -1    1    6    6    0  502  0.14872196415E+02  0.37273530387E+03 -0.19857304883E+03  0.42259205470E+03  0.00000000000E+00 0.  1.
<mgrwt>
<rscale>  0 0.22532827E+04</rscale>
<asrwt>0</asrwt>
<pdfrwt beam="1">  1        1 0.35971389E+00 0.22532827E+04</pdfrwt>
<pdfrwt beam="2">  1       -1 0.83519413E-01 0.22532827E+04</pdfrwt>
<totfact> 0.22613585E+00</totfact>
</mgrwt>
</event>
<event>
11    1  0.2502641E-008  0.1771276E+04  0.7818608E-02  0.8721726E-01
         -1   -1    0    0    0  501 -0.00000000000E+00  0.00000000000E+00  0.15661747672E+04  0.15661747672E+04  0.00000000000E+00 0.  1.
          1   -1    0    0  501    0  0.00000000000E+00 -0.00000000000E+00 -0.50080893992E+03  0.50080893992E+03  0.00000000000E+00 0. -1.
         23    2    1    2    0    0  0.38914066669E+03 -0.13629120313E+03  0.99404510020E+03  0.10798717965E+04  0.89396226003E+02 0.  0.
        254    2    1    2    0    0 -0.38914066669E+03  0.13629120313E+03  0.71320727057E+02  0.98711191054E+03  0.89403441058E+03 0.  0.
         24    2    4    4    0    0  0.61693451178E+02  0.32177097996E+03 -0.22457722461E+03  0.40542018665E+03  0.81166202712E+02 0.  0.
         13    1    3    3    0    0  0.35772424759E+02  0.10512089770E+00  0.15838814265E+03  0.16237758822E+03  0.00000000000E+00 0. -1.
        -13    1    3    3    0    0  0.35336824194E+03 -0.13639632403E+03  0.83565695754E+03  0.91749420832E+03  0.00000000000E+00 0.  1.
          2    1    5    5  502    0  0.10750810283E+02 -0.79757480419E+00 -0.48972677632E+01  0.11840577640E+02  0.00000000000E+00 0. -1.
          3    1    4    4  503    0 -0.92554497524E+02 -0.75542400603E+02  0.33115089283E+02  0.12397418457E+03  0.00000000000E+00 0. -1.
         -4    1    4    4    0  503 -0.35827962035E+03 -0.10993737623E+03  0.26278286238E+03  0.45771753933E+03  0.00000000000E+00 0.  1.
         -1    1    5    5    0  502  0.50942640895E+02  0.32256855477E+03 -0.21967995684E+03  0.39357960901E+03  0.00000000000E+00 0.  1.
<mgrwt>
<rscale>  0 0.17712756E+04</rscale>
<asrwt>0</asrwt>
<pdfrwt beam="1">  1        1 0.77047530E-01 0.17712756E+04</pdfrwt>
<pdfrwt beam="2">  1       -1 0.24094996E+00 0.17712756E+04</pdfrwt>
<totfact> 0.33431149E+00</totfact>
</mgrwt>
</event>
<event>
12    1  0.2502641E-008  0.1344880E+04  0.7818608E-02  0.8994713E-01
          2   -1    0    0  501    0  0.00000000000E+00  0.00000000000E+00  0.24304407432E+04  0.24304407432E+04  0.00000000000E+00 0.  1.
         -2   -1    0    0    0  501 -0.00000000000E+00 -0.00000000000E+00 -0.18604663944E+03  0.18604663944E+03  0.00000000000E+00 0. -1.
         23    2    1    2    0    0  0.20409866727E+03  0.29316247099E+03  0.70270460438E+03  0.79370631890E+03  0.92603775663E+02 0.  0.
        254    2    1    2    0    0 -0.20409866727E+03 -0.29316247099E+03  0.15416894994E+04  0.18227810637E+04  0.90450195878E+03 0.  0.
        -24    2    4    4    0    0  0.21802157866E+03 -0.15003249716E+03  0.78637549119E+02  0.29129284220E+03  0.92868169031E+02 0.  0.
         24    2    4    4    0    0 -0.42212024593E+03 -0.14312997382E+03  0.14630519502E+04  0.15314882215E+04  0.79142100691E+02 0.  0.
         13    1    3    3    0    0  0.63194039857E+02  0.12524216940E+03  0.36569085411E+03  0.39167446744E+03  0.00000000000E+00 0.  1.
        -13    1    3    3    0    0  0.14090462741E+03  0.16792030159E+03  0.33701375027E+03  0.40203185145E+03  0.00000000000E+00 0. -1.
          2    1    6    6  502    0 -0.41131331624E+03 -0.12610263508E+03  0.13579150970E+04  0.14244345998E+04  0.00000000000E+00 0. -1.
          1    1    5    5  503    0  0.14658484962E+03 -0.11733026138E+03  0.11777204366E+02  0.18812817683E+03  0.00000000000E+00 0. -1.
         -2    1    5    5    0  503  0.71436729042E+02 -0.32702235786E+02  0.66860344753E+02  0.10316466538E+03  0.00000000000E+00 0.  1.
         -1    1    6    6    0  502 -0.10806929687E+02 -0.17027338742E+02  0.10513685329E+03  0.10705362167E+03  0.00000000000E+00 0.  1.
<mgrwt>
<rscale>  0 0.13448797E+04</rscale>
<asrwt>0</asrwt>
<pdfrwt beam="1">  1        2 0.37391394E+00 0.13448797E+04</pdfrwt>
<pdfrwt beam="2">  1       -2 0.28622562E-01 0.13448797E+04</pdfrwt>
<totfact> 0.41911236E+01</totfact>
</mgrwt>
</event>
<event>
11    1  0.2502641E-008  0.1028369E+04  0.7818608E-02  0.9277966E-01
          2   -1    0    0  501    0  0.00000000000E+00  0.00000000000E+00  0.21588322944E+04  0.21588322944E+04  0.00000000000E+00 0. -1.
         -2   -1    0    0    0  501 -0.00000000000E+00 -0.00000000000E+00 -0.12246693203E+03  0.12246693203E+03  0.00000000000E+00 0.  1.
         23    2    1    2    0    0 -0.93839998693E+01 -0.12266691488E+03  0.31437966006E+03  0.35030393132E+03  0.93504236177E+02 0.  0.
        254    2    1    2    0    0  0.93839998693E+01  0.12266691488E+03  0.17219857023E+04  0.19309952951E+04  0.86508545200E+03 0.  0.
         24    2    4    4    0    0 -0.11799165654E+03  0.15012737094E+03  0.78321840799E+03  0.81013045893E+03  0.80125073190E+02 0.  0.
         13    1    3    3    0    0  0.62303313189E+01  0.65708293268E+01  0.93350559592E+02  0.93788697627E+02  0.00000000000E+00 0. -1.
        -13    1    3    3    0    0 -0.15614331188E+02 -0.12923774420E+03  0.22102910046E+03  0.25651523369E+03  0.00000000000E+00 0.  1.
          4    1    5    5  502    0  0.11819278536E+02  0.15733843729E+02  0.58922940671E+02  0.62122154832E+02  0.00000000000E+00 0. -1.
          1    1    4    4  503    0  0.36349052485E+03  0.11124320166E+02  0.65958425481E+03  0.75319353513E+03  0.00000000000E+00 0. -1.
         -2    1    4    4    0  503 -0.23611486844E+03 -0.38584776228E+02  0.27918303947E+03  0.36767130101E+03  0.00000000000E+00 0.  1.
         -3    1    5    5    0  502 -0.12981093508E+03  0.13439352721E+03  0.72429546732E+03  0.74800830409E+03  0.00000000000E+00 0.  1.
<mgrwt>
<rscale>  0 0.10283687E+04</rscale>
<asrwt>0</asrwt>
<pdfrwt beam="1">  1        2 0.33212802E+00 0.10283687E+04</pdfrwt>
<pdfrwt beam="2">  1       -2 0.18841068E-01 0.10283687E+04</pdfrwt>
<totfact> 0.12953404E+02</totfact>
</mgrwt>
</event>
<event>
11    1  0.2502641E-008  0.2115609E+04  0.7818608E-02  0.8554398E-01
          2   -1    0    0  501    0  0.00000000000E+00  0.00000000000E+00  0.12446376199E+04  0.12446376199E+04  0.00000000000E+00 0. -1.
         -2   -1    0    0    0  501 -0.00000000000E+00 -0.00000000000E+00 -0.89901731686E+03  0.89901731686E+03  0.00000000000E+00 0.  1.
         23    2    1    2    0    0  0.81722371125E+03  0.28107683969E+03  0.15560721737E+03  0.88297670692E+03  0.92603859634E+02 0.  0.
        254    2    1    2    0    0 -0.81722371125E+03 -0.28107683969E+03  0.19001308566E+03  0.12606782298E+04  0.89796761768E+03 0.  0.
         24    2    4    4    0    0  0.24523066711E+02  0.10602516289E+03 -0.20460776796E+03  0.24549027140E+03  0.80984064330E+02 0.  0.
         13    1    3    3    0    0  0.42526256076E+01 -0.55955839604E+01  0.10347432926E+00  0.70289466745E+01  0.00000000000E+00 0.  1.
        -13    1    3    3    0    0  0.81297108565E+03  0.28667242365E+03  0.15550374304E+03  0.87594776024E+03  0.00000000000E+00 0. -1.
          2    1    5    5  502    0  0.13092887638E+02  0.10564244952E+03 -0.20791792873E+03  0.23358428016E+03  0.00000000000E+00 0. -1.
          3    1    4    4  503    0 -0.76384207303E+03 -0.35568946840E+03  0.39636931368E+03  0.93117041582E+03  0.00000000000E+00 0. -1.
         -4    1    4    4    0  503 -0.77904704929E+02 -0.31412534179E+02 -0.17484600586E+01  0.84017542610E+02  0.00000000000E+00 0.  1.
         -1    1    5    5    0  502  0.11430179072E+02  0.38271336990E+00  0.33101607727E+01  0.11905991244E+02  0.00000000000E+00 0.  1.
<mgrwt>
<rscale>  0 0.21156094E+04</rscale>
<asrwt>0</asrwt>
<pdfrwt beam="1">  1        2 0.19148271E+00 0.21156094E+04</pdfrwt>
<pdfrwt beam="2">  1       -2 0.13831036E+00 0.21156094E+04</pdfrwt>
<totfact> 0.60792075E+00</totfact>
</mgrwt>
</event>
<event>
12    1  0.2502641E-008  0.1434641E+04  0.7818608E-02  0.8929118E-01
         -2   -1    0    0    0  501 -0.00000000000E+00  0.00000000000E+00  0.21923540041E+03  0.21923540041E+03  0.00000000000E+00 0.  1.
          2   -1    0    0  501    0  0.00000000000E+00 -0.00000000000E+00 -0.23470162519E+04  0.23470162519E+04  0.00000000000E+00 0. -1.
         23    2    1    2    0    0 -0.16038201995E+03  0.35962775502E+03 -0.92103256974E+03  0.10058763763E+04  0.91824698877E+02 0.  0.
        254    2    1    2    0    0  0.16038201995E+03 -0.35962775502E+03 -0.12067482818E+04  0.15603752761E+04  0.90745527277E+03 0.  0.
        -24    2    4    4    0    0 -0.10707087118E+03  0.10867223510E+03  0.48305021833E+02  0.19211129635E+03  0.10629933639E+03 0.  0.
         24    2    4    4    0    0  0.26745289113E+03 -0.46829999012E+03 -0.12550533036E+04  0.13682639797E+04  0.78432095191E+02 0.  0.
         13    1    3    3    0    0 -0.34014287319E+02  0.45842226383E+02 -0.71635213540E+02  0.91597408700E+02  0.00000000000E+00 0.  1.
        -13    1    3    3    0    0 -0.12636773263E+03  0.31378552863E+03 -0.84939735620E+03  0.91427896757E+03  0.00000000000E+00 0. -1.
          2    1    6    6  502    0  0.17575251959E+03 -0.37460149141E+03 -0.94298533614E+03  0.10297750093E+04  0.00000000000E+00 0. -1.
          1    1    5    5  503    0  0.85770834473E+01  0.39887510597E+02 -0.14917553283E+02  0.43440916864E+02  0.00000000000E+00 0. -1.
         -2    1    5    5    0  503 -0.11564795462E+03  0.68784724500E+02  0.63222575116E+02  0.14867037949E+03  0.00000000000E+00 0.  1.
         -1    1    6    6    0  502  0.91700371542E+02 -0.93698498709E+02 -0.31206796748E+03  0.33848897047E+03  0.00000000000E+00 0.  1.
<mgrwt>
<rscale>  0 0.14346415E+04</rscale>
<asrwt>0</asrwt>
<pdfrwt beam="1">  1        2 0.36107944E+00 0.14346415E+04</pdfrwt>
<pdfrwt beam="2">  1       -2 0.33728522E-01 0.14346415E+04</pdfrwt>
<totfact> 0.34102793E+01</totfact>
</mgrwt>
</event>
<event>
12    1  0.2502641E-008  0.1149703E+04  0.7818608E-02  0.9158057E-01
         -2   -1    0    0    0  501 -0.00000000000E+00  0.00000000000E+00  0.38342167561E+03  0.38342167561E+03  0.00000000000E+00 0. -1.
          2   -1    0    0  501    0  0.00000000000E+00 -0.00000000000E+00 -0.86185613950E+03  0.86185613950E+03  0.00000000000E+00 0.  1.
         23    2    1    2    0    0 -0.55864199896E+02  0.19684457851E+03 -0.10900647245E+03  0.24921411184E+03  0.91414799583E+02 0.  0.
        254    2    1    2    0    0  0.55864199896E+02 -0.19684457851E+03 -0.36942799144E+03  0.99606370327E+03  0.90210712401E+03 0.  0.
        -24    2    4    4    0    0  0.41280714633E+03 -0.32574595108E+03 -0.19189406937E+03  0.56967856742E+03  0.10578360748E+03 0.  0.
         24    2    4    4    0    0 -0.35694294644E+03  0.12890137257E+03 -0.17753392207E+03  0.42638513585E+03  0.79133808983E+02 0.  0.
         11    1    3    3    0    0 -0.19820036233E+02  0.96135899195E+02 -0.10269939339E+03  0.14206375453E+03  0.00000000000E+00 0.  1.
        -11    1    3    3    0    0 -0.36044163663E+02  0.10070867932E+03 -0.63070790668E+01  0.10715035730E+03  0.00000000000E+00 0. -1.
          2    1    6    6  502    0 -0.35570901585E+03  0.11523225895E+03 -0.17228417111E+03  0.41169067645E+03  0.00000000000E+00 0. -1.
          1    1    5    5  503    0  0.24302753416E+03 -0.25444528339E+03 -0.13615683580E+03  0.37728433381E+03  0.00000000000E+00 0. -1.
         -2    1    5    5    0  503  0.16977961217E+03 -0.71300667688E+02 -0.55737233576E+02  0.19239423362E+03  0.00000000000E+00 0.  1.
         -1    1    6    6    0  502 -0.12339305831E+01  0.13669113617E+02 -0.52497509644E+01  0.14694459396E+02  0.00000000000E+00 0.  1.
<mgrwt>
<rscale>  0 0.11497031E+04</rscale>
<asrwt>0</asrwt>
<pdfrwt beam="1">  1        2 0.13259325E+00 0.11497031E+04</pdfrwt>
<pdfrwt beam="2">  1       -2 0.58987951E-01 0.11497031E+04</pdfrwt>
<totfact> 0.82780638E+01</totfact>
</mgrwt>
</event>
<event>
12    1  0.2502641E-008  0.2376933E+04  0.7818608E-02  0.8448190E-01
         -2   -1    0    0    0  501 -0.00000000000E+00  0.00000000000E+00  0.70356349600E+03  0.70356349600E+03  0.00000000000E+00 0.  1.
          2   -1    0    0  501    0  0.00000000000E+00 -0.00000000000E+00 -0.20075697268E+04  0.20075697268E+04  0.00000000000E+00 0. -1.
         23    2    1    2    0    0  0.11574360341E+03 -0.50428401618E+03  0.43952653949E+03  0.68487419082E+03  0.90388758347E+02 0.  0.
        254    2    1    2    0    0 -0.11574360341E+03  0.50428401618E+03 -0.17435327703E+04  0.20262590320E+04  0.89337572885E+03 0.  0.
        -24    2    4    4    0    0 -0.42640678233E+03  0.55567132776E+03 -0.11646540827E+04  0.13621506400E+04  0.91879623219E+02 0.  0.
         24    2    4    4    0    0  0.31066317891E+03 -0.51387311585E+02 -0.57887868756E+03  0.66410839196E+03  0.82384190462E+02 0.  0.
         11    1    3    3    0    0  0.49217113155E+02 -0.36556683559E+03  0.33988131487E+03  0.50157825283E+03  0.00000000000E+00 0.  1.
        -11    1    3    3    0    0  0.66526490260E+02 -0.13871718058E+03  0.99645224621E+02  0.18329593800E+03  0.00000000000E+00 0. -1.
          2    1    6    6  502    0  0.11922911029E+03 -0.21794714274E+02 -0.14523026607E+03  0.18916241829E+03  0.00000000000E+00 0. -1.
          1    1    5    5  503    0 -0.38688937323E+02  0.16364904696E+02 -0.77350922154E+02  0.88021640152E+02  0.00000000000E+00 0. -1.
         -2    1    5    5    0  503 -0.38771784501E+03  0.53930642307E+03 -0.10873031606E+04  0.12741289998E+04  0.00000000000E+00 0.  1.
         -1    1    6    6    0  502  0.19143406863E+03 -0.29592597311E+02 -0.43364842149E+03  0.47494597368E+03  0.00000000000E+00 0.  1.
<mgrwt>
<rscale>  0 0.23769331E+04</rscale>
<asrwt>0</asrwt>
<pdfrwt beam="1">  1        2 0.30885687E+00 0.23769331E+04</pdfrwt>
<pdfrwt beam="2">  1       -2 0.10824054E+00 0.23769331E+04</pdfrwt>
<totfact> 0.40723056E+00</totfact>
</mgrwt>
</event>
<event>
12    1  0.2502641E-008  0.2416371E+04  0.7818608E-02  0.8433400E-01
         -1   -1    0    0    0  501 -0.00000000000E+00  0.00000000000E+00  0.67869626344E+03  0.67869626344E+03  0.00000000000E+00 0.  1.
          1   -1    0    0  501    0  0.00000000000E+00 -0.00000000000E+00 -0.21507588035E+04  0.21507588035E+04  0.00000000000E+00 0. -1.
         23    2    1    2    0    0  0.35233552519E+03 -0.33912790980E+02 -0.17846047270E+04  0.18215711796E+04  0.89538434656E+02 0.  0.
        254    2    1    2    0    0 -0.35233552519E+03  0.33912790980E+02  0.31254218686E+03  0.10078838874E+04  0.89042512999E+03 0.  0.
        -24    2    4    4    0    0 -0.47252292156E+00 -0.32796045693E+03  0.35828997585E+03  0.49476796480E+03  0.94155974875E+02 0.  0.
         24    2    4    4    0    0 -0.35186300226E+03  0.36187324791E+03 -0.45747788986E+02  0.51311592255E+03  0.80220133774E+02 0.  0.
         11    1    3    3    0    0  0.28089516883E+03  0.91201553909E+01 -0.14208049571E+04  0.14483342153E+04  0.00000000000E+00 0. -1.
        -11    1    3    3    0    0  0.71440356357E+02 -0.43032946370E+02 -0.36379976986E+03  0.37323696432E+03  0.00000000000E+00 0.  1.
          2    1    6    6  502    0  0.42420158450E+01  0.52720883188E+01 -0.28217424899E+01  0.73315649318E+01  0.00000000000E+00 0. -1.
          3    1    5    5  503    0  0.43052760301E+02 -0.96290727153E+02  0.11241459077E+03  0.15415084990E+03  0.00000000000E+00 0. -1.
         -4    1    5    5    0  503 -0.43525283223E+02 -0.23166972978E+03  0.24587538508E+03  0.34061711490E+03  0.00000000000E+00 0.  1.
         -1    1    6    6    0  502 -0.35610501811E+03  0.35660115959E+03 -0.42926046497E+02  0.50578435762E+03  0.00000000000E+00 0.  1.
<mgrwt>
<rscale>  0 0.24163708E+04</rscale>
<asrwt>0</asrwt>
<pdfrwt beam="1">  1        1 0.33088597E+00 0.24163708E+04</pdfrwt>
<pdfrwt beam="2">  1       -1 0.10441481E+00 0.24163708E+04</pdfrwt>
<totfact> 0.18161434E+00</totfact>
</mgrwt>
</event>
<event>
11    1  0.2502641E-008  0.2008045E+04  0.7818608E-02  0.8602869E-01
          2   -1    0    0  501    0  0.00000000000E+00  0.00000000000E+00  0.29922567973E+04  0.29922567973E+04  0.00000000000E+00 0. -1.
         -2   -1    0    0    0  501 -0.00000000000E+00 -0.00000000000E+00 -0.33688984627E+03  0.33688984627E+03  0.00000000000E+00 0.  1.
         23    2    1    2    0    0  0.23187794250E+03  0.16022376564E+03  0.23032272933E+04  0.23222137366E+04  0.91551288156E+02 0.  0.
        254    2    1    2    0    0 -0.23187794250E+03 -0.16022376564E+03  0.35213965771E+03  0.10069329070E+04  0.90026246470E+03 0.  0.
         24    2    4    4    0    0  0.16613422067E+03 -0.11606251050E+03 -0.20661542952E+03  0.30094569675E+03  0.82506309201E+02 0.  0.
         13    1    3    3    0    0  0.45775062206E+02  0.62899311196E+02  0.40496038570E+03  0.41236463676E+03  0.00000000000E+00 0.  1.
        -13    1    3    3    0    0  0.18610288030E+03  0.97324454441E+02  0.18982669076E+04  0.19098490998E+04  0.00000000000E+00 0. -1.
          4    1    5    5  502    0  0.10503687843E+03 -0.11612608637E+03 -0.16190761223E+03  0.22523784909E+03  0.00000000000E+00 0. -1.
          1    1    4    4  503    0 -0.38651647319E+03 -0.62599895276E+01  0.53416512203E+03  0.65936829550E+03  0.00000000000E+00 0. -1.
         -2    1    4    4    0  503 -0.11495689981E+02 -0.37901265610E+02  0.24589965205E+02  0.46618914742E+02  0.00000000000E+00 0.  1.
         -1    1    5    5    0  502  0.61097342242E+02  0.63575867345E-01 -0.44707817282E+02  0.75707847658E+02  0.00000000000E+00 0.  1.
<mgrwt>
<rscale>  0 0.20080448E+04</rscale>
<asrwt>0</asrwt>
<pdfrwt beam="1">  1        2 0.46034718E+00 0.20080448E+04</pdfrwt>
<pdfrwt beam="2">  1       -2 0.51829209E-01 0.20080448E+04</pdfrwt>
<totfact> 0.57602405E+00</totfact>
</mgrwt>
</event>
<event>
12    1  0.2502641E-008  0.1756318E+04  0.7818608E-02  0.8729880E-01
          2   -1    0    0  501    0  0.00000000000E+00  0.00000000000E+00  0.16535094623E+04  0.16535094623E+04  0.00000000000E+00 0. -1.
         -2   -1    0    0    0  501 -0.00000000000E+00 -0.00000000000E+00 -0.46637962758E+03  0.46637962758E+03  0.00000000000E+00 0.  1.
         23    2    1    2    0    0 -0.60734141392E+02 -0.62946701064E+03  0.34584493477E+03  0.72666793597E+03  0.92305020702E+02 0.  0.
        254    2    1    2    0    0  0.60734141392E+02  0.62946701064E+03  0.84128489997E+03  0.13932211539E+04  0.91290062298E+03 0.  0.
        -24    2    4    4    0    0 -0.26461136360E+03  0.71020574813E+03  0.63873856210E+03  0.99355287269E+03  0.68912855815E+02 0.  0.
         24    2    4    4    0    0  0.32534550499E+03 -0.80738737490E+02  0.20254633787E+03  0.39966828124E+03  0.79632121000E+02 0.  0.
         13    1    3    3    0    0  0.20823675256E+01 -0.94577290169E+02  0.89416591293E+02  0.13017114453E+03  0.00000000000E+00 0.  1.
        -13    1    3    3    0    0 -0.62816508918E+02 -0.53488972047E+03  0.25642834347E+03  0.59649679144E+03  0.00000000000E+00 0. -1.
          4    1    6    6  502    0  0.24449371669E+03 -0.89552229161E+02  0.17532125188E+03  0.31390176905E+03  0.00000000000E+00 0. -1.
          1    1    5    5  503    0 -0.23119386183E+03  0.64172483955E+03  0.54731115856E+03  0.87453466239E+03  0.00000000000E+00 0. -1.
         -2    1    5    5    0  503 -0.33417501766E+02  0.68480908581E+02  0.91427403540E+02  0.11901821030E+03  0.00000000000E+00 0.  1.
         -3    1    6    6    0  502  0.80851788299E+02  0.88134916710E+01  0.27225085990E+02  0.85766512193E+02  0.00000000000E+00 0.  1.
<mgrwt>
<rscale>  0 0.17563179E+04</rscale>
<asrwt>0</asrwt>
<pdfrwt beam="1">  1        2 0.25438607E+00 0.17563179E+04</pdfrwt>
<pdfrwt beam="2">  1       -2 0.71750713E-01 0.17563179E+04</pdfrwt>
<totfact> 0.17364027E+01</totfact>
</mgrwt>
</event>
<event>
12    1  0.2502641E-008  0.1949639E+04  0.7818608E-02  0.8630535E-01
         -2   -1    0    0    0  501 -0.00000000000E+00  0.00000000000E+00  0.73802283721E+03  0.73802283721E+03  0.00000000000E+00 0.  1.
          2   -1    0    0  501    0  0.00000000000E+00 -0.00000000000E+00 -0.12875928312E+04  0.12875928312E+04  0.00000000000E+00 0. -1.
         23    2    1    2    0    0 -0.58216813606E+03  0.40910082775E+03  0.77107891369E+02  0.72172485700E+03  0.93047925284E+02 0.  0.
        254    2    1    2    0    0  0.58216813606E+03 -0.40910082775E+03 -0.62667788539E+03  0.13038908114E+04  0.89505466325E+03 0.  0.
        -24    2    4    4    0    0  0.52999392315E+03 -0.13319818677E+03  0.60581322725E+02  0.55723063933E+03  0.90557016382E+02 0.  0.
         24    2    4    4    0    0  0.52174212913E+02 -0.27590264097E+03 -0.68725920811E+03  0.74666017210E+03  0.79572468086E+02 0.  0.
         13    1    3    3    0    0 -0.48214508552E+02  0.20832670889E+02 -0.16207904065E+02  0.54966673225E+02  0.00000000000E+00 0. -1.
        -13    1    3    3    0    0 -0.53395362751E+03  0.38826815686E+03  0.93315795434E+02  0.66675818378E+03  0.00000000000E+00 0.  1.
          2    1    6    6  502    0 -0.18664003864E+02 -0.91912442112E+02 -0.19482032870E+03  0.21622026392E+03  0.00000000000E+00 0. -1.
          1    1    5    5  503    0 -0.15096533723E+01 -0.45292687443E+01  0.59847861261E+01  0.76557817130E+01  0.00000000000E+00 0. -1.
         -2    1    5    5    0  503  0.53150357652E+03 -0.12866891803E+03  0.54596536599E+02  0.54957485762E+03  0.00000000000E+00 0.  1.
         -1    1    6    6    0  502  0.70838216776E+02 -0.18399019886E+03 -0.49243887941E+03  0.53043990818E+03  0.00000000000E+00 0.  1.
<mgrwt>
<rscale>  0 0.19496389E+04</rscale>
<asrwt>0</asrwt>
<pdfrwt beam="1">  1        2 0.19809120E+00 0.19496389E+04</pdfrwt>
<pdfrwt beam="2">  1       -2 0.11354198E+00 0.19496389E+04</pdfrwt>
<totfact> 0.95404668E+00</totfact>
</mgrwt>
</event>
<event>
11    1  0.2502641E-008  0.1412855E+04  0.7818608E-02  0.8944566E-01
         -2   -1    0    0    0  501 -0.00000000000E+00  0.00000000000E+00  0.22764536361E+03  0.22764536361E+03  0.00000000000E+00 0.  1.
          2   -1    0    0  501    0  0.00000000000E+00 -0.00000000000E+00 -0.21921805971E+04  0.21921805971E+04  0.00000000000E+00 0. -1.
         23    2    1    2    0    0 -0.27003659504E+03 -0.30187982845E+03 -0.61266856859E+03  0.73956574011E+03  0.86853414019E+02 0.  0.
        254    2    1    2    0    0  0.27003659504E+03  0.30187982845E+03 -0.13518666649E+04  0.16802602206E+04  0.91196476674E+03 0.  0.
         24    2    4    4    0    0  0.18189148892E+03  0.25782612988E+03 -0.14542367038E+04  0.14902225772E+04  0.80000698779E+02 0.  0.
         11    1    3    3    0    0 -0.30383012335E+02 -0.20850218479E+02 -0.10850792523E+03  0.11459419221E+03  0.00000000000E+00 0. -1.
        -11    1    3    3    0    0 -0.23965358271E+03 -0.28102960997E+03 -0.50416064336E+03  0.62497154791E+03  0.00000000000E+00 0.  1.
          2    1    5    5  502    0  0.22132750778E+01  0.43094954415E+02 -0.14033137615E+03  0.14681610544E+03  0.00000000000E+00 0. -1.
          3    1    4    4  503    0  0.67220998721E+02  0.88287301549E+02  0.66504326948E+02  0.12936821784E+03  0.00000000000E+00 0. -1.
         -4    1    4    4    0  503  0.20924107399E+02 -0.44233602984E+02  0.35865711981E+02  0.60669425573E+02  0.00000000000E+00 0.  1.
         -3    1    5    5    0  502  0.17967821385E+03  0.21473117547E+03 -0.13139053277E+04  0.13434064718E+04  0.00000000000E+00 0.  1.
<mgrwt>
<rscale>  0 0.14128549E+04</rscale>
<asrwt>0</asrwt>
<pdfrwt beam="1">  1        2 0.33725855E+00 0.14128549E+04</pdfrwt>
<pdfrwt beam="2">  1       -2 0.35022364E-01 0.14128549E+04</pdfrwt>
<totfact> 0.38867474E+01</totfact>
</mgrwt>
</event>
<event>
12    1  0.2502641E-008  0.1918420E+04  0.7818608E-02  0.8645742E-01
         -2   -1    0    0    0  501 -0.00000000000E+00  0.00000000000E+00  0.27546161931E+03  0.27546161931E+03  0.00000000000E+00 0.  1.
          2   -1    0    0  501    0  0.00000000000E+00 -0.00000000000E+00 -0.33401518885E+04  0.33401518885E+04  0.00000000000E+00 0. -1.
         23    2    1    2    0    0 -0.41746305554E+03  0.23580031333E+03 -0.13065048242E+03  0.50524354869E+03  0.91237626166E+02 0.  0.
        254    2    1    2    0    0  0.41746305554E+03 -0.23580031333E+03 -0.29340397868E+04  0.31103699591E+04  0.91429460334E+03 0.  0.
        -24    2    4    4    0    0  0.57413735433E+03 -0.43928426575E+03 -0.17200018978E+04  0.18669318162E+04  0.66509473537E+02 0.  0.
         24    2    4    4    0    0 -0.15667429879E+03  0.20348395242E+03 -0.12140378890E+04  0.12434381429E+04  0.79359086748E+02 0.  0.
         11    1    3    3    0    0 -0.10585021657E+03  0.74828554083E+02  0.36392581377E+01  0.12967970178E+03  0.00000000000E+00 0. -1.
        -11    1    3    3    0    0 -0.31161283897E+03  0.16097175925E+03 -0.13428974056E+03  0.37556384691E+03  0.00000000000E+00 0.  1.
          2    1    6    6  502    0 -0.73370302473E+02  0.37423133011E+02 -0.33423128437E+03  0.34422992842E+03  0.00000000000E+00 0. -1.
          3    1    5    5  503    0  0.46487144622E+03 -0.32108915703E+03 -0.13324789840E+04  0.14473092106E+04  0.00000000000E+00 0. -1.
         -4    1    5    5    0  503  0.10926590811E+03 -0.11819510871E+03 -0.38752291382E+03  0.41962260561E+03  0.00000000000E+00 0.  1.
         -1    1    6    6    0  502 -0.83303996312E+02  0.16606081941E+03 -0.87980660460E+03  0.89920821451E+03  0.00000000000E+00 0.  1.
<mgrwt>
<rscale>  0 0.19184198E+04</rscale>
<asrwt>0</asrwt>
<pdfrwt beam="1">  1        2 0.51386956E+00 0.19184198E+04</pdfrwt>
<pdfrwt beam="2">  1       -2 0.42378708E-01 0.19184198E+04</pdfrwt>
<totfact> 0.51943811E+00</totfact>
</mgrwt>
</event>
<event>
12    1  0.2502641E-008  0.1395845E+04  0.7818608E-02  0.8956832E-01
         -2   -1    0    0    0  501 -0.00000000000E+00  0.00000000000E+00  0.19565050149E+03  0.19565050149E+03  0.00000000000E+00 0.  1.
          2   -1    0    0  501    0  0.00000000000E+00 -0.00000000000E+00 -0.24896210659E+04  0.24896210659E+04  0.00000000000E+00 0. -1.
         23    2    1    2    0    0 -0.16581047272E+03  0.28546203530E+03 -0.23825448191E+03  0.41791924517E+03  0.94390735109E+02 0.  0.
        254    2    1    2    0    0  0.16581047272E+03 -0.28546203530E+03 -0.20557160825E+04  0.22673523222E+04  0.89773952499E+03 0.  0.
        -24    2    4    4    0    0  0.52499828617E+02 -0.15834500449E+03  0.10063004535E+02  0.19304984074E+03  0.96631281155E+02 0.  0.
         24    2    4    4    0    0  0.11331064411E+03 -0.12711703081E+03 -0.20657790870E+04  0.20743024814E+04  0.79306409744E+02 0.  0.
         13    1    3    3    0    0 -0.17821464068E+03  0.26574839610E+03 -0.22442537317E+03  0.39083169819E+03  0.00000000000E+00 0.  1.
        -13    1    3    3    0    0  0.12404167961E+02  0.19713639197E+02 -0.13829108737E+02  0.27087546985E+02  0.00000000000E+00 0. -1.
          2    1    6    6  502    0  0.12508717743E+03 -0.11983629461E+03 -0.18557255918E+04  0.18637931783E+04  0.00000000000E+00 0. -1.
          3    1    5    5  503    0  0.66142229327E+02 -0.16229393971E+03  0.18981504249E+02  0.17627936598E+03  0.00000000000E+00 0. -1.
         -4    1    5    5    0  503 -0.13642400710E+02  0.39489352198E+01 -0.89184997143E+01  0.16770474759E+02  0.00000000000E+00 0.  1.
         -1    1    6    6    0  502 -0.11776533327E+02 -0.72807362040E+01 -0.21005349524E+03  0.21050930317E+03  0.00000000000E+00 0.  1.
<mgrwt>
<rscale>  0 0.13958447E+04</rscale>
<asrwt>0</asrwt>
<pdfrwt beam="1">  1        2 0.38301860E+00 0.13958447E+04</pdfrwt>
<pdfrwt beam="2">  1       -2 0.30100079E-01 0.13958447E+04</pdfrwt>
<totfact> 0.35148100E+01</totfact>
</mgrwt>
</event>
<event>
12    1  0.2502641E-008  0.2039968E+04  0.7818608E-02  0.8588159E-01
         -1   -1    0    0    0  501 -0.00000000000E+00  0.00000000000E+00  0.94104279810E+03  0.94104279810E+03  0.00000000000E+00 0.  1.
          1   -1    0    0  501    0  0.00000000000E+00 -0.00000000000E+00 -0.11055473733E+04  0.11055473733E+04  0.00000000000E+00 0. -1.
         23    2    1    2    0    0  0.44291958494E+03  0.65279670765E+03 -0.28811242109E+03  0.84482448005E+03  0.91642428311E+02 0.  0.
        254    2    1    2    0    0 -0.44291958494E+03 -0.65279670765E+03  0.12360784591E+03  0.12017656913E+04  0.89813171475E+03 0.  0.
        -24    2    4    4    0    0 -0.17419701098E+03  0.10150976419E+02 -0.30487980898E+03  0.36354111897E+03  0.93609862197E+02 0.  0.
         24    2    4    4    0    0 -0.26872257396E+03 -0.66294768407E+03  0.42848765488E+03  0.83822457236E+03  0.85482803869E+02 0.  0.
         11    1    3    3    0    0  0.35505781010E+03  0.54607263030E+03 -0.27119530282E+03  0.70555528369E+03  0.00000000000E+00 0.  1.
        -11    1    3    3    0    0  0.87861774847E+02  0.10672407734E+03 -0.16917118279E+02  0.13926919636E+03  0.00000000000E+00 0. -1.
          2    1    6    6  502    0 -0.27344489169E+03 -0.62516078425E+03  0.40618423086E+03  0.79409303256E+03  0.00000000000E+00 0. -1.
          1    1    5    5  503    0 -0.11308314213E+03  0.27076893202E+02 -0.26296434930E+03  0.28752600610E+03  0.00000000000E+00 0. -1.
         -2    1    5    5    0  503 -0.61113868849E+02 -0.16925916782E+02 -0.41915459679E+02  0.76015112871E+02  0.00000000000E+00 0.  1.
         -1    1    6    6    0  502  0.47223177259E+01 -0.37786899819E+02  0.22303424021E+02  0.44131539806E+02  0.00000000000E+00 0.  1.
<mgrwt>
<rscale>  0 0.20399680E+04</rscale>
<asrwt>0</asrwt>
<pdfrwt beam="1">  1        1 0.17008421E+00 0.20399680E+04</pdfrwt>
<pdfrwt beam="2">  1       -1 0.14477581E+00 0.20399680E+04</pdfrwt>
<totfact> 0.44541704E+00</totfact>
</mgrwt>
</event>
<event>
12    1  0.2502641E-008  0.1540919E+04  0.7818608E-02  0.8857689E-01
          1   -1    0    0  501    0  0.00000000000E+00  0.00000000000E+00  0.63296483680E+03  0.63296483680E+03  0.00000000000E+00 0. -1.
         -1   -1    0    0    0  501 -0.00000000000E+00 -0.00000000000E+00 -0.93782100375E+03  0.93782100375E+03  0.00000000000E+00 0.  1.
         23    2    1    2    0    0 -0.26380764760E+03  0.40498238255E+03 -0.17908549856E+03  0.52376813794E+03  0.93038924184E+02 0.  0.
        254    2    1    2    0    0  0.26380764760E+03 -0.40498238255E+03 -0.12577066839E+03  0.10470177026E+04  0.92022964713E+03 0.  0.
        -24    2    4    4    0    0  0.15175310670E+03  0.28308586517E+03 -0.42702838359E+02  0.34032668790E+03  0.10407742139E+03 0.  0.
         24    2    4    4    0    0  0.11205454090E+03 -0.68806824772E+03 -0.83067830032E+02  0.70669101472E+03  0.80732844863E+02 0.  0.
         11    1    3    3    0    0 -0.90061868487E+02  0.72318326938E+02 -0.59136626485E+02  0.12976217152E+03  0.00000000000E+00 0. -1.
        -11    1    3    3    0    0 -0.17374577911E+03  0.33266405561E+03 -0.11994887208E+03  0.39400596641E+03  0.00000000000E+00 0.  1.
          2    1    6    6  502    0  0.20370660727E+02 -0.32311919013E+02  0.57444478801E+01  0.38626708509E+02  0.00000000000E+00 0. -1.
          1    1    5    5  503    0  0.58804361653E+02  0.51587264314E+02 -0.46182914553E+02  0.90840851963E+02  0.00000000000E+00 0. -1.
         -2    1    5    5    0  503  0.92948745050E+02  0.23149860085E+03  0.34800761938E+01  0.24948583594E+03  0.00000000000E+00 0.  1.
         -1    1    6    6    0  502  0.91683880172E+02 -0.65575632871E+03 -0.88812277912E+02  0.66806430621E+03  0.00000000000E+00 0.  1.
<mgrwt>
<rscale>  0 0.15409188E+04</rscale>
<asrwt>0</asrwt>
<pdfrwt beam="1">  1        1 0.97379206E-01 0.15409188E+04</pdfrwt>
<pdfrwt beam="2">  1       -1 0.14428015E+00 0.15409188E+04</pdfrwt>
<totfact> 0.11825688E+01</totfact>
</mgrwt>
</event>
<event>
12    1  0.2502641E-008  0.2365886E+04  0.7818608E-02  0.8452387E-01
         -1   -1    0    0    0  501 -0.00000000000E+00  0.00000000000E+00  0.52071469026E+03  0.52071469026E+03  0.00000000000E+00 0.  1.
          1   -1    0    0  501    0  0.00000000000E+00 -0.00000000000E+00 -0.26873722677E+04  0.26873722677E+04  0.00000000000E+00 0. -1.
         23    2    1    2    0    0  0.48059518253E+03 -0.43109903680E+03 -0.19844031780E+04  0.20887303811E+04  0.90113946470E+02 0.  0.
        254    2    1    2    0    0 -0.48059518253E+03  0.43109903680E+03 -0.18225439950E+03  0.11193565769E+04  0.89606047285E+03 0.  0.
        -24    2    4    4    0    0 -0.54607721781E+03  0.15983385950E+03  0.22518639905E+03  0.61980894746E+03  0.98524243655E+02 0.  0.
         24    2    4    4    0    0  0.65482035274E+02  0.27126517730E+03 -0.40744079856E+03  0.49954762939E+03  0.75280384824E+02 0.  0.
         11    1    3    3    0    0  0.32106404174E+03 -0.30450307321E+03 -0.12241298405E+04  0.13016520683E+04  0.00000000000E+00 0. -1.
        -11    1    3    3    0    0  0.15953114080E+03 -0.12659596360E+03 -0.76027333752E+03  0.78707831289E+03  0.00000000000E+00 0.  1.
          2    1    6    6  502    0  0.41645811357E+02  0.24360438946E+03 -0.38226096450E+03  0.45519327449E+03  0.00000000000E+00 0. -1.
          3    1    5    5  503    0 -0.45694326068E+03  0.16366140334E+03  0.21190681077E+03  0.52960994597E+03  0.00000000000E+00 0. -1.
         -4    1    5    5    0  503 -0.89133957131E+02 -0.38275438366E+01  0.13279588283E+02  0.90199001494E+02  0.00000000000E+00 0.  1.
         -1    1    6    6    0  502  0.23836223917E+02  0.27660787848E+02 -0.25179834059E+02  0.44354354896E+02  0.00000000000E+00 0.  1.
<mgrwt>
<rscale>  0 0.23658861E+04</rscale>
<asrwt>0</asrwt>
<pdfrwt beam="1">  1        1 0.41344189E+00 0.23658861E+04</pdfrwt>
<pdfrwt beam="2">  1       -1 0.80109952E-01 0.23658861E+04</pdfrwt>
<totfact> 0.14002189E+00</totfact>
</mgrwt>
</event>
<event>
12    1  0.2502641E-008  0.1262719E+04  0.7818608E-02  0.9059663E-01
         -1   -1    0    0    0  501 -0.00000000000E+00  0.00000000000E+00  0.64468464059E+03  0.64468464059E+03  0.00000000000E+00 0. -1.
          1   -1    0    0  501    0  0.00000000000E+00 -0.00000000000E+00 -0.61830950414E+03  0.61830950414E+03  0.00000000000E+00 0.  1.
         23    2    1    2    0    0  0.11219135512E+03 -0.75370921340E+02  0.27302335965E+03  0.31802402148E+03  0.91267997538E+02 0.  0.
        254    2    1    2    0    0 -0.11219135512E+03  0.75370921340E+02 -0.24664822320E+03  0.94497012326E+03  0.90214495060E+03 0.  0.
        -24    2    4    4    0    0 -0.47479039069E+02 -0.39606231450E+03 -0.20521711700E+03  0.46063165177E+03  0.10463191380E+03 0.  0.
         24    2    4    4    0    0 -0.64712316056E+02  0.47143323584E+03 -0.41431106200E+02  0.48433847149E+03  0.80188769162E+02 0.  0.
         13    1    3    3    0    0  0.80409201539E+02 -0.48189297039E+02  0.88840381973E+02  0.12915286102E+03  0.00000000000E+00 0.  1.
        -13    1    3    3    0    0  0.31782153586E+02 -0.27181624301E+02  0.18418297768E+03  0.18887116046E+03  0.00000000000E+00 0. -1.
          4    1    6    6  502    0 -0.73240708198E+02  0.25338210976E+03 -0.10746413559E+02  0.26397382500E+03  0.00000000000E+00 0. -1.
          1    1    5    5  503    0  0.52096606392E+01 -0.27717732403E+03 -0.10495043959E+03  0.29642706403E+03  0.00000000000E+00 0. -1.
         -2    1    5    5    0  503 -0.52688699708E+02 -0.11888499047E+03 -0.10026667741E+03  0.16420458774E+03  0.00000000000E+00 0.  1.
         -3    1    6    6    0  502  0.85283921420E+01  0.21805112608E+03 -0.30684692640E+02  0.22036464649E+03  0.00000000000E+00 0.  1.
<mgrwt>
<rscale>  0 0.12627187E+04</rscale>
<asrwt>0</asrwt>
<pdfrwt beam="1">  1        1 0.95124538E-01 0.12627187E+04</pdfrwt>
<pdfrwt beam="2">  1       -1 0.99182253E-01 0.12627187E+04</pdfrwt>
<totfact> 0.31385008E+01</totfact>
</mgrwt>
</event>
<event>
12    1  0.2502641E-008  0.2454338E+04  0.7818608E-02  0.8419436E-01
          1   -1    0    0  501    0  0.00000000000E+00  0.00000000000E+00  0.15112626316E+04  0.15112626316E+04  0.00000000000E+00 0. -1.
         -1   -1    0    0    0  501 -0.00000000000E+00 -0.00000000000E+00 -0.99648069857E+03  0.99648069857E+03  0.00000000000E+00 0.  1.
         23    2    1    2    0    0  0.79566342306E+03  0.54411327862E+02 -0.50561459196E+03  0.94967656992E+03  0.10098810057E+03 0.  0.
        254    2    1    2    0    0 -0.79566342306E+03 -0.54411327862E+02  0.10203965250E+04  0.15580667603E+04  0.86621134015E+03 0.  0.
        -24    2    4    4    0    0 -0.76424769389E+03 -0.83244672980E+02  0.29943943133E+03  0.83138686488E+03  0.10264469234E+03 0.  0.
         24    2    4    4    0    0 -0.31415729177E+02  0.28833345118E+02  0.72095709365E+03  0.72667989537E+03  0.80412869754E+02 0.  0.
         13    1    3    3    0    0  0.63606956086E+03  0.12931509114E+02 -0.36847061263E+03  0.73520221882E+03  0.00000000000E+00 0.  1.
        -13    1    3    3    0    0  0.15959386220E+03  0.41479818748E+02 -0.13714397932E+03  0.21447435110E+03  0.00000000000E+00 0. -1.
          2    1    6    6  502    0  0.79608959383E+01 -0.23733055000E+02  0.22675264367E+03  0.22813021540E+03  0.00000000000E+00 0. -1.
          3    1    5    5  503    0 -0.23916223074E+03 -0.37798217192E+02  0.14478233234E+03  0.28211558198E+03  0.00000000000E+00 0. -1.
         -4    1    5    5    0  503 -0.52508546315E+03 -0.45446455788E+02  0.15465709898E+03  0.54927128290E+03  0.00000000000E+00 0.  1.
         -1    1    6    6    0  502 -0.39376625115E+02  0.52566400117E+02  0.49420444998E+03  0.49854967998E+03  0.00000000000E+00 0.  1.
<mgrwt>
<rscale>  0 0.24543382E+04</rscale>
<asrwt>0</asrwt>
<pdfrwt beam="1">  1        1 0.23250194E+00 0.24543382E+04</pdfrwt>
<pdfrwt beam="2">  1       -1 0.15330472E+00 0.24543382E+04</pdfrwt>
<totfact> 0.18847037E+00</totfact>
</mgrwt>
</event>
<event>
12    1  0.2502641E-008  0.1186215E+04  0.7818608E-02  0.9125009E-01
         -1   -1    0    0    0  501 -0.00000000000E+00  0.00000000000E+00  0.26432878191E+03  0.26432878191E+03  0.00000000000E+00 0.  1.
          1   -1    0    0  501    0  0.00000000000E+00 -0.00000000000E+00 -0.13308289516E+04  0.13308289516E+04  0.00000000000E+00 0. -1.
         23    2    1    2    0    0 -0.24993822582E+02 -0.17671531496E+03 -0.18406344025E+02  0.20116281153E+03  0.90965320492E+02 0.  0.
        254    2    1    2    0    0  0.24993822582E+02  0.17671531496E+03 -0.10480938257E+04  0.13939949220E+04  0.90159202603E+03 0.  0.
        -24    2    4    4    0    0  0.22069718686E+03 -0.24422379615E+03 -0.13628850466E+03  0.36763643705E+03  0.90716494890E+02 0.  0.
         24    2    4    4    0    0 -0.19570336428E+03  0.42093911111E+03 -0.91180532099E+03  0.10263584849E+04  0.80828547843E+02 0.  0.
         13    1    3    3    0    0  0.28892316228E+02 -0.39926029468E+02 -0.22292998109E+02  0.54090956090E+02  0.00000000000E+00 0. -1.
        -13    1    3    3    0    0 -0.53886138811E+02 -0.13678928549E+03  0.38866540835E+01  0.14707185544E+03  0.00000000000E+00 0.  1.
          2    1    6    6  502    0 -0.15299876735E+03  0.23604967000E+03 -0.53223490608E+03  0.60199839266E+03  0.00000000000E+00 0. -1.
          1    1    5    5  503    0  0.32315092274E+02 -0.39338810664E+02 -0.60710208678E+02  0.79230907169E+02  0.00000000000E+00 0. -1.
         -2    1    5    5    0  503  0.18838209459E+03 -0.20488498549E+03 -0.75578295987E+02  0.28840552988E+03  0.00000000000E+00 0.  1.
         -1    1    6    6    0  502 -0.42704596926E+02  0.18488944111E+03 -0.37957041491E+03  0.42436009227E+03  0.00000000000E+00 0.  1.
<mgrwt>
<rscale>  0 0.11862148E+04</rscale>
<asrwt>0</asrwt>
<pdfrwt beam="1">  1        1 0.20474292E+00 0.11862148E+04</pdfrwt>
<pdfrwt beam="2">  1       -1 0.40665966E-01 0.11862148E+04</pdfrwt>
<totfact> 0.50315429E+01</totfact>
</mgrwt>
</event>
<event>
12    1  0.2502641E-008  0.1489235E+04  0.7818608E-02  0.8891643E-01
          2   -1    0    0  501    0  0.00000000000E+00  0.00000000000E+00  0.26749841103E+04  0.26749841103E+04  0.00000000000E+00 0.  1.
         -2   -1    0    0    0  501 -0.00000000000E+00 -0.00000000000E+00 -0.20727428078E+03  0.20727428078E+03  0.00000000000E+00 0. -1.
         23    2    1    2    0    0 -0.26652423042E+03  0.20200897423E+03  0.14153860382E+04  0.14573668435E+04  0.93582521575E+02 0.  0.
        254    2    1    2    0    0  0.26652423042E+03 -0.20200897423E+03  0.10523237914E+04  0.14248915476E+04  0.90060411366E+03 0.  0.
        -24    2    4    4    0    0  0.46141104878E+03  0.18274981101E+03  0.69546488583E+03  0.85943252443E+03  0.93033366394E+02 0.  0.
         24    2    4    4    0    0 -0.19488681836E+03 -0.38475878524E+03  0.35685890556E+03  0.56545902321E+03  0.79846312778E+02 0.  0.
         13    1    3    3    0    0 -0.10375627965E+03  0.72016301956E+02  0.73618689346E+03  0.74694233741E+03  0.00000000000E+00 0.  1.
        -13    1    3    3    0    0 -0.16276795077E+03  0.12999267227E+03  0.67919914470E+03  0.71042450605E+03  0.00000000000E+00 0. -1.
          2    1    6    6  502    0 -0.13117862043E+03 -0.25586745790E+03  0.18734250942E+03  0.34318100517E+03  0.00000000000E+00 0. -1.
          3    1    5    5  503    0  0.35559100590E+03  0.14217620860E+03  0.59715172734E+03  0.70940060842E+03  0.00000000000E+00 0. -1.
         -4    1    5    5    0  503  0.10582004288E+03  0.40573602412E+02  0.98313158495E+02  0.15003191601E+03  0.00000000000E+00 0.  1.
         -1    1    6    6    0  502 -0.63708197934E+02 -0.12889132734E+03  0.16951639614E+03  0.22227801805E+03  0.00000000000E+00 0.  1.
<mgrwt>
<rscale>  0 0.14892353E+04</rscale>
<asrwt>0</asrwt>
<pdfrwt beam="1">  1        2 0.41153599E+00 0.14892353E+04</pdfrwt>
<pdfrwt beam="2">  1       -2 0.31888353E-01 0.14892353E+04</pdfrwt>
<totfact> 0.24402774E+01</totfact>
</mgrwt>
</event>
<event>
11    1  0.2502641E-008  0.2474450E+04  0.7818608E-02  0.8412145E-01
          1   -1    0    0  501    0  0.00000000000E+00  0.00000000000E+00  0.12353868534E+04  0.12353868534E+04  0.00000000000E+00 0.  1.
         -1   -1    0    0    0  501 -0.00000000000E+00 -0.00000000000E+00 -0.12390660503E+04  0.12390660503E+04  0.00000000000E+00 0. -1.
         23    2    1    2    0    0  0.82314966826E+03  0.31010163243E+03  0.62028558518E+03  0.10787022515E+04  0.71455870899E+02 0.  0.
        254    2    1    2    0    0 -0.82314966826E+03 -0.31010163243E+03 -0.62396478209E+03  0.13957506521E+04  0.88603015454E+03 0.  0.
         24    2    4    4    0    0  0.17859143777E+03 -0.37969276586E+02 -0.96149559389E+02  0.22132686507E+03  0.80026719415E+02 0.  0.
         11    1    3    3    0    0  0.30056553599E+03  0.99069110897E+02  0.18487701193E+03  0.36651581098E+03  0.00000000000E+00 0. -1.
        -11    1    3    3    0    0  0.52258413227E+03  0.21103252153E+03  0.43540857326E+03  0.71218644056E+03  0.00000000000E+00 0.  1.
          2    1    5    5  502    0  0.89974098877E+02 -0.22002001572E+02 -0.43342237982E+01  0.92726544408E+02  0.00000000000E+00 0. -1.
          1    1    4    4  503    0 -0.59461759317E+01 -0.18905201167E+02 -0.12274463845E+01  0.19856239926E+02  0.00000000000E+00 0. -1.
         -2    1    4    4    0  503 -0.99579493009E+03 -0.25322715468E+03 -0.52658777632E+03  0.11545675471E+04  0.00000000000E+00 0.  1.
         -1    1    5    5    0  502  0.88617338892E+02 -0.15967275014E+02 -0.91815335591E+02  0.12860032066E+03  0.00000000000E+00 0.  1.
<mgrwt>
<rscale>  0 0.24744502E+04</rscale>
<asrwt>0</asrwt>
<pdfrwt beam="1">  1        1 0.19005951E+00 0.24744502E+04</pdfrwt>
<pdfrwt beam="2">  1       -1 0.19062555E+00 0.24744502E+04</pdfrwt>
<totfact> 0.15683152E+00</totfact>
</mgrwt>
</event>
<event>
12    1  0.2502641E-008  0.1720117E+04  0.7818608E-02  0.8749974E-01
         -2   -1    0    0    0  501 -0.00000000000E+00  0.00000000000E+00  0.18672656519E+04  0.18672656519E+04  0.00000000000E+00 0.  1.
          2   -1    0    0  501    0  0.00000000000E+00 -0.00000000000E+00 -0.39614091932E+03  0.39614091932E+03  0.00000000000E+00 0. -1.
         23    2    1    2    0    0 -0.32601610657E+03 -0.12030126336E+03 -0.13057547081E+03  0.38326528359E+03  0.95307021365E+02 0.  0.
        254    2    1    2    0    0  0.32601610657E+03  0.12030126336E+03  0.16017002034E+04  0.18801412876E+04  0.92126479589E+03 0.  0.
        -24    2    4    4    0    0  0.32129354227E+03  0.34302786492E+03  0.15698799245E+04  0.16412327634E+04  0.90688200833E+02 0.  0.
         24    2    4    4    0    0  0.47225642969E+01 -0.22272660156E+03  0.31820278888E+02  0.23890852425E+03  0.80220391157E+02 0.  0.
         11    1    3    3    0    0 -0.15072116114E+03 -0.57191029028E+02 -0.10363105398E+02  0.16153970463E+03  0.00000000000E+00 0.  1.
        -11    1    3    3    0    0 -0.17529494543E+03 -0.63110234332E+02 -0.12021236541E+03  0.22172557897E+03  0.00000000000E+00 0. -1.
          2    1    6    6  502    0  0.31199844023E+02 -0.89495395225E+02 -0.13448474251E+02  0.95727307981E+02  0.00000000000E+00 0. -1.
          3    1    5    5  503    0  0.26518853230E+03  0.30011514965E+03  0.14224660992E+04  0.14777698955E+04  0.00000000000E+00 0. -1.
         -4    1    5    5    0  503  0.56105009975E+02  0.42912715270E+02  0.14741382530E+03  0.16346286785E+03  0.00000000000E+00 0.  1.
         -3    1    6    6    0  502 -0.26477279726E+02 -0.13323120633E+03  0.45268753139E+02  0.14318121627E+03  0.00000000000E+00 0.  1.
<mgrwt>
<rscale>  0 0.17201167E+04</rscale>
<asrwt>0</asrwt>
<pdfrwt beam="1">  1        2 0.60944758E-01 0.17201167E+04</pdfrwt>
<pdfrwt beam="2">  1       -2 0.28727163E+00 0.17201167E+04</pdfrwt>
<totfact> 0.29084985E+00</totfact>
</mgrwt>
</event>
<event>
11    1  0.2502641E-008  0.1652504E+04  0.7818608E-02  0.8788926E-01
         -1   -1    0    0    0  501 -0.00000000000E+00  0.00000000000E+00  0.31640309183E+03  0.31640309183E+03  0.00000000000E+00 0.  1.
          1   -1    0    0  501    0  0.00000000000E+00 -0.00000000000E+00 -0.21576669236E+04  0.21576669236E+04  0.00000000000E+00 0. -1.
         23    2    1    2    0    0  0.35645792961E+03  0.21157717909E+03 -0.12449456254E+04  0.13152796357E+04  0.90795109022E+02 0.  0.
        254    2    1    2    0    0 -0.35645792961E+03 -0.21157717909E+03 -0.59631820638E+03  0.11587903796E+04  0.90297983500E+03 0.  0.
         24    2    4    4    0    0 -0.39398052240E+03 -0.13958006345E+03  0.10213440037E+03  0.43795897533E+03  0.81690771739E+02 0.  0.
         13    1    3    3    0    0  0.35249271125E+03  0.18617651579E+03 -0.11700652448E+04  0.12361090096E+04  0.00000000000E+00 0. -1.
        -13    1    3    3    0    0  0.39652183568E+01  0.25400663298E+02 -0.74880380599E+02  0.79170626190E+02  0.00000000000E+00 0.  1.
          4    1    5    5  502    0 -0.16660606981E+02 -0.24604222977E+02  0.17660325001E+02  0.34566323096E+02  0.00000000000E+00 0. -1.
          1    1    4    4  503    0 -0.40970427056E+02 -0.13029935577E+02 -0.54392408081E+02  0.69331732786E+02  0.00000000000E+00 0. -1.
         -2    1    4    4    0  503  0.78493019851E+02 -0.58967180056E+02 -0.64406019867E+03  0.65149967153E+03  0.00000000000E+00 0.  1.
         -3    1    5    5    0  502 -0.37731991542E+03 -0.11497584048E+03  0.84474075374E+02  0.40339265224E+03  0.00000000000E+00 0.  1.
<mgrwt>
<rscale>  0 0.16525041E+04</rscale>
<asrwt>0</asrwt>
<pdfrwt beam="1">  1        1 0.33194874E+00 0.16525041E+04</pdfrwt>
<pdfrwt beam="2">  1       -1 0.48677402E-01 0.16525041E+04</pdfrwt>
<totfact> 0.94016730E+00</totfact>
</mgrwt>
</event>
<event>
12    1  0.2502641E-008  0.1479997E+04  0.7818608E-02  0.8897864E-01
         -1   -1    0    0    0  501 -0.00000000000E+00  0.00000000000E+00  0.41198380012E+03  0.41198380012E+03  0.00000000000E+00 0.  1.
          1   -1    0    0  501    0  0.00000000000E+00 -0.00000000000E+00 -0.13291737142E+04  0.13291737142E+04  0.00000000000E+00 0. -1.
         23    2    1    2    0    0 -0.48398567967E+02 -0.40968351139E+03 -0.55356859329E+02  0.42746342130E+03  0.97352934144E+02 0.  0.
        254    2    1    2    0    0  0.48398567967E+02  0.40968351139E+03 -0.86183305477E+03  0.13136940930E+04  0.90158358177E+03 0.  0.
        -24    2    4    4    0    0 -0.44649505274E+02  0.13932318563E+03  0.16638364039E+03  0.24337140440E+03  0.10070549297E+03 0.  0.
         24    2    4    4    0    0  0.93048073241E+02  0.27036032577E+03 -0.10282166952E+04  0.10703226886E+04  0.81292287106E+02 0.  0.
         11    1    3    3    0    0 -0.24424318000E+02 -0.28078228948E+03 -0.82297992681E+02  0.29361233113E+03  0.00000000000E+00 0. -1.
        -11    1    3    3    0    0 -0.23974249968E+02 -0.12890122192E+03  0.26941133351E+02  0.13385109017E+03  0.00000000000E+00 0.  1.
          4    1    6    6  502    0  0.60305115951E+02  0.25105138154E+03 -0.92377207868E+03  0.95917587362E+03  0.00000000000E+00 0. -1.
          3    1    5    5  503    0 -0.73816325841E+00  0.12619943255E+03  0.14664086903E+03  0.19346934158E+03  0.00000000000E+00 0. -1.
         -4    1    5    5    0  503 -0.43911342015E+02  0.13123753079E+02  0.19742771359E+02  0.49902062817E+02  0.00000000000E+00 0.  1.
         -3    1    6    6    0  502  0.32742957290E+02  0.19308944229E+02 -0.10444461648E+03  0.11114681503E+03  0.00000000000E+00 0.  1.
<mgrwt>
<rscale>  0 0.14799973E+04</rscale>
<asrwt>0</asrwt>
<pdfrwt beam="1">  1        1 0.20448827E+00 0.14799973E+04</pdfrwt>
<pdfrwt beam="2">  1       -1 0.63382123E-01 0.14799973E+04</pdfrwt>
<totfact> 0.21090423E+01</totfact>
</mgrwt>
</event>
<event>
11    1  0.2502641E-008  0.1254000E+04  0.7818608E-02  0.9066861E-01
          3   -1    0    0  501    0  0.00000000000E+00  0.00000000000E+00  0.46059829094E+03  0.46059829094E+03  0.00000000000E+00 0. -1.
         -3   -1    0    0    0  501 -0.00000000000E+00 -0.00000000000E+00 -0.85351759844E+03  0.85351759844E+03  0.00000000000E+00 0.  1.
         23    2    1    2    0    0  0.17872848430E+03 -0.12360147769E+03  0.11083708036E+03  0.25649225113E+03  0.79260457503E+02 0.  0.
        254    2    1    2    0    0 -0.17872848430E+03  0.12360147769E+03 -0.50375638786E+03  0.10576236382E+04  0.90419912933E+03 0.  0.
         24    2    4    4    0    0 -0.40355243993E+03 -0.34122615447E+02  0.38223195628E+02  0.41378133450E+03  0.75730148824E+02 0.  0.
         11    1    3    3    0    0  0.29858370945E+02 -0.67247718486E+00 -0.65037584156E+01  0.30565886452E+02  0.00000000000E+00 0.  1.
        -11    1    3    3    0    0  0.14887011335E+03 -0.12292900050E+03  0.11734083878E+03  0.22592636468E+03  0.00000000000E+00 0. -1.
          4    1    5    5  502    0 -0.97128811423E+02 -0.39522478340E+02  0.20129055224E+02  0.10677645418E+03  0.00000000000E+00 0. -1.
          3    1    4    4  503    0 -0.18434859875E+02  0.44449632587E+02 -0.21760178104E+03  0.22285903394E+03  0.00000000000E+00 0. -1.
         -4    1    4    4    0  503  0.24325881551E+03  0.11327446055E+03 -0.32437780245E+03  0.42098326980E+03  0.00000000000E+00 0.  1.
         -1    1    5    5    0  502 -0.30642362851E+03  0.53998628934E+01  0.18094140404E+02  0.30700488032E+03  0.00000000000E+00 0.  1.
<mgrwt>
<rscale>  0 0.12539996E+04</rscale>
<asrwt>0</asrwt>
<pdfrwt beam="1">  1        3 0.70861276E-01 0.12539996E+04</pdfrwt>
<pdfrwt beam="2">  1       -3 0.13131040E+00 0.12539996E+04</pdfrwt>
<totfact> 0.22167915E+00</totfact>
</mgrwt>
</event>
<event>
12    1  0.2502641E-008  0.1974444E+04  0.7818608E-02  0.8618663E-01
          2   -1    0    0  501    0  0.00000000000E+00  0.00000000000E+00  0.17119209160E+04  0.17119209160E+04  0.00000000000E+00 0. -1.
         -2   -1    0    0    0  501 -0.00000000000E+00 -0.00000000000E+00 -0.56930651365E+03  0.56930651365E+03  0.00000000000E+00 0.  1.
         23    2    1    2    0    0  0.45086880316E+03 -0.12617616014E+03 -0.26219001648E+03  0.54423868662E+03  0.90824238067E+02 0.  0.
        254    2    1    2    0    0 -0.45086880316E+03  0.12617616014E+03  0.14048044189E+04  0.17369887431E+04  0.90799302707E+03 0.  0.
        -24    2    4    4    0    0 -0.74046841418E+02  0.43626461067E+03  0.35693731189E+03  0.57827085119E+03  0.10575059087E+03 0.  0.
         24    2    4    4    0    0 -0.37682196174E+03 -0.31008845053E+03  0.10478671070E+04  0.11587178919E+04  0.80324598073E+02 0.  0.
         11    1    3    3    0    0  0.12559140081E+03 -0.55417432886E+01 -0.10305596614E+03  0.16255596893E+03  0.00000000000E+00 0. -1.
        -11    1    3    3    0    0  0.32527740235E+03 -0.12063441685E+03 -0.15913405034E+03  0.38168271770E+03  0.00000000000E+00 0.  1.
          2    1    6    6  502    0 -0.12326181462E+03 -0.86890416131E+02  0.41125097269E+03  0.43803057188E+03  0.00000000000E+00 0. -1.
          3    1    5    5  503    0 -0.17364058779E+02  0.94098350493E+01  0.36579787434E+02  0.41570859766E+02  0.00000000000E+00 0. -1.
         -4    1    5    5    0  503 -0.56682782639E+02  0.42685477562E+03  0.32035752446E+03  0.53669999143E+03  0.00000000000E+00 0.  1.
         -1    1    6    6    0  502 -0.25356014713E+03 -0.22319803440E+03  0.63661613428E+03  0.72068731999E+03  0.00000000000E+00 0.  1.
<mgrwt>
<rscale>  0 0.19744445E+04</rscale>
<asrwt>0</asrwt>
<pdfrwt beam="1">  1        2 0.26337245E+00 0.19744445E+04</pdfrwt>
<pdfrwt beam="2">  1       -2 0.87585619E-01 0.19744445E+04</pdfrwt>
<totfact> 0.10116120E+01</totfact>
</mgrwt>
</event>
<event>
12    1  0.2502641E-008  0.1246239E+04  0.7818608E-02  0.9073319E-01
         -2   -1    0    0    0  501 -0.00000000000E+00  0.00000000000E+00  0.53230988765E+03  0.53230988765E+03  0.00000000000E+00 0. -1.
          2   -1    0    0  501    0  0.00000000000E+00 -0.00000000000E+00 -0.72942101280E+03  0.72942101280E+03  0.00000000000E+00 0.  1.
         23    2    1    2    0    0 -0.24207384622E+03  0.59859316764E+01 -0.27915304608E+03  0.38102272875E+03  0.92824125544E+02 0.  0.
        254    2    1    2    0    0  0.24207384622E+03 -0.59859316764E+01  0.82041920929E+02  0.88070817170E+03  0.84278136460E+03 0.  0.
        -24    2    4    4    0    0  0.50321121778E+02 -0.34435492298E+03  0.26190972307E+03  0.44493388421E+03  0.90867651016E+02 0.  0.
         24    2    4    4    0    0  0.19175272444E+03  0.33836899131E+03 -0.17986780214E+03  0.43577428749E+03  0.79272452893E+02 0.  0.
         11    1    3    3    0    0 -0.55504674088E+01 -0.13305898291E+02  0.27884140517E+00  0.14419860274E+02  0.00000000000E+00 0. -1.
        -11    1    3    3    0    0 -0.23652337881E+03  0.19291829968E+02 -0.27943188749E+03  0.36660286847E+03  0.00000000000E+00 0.  1.
          4    1    6    6  502    0  0.69463497959E+02  0.20164655025E+03 -0.89575782428E+02  0.23132299837E+03  0.00000000000E+00 0. -1.
          3    1    5    5  503    0  0.20634826396E+02 -0.15672281263E+03  0.63806889930E+02  0.17046746101E+03  0.00000000000E+00 0. -1.
         -4    1    5    5    0  503  0.29686295383E+02 -0.18763211035E+03  0.19810283314E+03  0.27446642320E+03  0.00000000000E+00 0.  1.
         -3    1    6    6    0  502  0.12228922648E+03  0.13672244105E+03 -0.90292019711E+02  0.20445128912E+03  0.00000000000E+00 0.  1.
<mgrwt>
<rscale>  0 0.12462392E+04</rscale>
<asrwt>0</asrwt>
<pdfrwt beam="1">  1        2 0.11221862E+00 0.12462392E+04</pdfrwt>
<pdfrwt beam="2">  1       -2 0.81893829E-01 0.12462392E+04</pdfrwt>
<totfact> 0.50166132E+01</totfact>
</mgrwt>
</event>
<event>
11    1  0.2502641E-008  0.2158723E+04  0.7818608E-02  0.8535808E-01
          1   -1    0    0  501    0  0.00000000000E+00  0.00000000000E+00  0.18456993162E+04  0.18456993162E+04  0.00000000000E+00 0. -1.
         -1   -1    0    0    0  501 -0.00000000000E+00 -0.00000000000E+00 -0.63120848480E+03  0.63120848480E+03  0.00000000000E+00 0.  1.
         23    2    1    2    0    0 -0.14985064371E+03  0.19492042086E+03 -0.48216479147E+03  0.54908770305E+03  0.92548547347E+02 0.  0.
        254    2    1    2    0    0  0.14985064371E+03 -0.19492042086E+03  0.16966556229E+04  0.19278200980E+04  0.88170337504E+03 0.  0.
         24    2    4    4    0    0  0.11718249438E+03 -0.78531396261E+02 -0.50509218039E+02  0.17020566933E+03  0.80745721726E+02 0.  0.
         11    1    3    3    0    0 -0.13521503021E+03  0.10733589621E+03 -0.34318657081E+03  0.38416288394E+03  0.00000000000E+00 0. -1.
        -11    1    3    3    0    0 -0.14635613494E+02  0.87584524650E+02 -0.13897822066E+03  0.16492481911E+03  0.00000000000E+00 0.  1.
          4    1    5    5  502    0  0.31141188744E+02 -0.30021185793E+02  0.21175277121E+02  0.48160539801E+02  0.00000000000E+00 0. -1.
          3    1    4    4  503    0 -0.30114136562E+02  0.19976263910E+02  0.52921735086E+03  0.53044973070E+03  0.00000000000E+00 0. -1.
         -4    1    4    4    0  503  0.62782285893E+02 -0.13636528851E+03  0.12179474901E+04  0.12271646979E+04  0.00000000000E+00 0.  1.
         -3    1    5    5    0  502  0.86041305632E+02 -0.48510210468E+02 -0.71684495160E+02  0.12204512953E+03  0.00000000000E+00 0.  1.
<mgrwt>
<rscale>  0 0.21587228E+04</rscale>
<asrwt>0</asrwt>
<pdfrwt beam="1">  1        1 0.28395374E+00 0.21587228E+04</pdfrwt>
<pdfrwt beam="2">  1       -1 0.97108998E-01 0.21587228E+04</pdfrwt>
<totfact> 0.35358114E+00</totfact>
</mgrwt>
</event>
<event>
12    1  0.2502641E-008  0.1387034E+04  0.7818608E-02  0.8963258E-01
          1   -1    0    0  501    0  0.00000000000E+00  0.00000000000E+00  0.74045340525E+03  0.74045340525E+03  0.00000000000E+00 0. -1.
         -1   -1    0    0    0  501 -0.00000000000E+00 -0.00000000000E+00 -0.64955598441E+03  0.64955598441E+03  0.00000000000E+00 0.  1.
         23    2    1    2    0    0  0.20359764522E+03  0.31208051096E+03 -0.91120342402E+02  0.39430086502E+03  0.91236006547E+02 0.  0.
        254    2    1    2    0    0 -0.20359764522E+03 -0.31208051096E+03  0.18201776324E+03  0.99570852465E+03  0.90523961108E+03 0.  0.
        -24    2    4    4    0    0 -0.35367312629E+02 -0.48281489611E+03  0.42066451808E+03  0.64772375487E+03  0.90699256530E+02 0.  0.
         24    2    4    4    0    0 -0.16823033259E+03  0.17073438515E+03 -0.23864675484E+03  0.34798476978E+03  0.81789066066E+02 0.  0.
         13    1    3    3    0    0  0.52241643584E+02  0.23628205726E+02 -0.21203908128E+02  0.61131719672E+02  0.00000000000E+00 0. -1.
        -13    1    3    3    0    0  0.15135600164E+03  0.28845230523E+03 -0.69916434274E+02  0.33316914534E+03  0.00000000000E+00 0.  1.
          2    1    6    6  502    0 -0.16275884889E+03  0.12170745262E+03 -0.18138190071E+03  0.27240143322E+03  0.00000000000E+00 0. -1.
          3    1    5    5  503    0 -0.57027915934E+02 -0.43776092130E+03  0.36412310856E+03  0.57225208222E+03  0.00000000000E+00 0. -1.
         -4    1    5    5    0  503  0.21660603305E+02 -0.45053974809E+02  0.56541409520E+02  0.75471672647E+02  0.00000000000E+00 0.  1.
         -1    1    6    6    0  502 -0.54714837038E+01  0.49026932533E+02 -0.57264854136E+02  0.75583336568E+02  0.00000000000E+00 0.  1.
<mgrwt>
<rscale>  0 0.13870342E+04</rscale>
<asrwt>0</asrwt>
<pdfrwt beam="1">  1        1 0.11391591E+00 0.13870342E+04</pdfrwt>
<pdfrwt beam="2">  1       -1 0.99931690E-01 0.13870342E+04</pdfrwt>
<totfact> 0.23291836E+01</totfact>
</mgrwt>
</event>
<event>
11    1  0.2502641E-008  0.2199731E+04  0.7818608E-02  0.8518540E-01
         -1   -1    0    0    0  501 -0.00000000000E+00  0.00000000000E+00  0.19313907124E+04  0.19313907124E+04  0.00000000000E+00 0. -1.
          1   -1    0    0  501    0  0.00000000000E+00 -0.00000000000E+00 -0.62633849918E+03  0.62633849918E+03  0.00000000000E+00 0.  1.
         23    2    1    2    0    0  0.88799570246E+03  0.23781708611E+02  0.26984523823E+03  0.93294437678E+03  0.92015326559E+02 0.  0.
        254    2    1    2    0    0 -0.88799570246E+03 -0.23781708611E+02  0.10352069750E+04  0.16247848348E+04  0.88270625981E+03 0.  0.
         24    2    4    4    0    0 -0.69152484259E+03 -0.32810116404E+03  0.45457067705E+03  0.89372147360E+03  0.79035372934E+02 0.  0.
         13    1    3    3    0    0  0.92763635800E+02  0.30869544016E+02  0.26853784104E+02  0.10138612625E+03  0.00000000000E+00 0. -1.
        -13    1    3    3    0    0  0.79523206666E+03 -0.70878354051E+01  0.24299145412E+03  0.83155825054E+03  0.00000000000E+00 0.  1.
          4    1    5    5  502    0 -0.64160323338E+03 -0.32551273897E+03  0.42727945001E+03  0.83676817621E+03  0.00000000000E+00 0. -1.
          1    1    4    4  503    0 -0.25973998112E+03  0.23412376813E+03  0.45447928373E+03  0.57343719441E+03  0.00000000000E+00 0. -1.
         -2    1    4    4    0  503  0.63269121256E+02  0.70195687296E+02  0.12615701427E+03  0.15762616683E+03  0.00000000000E+00 0.  1.
         -3    1    5    5    0  502 -0.49921609211E+02 -0.25884250762E+01  0.27291227037E+02  0.56953297392E+02  0.00000000000E+00 0.  1.
<mgrwt>
<rscale>  0 0.21997312E+04</rscale>
<asrwt>0</asrwt>
<pdfrwt beam="1">  1        1 0.96359770E-01 0.21997312E+04</pdfrwt>
<pdfrwt beam="2">  1       -1 0.29713703E+00 0.21997312E+04</pdfrwt>
<totfact> 0.10112715E+00</totfact>
</mgrwt>
</event>
<event>
12    1  0.2502641E-008  0.1713265E+04  0.7818608E-02  0.8753835E-01
         -1   -1    0    0    0  501 -0.00000000000E+00  0.00000000000E+00  0.61759401960E+03  0.61759401960E+03  0.00000000000E+00 0. -1.
          1   -1    0    0  501    0  0.00000000000E+00 -0.00000000000E+00 -0.11881902782E+04  0.11881902782E+04  0.00000000000E+00 0.  1.
         23    2    1    2    0    0 -0.55533121658E+03 -0.68573152975E+02  0.49327711759E+02  0.56948153912E+03  0.93706791776E+02 0.  0.
        254    2    1    2    0    0  0.55533121658E+03  0.68573152975E+02 -0.61992397038E+03  0.12363027587E+04  0.91161600728E+03 0.  0.
        -24    2    4    4    0    0  0.53779498271E+03  0.28446226892E+02 -0.83723883891E+03  0.10005743743E+04  0.10073516750E+03 0.  0.
         24    2    4    4    0    0  0.17536233875E+02  0.40126926083E+02  0.21731486853E+03  0.23572838437E+03  0.80152538426E+02 0.  0.
         13    1    3    3    0    0 -0.27455203597E+03 -0.19199680503E+02 -0.20443456267E+02  0.27598076580E+03  0.00000000000E+00 0.  1.
        -13    1    3    3    0    0 -0.28077918061E+03 -0.49373472472E+02  0.69771168025E+02  0.29350077332E+03  0.00000000000E+00 0. -1.
          4    1    6    6  502    0 -0.17956942924E+02  0.44167307561E+02  0.74007783317E+02  0.88036099685E+02  0.00000000000E+00 0. -1.
          1    1    5    5  503    0  0.16192602076E+03  0.29973035511E+02 -0.33471465464E+03  0.37303125752E+03  0.00000000000E+00 0. -1.
         -2    1    5    5    0  503  0.37586896195E+03 -0.15268086194E+01 -0.50252418427E+03  0.62754311683E+03  0.00000000000E+00 0.  1.
         -3    1    6    6    0  502  0.35493176800E+02 -0.40403814778E+01  0.14330708521E+03  0.14769228468E+03  0.00000000000E+00 0.  1.
<mgrwt>
<rscale>  0 0.17132650E+04</rscale>
<asrwt>0</asrwt>
<pdfrwt beam="1">  1        1 0.18279850E+00 0.17132650E+04</pdfrwt>
<pdfrwt beam="2">  1       -1 0.95014464E-01 0.17132650E+04</pdfrwt>
<totfact> 0.11092616E+01</totfact>
</mgrwt>
</event>
<event>
12    1  0.2502641E-008  0.1517247E+04  0.7818608E-02  0.8873064E-01
         -2   -1    0    0    0  501 -0.00000000000E+00  0.00000000000E+00  0.70698316492E+03  0.70698316492E+03  0.00000000000E+00 0.  1.
          2   -1    0    0  501    0  0.00000000000E+00 -0.00000000000E+00 -0.81403555882E+03  0.81403555882E+03  0.00000000000E+00 0. -1.
         23    2    1    2    0    0  0.23234377849E+03 -0.30063769484E+03 -0.34294531595E+03  0.51975797999E+03  0.90389230963E+02 0.  0.
        254    2    1    2    0    0 -0.23234377849E+03  0.30063769484E+03  0.23589292205E+03  0.10012607438E+04  0.89582975578E+03 0.  0.
        -24    2    4    4    0    0  0.21641867603E+03  0.41612841168E+03  0.11555027113E+02  0.47992652856E+03  0.10097552091E+03 0.  0.
         24    2    4    4    0    0 -0.44876245451E+03 -0.11549071684E+03  0.22433789494E+03  0.52133421520E+03  0.82073299989E+02 0.  0.
         11    1    3    3    0    0  0.18906466013E+03 -0.28785032828E+03 -0.31470418534E+03  0.46652114794E+03  0.00000000000E+00 0. -1.
        -11    1    3    3    0    0  0.43279118356E+02 -0.12787366560E+02 -0.28241130603E+02  0.53236832052E+02  0.00000000000E+00 0.  1.
          4    1    6    6  502    0 -0.27775200289E+03 -0.75057165388E+02  0.94468511147E+02  0.30282677026E+03  0.00000000000E+00 0. -1.
          3    1    5    5  503    0  0.22398755544E+03  0.36617180561E+03  0.11486103656E+02  0.42939975174E+03  0.00000000000E+00 0. -1.
         -4    1    5    5    0  503 -0.75688794119E+01  0.49956606064E+02  0.68923456674E-01  0.50526776816E+02  0.00000000000E+00 0.  1.
         -3    1    6    6    0  502 -0.17101045162E+03 -0.40433551448E+02  0.12986938379E+03  0.21850744494E+03  0.00000000000E+00 0.  1.
<mgrwt>
<rscale>  0 0.15172468E+04</rscale>
<asrwt>0</asrwt>
<pdfrwt beam="1">  1        2 0.12523624E+00 0.15172468E+04</pdfrwt>
<pdfrwt beam="2">  1       -2 0.10876664E+00 0.15172468E+04</pdfrwt>
<totfact> 0.21929136E+01</totfact>
</mgrwt>
</event>
<event>
11    1  0.2502641E-008  0.1636361E+04  0.7818608E-02  0.8798516E-01
          2   -1    0    0  501    0  0.00000000000E+00  0.00000000000E+00  0.15429293202E+04  0.15429293202E+04  0.00000000000E+00 0. -1.
         -2   -1    0    0    0  501 -0.00000000000E+00 -0.00000000000E+00 -0.43386285487E+03  0.43386285487E+03  0.00000000000E+00 0.  1.
         23    2    1    2    0    0  0.15462490235E+03 -0.15550871281E+03 -0.24112737641E+03  0.33839595233E+03  0.90981254730E+02 0.  0.
        254    2    1    2    0    0 -0.15462490235E+03  0.15550871281E+03  0.13501938418E+04  0.16383962228E+04  0.90179096926E+03 0.  0.
         24    2    4    4    0    0 -0.16258020527E+02 -0.34734948234E+03  0.77515436748E+03  0.85339540268E+03  0.80643869971E+02 0.  0.
         13    1    3    3    0    0  0.22322758950E+02 -0.66348730709E+01 -0.76600088140E+02  0.80061854905E+02  0.00000000000E+00 0.  1.
        -13    1    3    3    0    0  0.13230214340E+03 -0.14887383974E+03 -0.16452728827E+03  0.25833409743E+03  0.00000000000E+00 0. -1.
          2    1    5    5  502    0 -0.46616363620E+02 -0.19045800834E+03  0.45979820981E+03  0.49986171292E+03  0.00000000000E+00 0. -1.
          3    1    4    4  503    0 -0.84872975747E+02  0.44743624048E+03  0.51392282029E+03  0.68667261233E+03  0.00000000000E+00 0. -1.
         -4    1    4    4    0  503 -0.53493906081E+02  0.55421954677E+02  0.61116654016E+02  0.98328207785E+02  0.00000000000E+00 0.  1.
         -1    1    5    5    0  502  0.30358343093E+02 -0.15689147401E+03  0.31535615767E+03  0.35353368976E+03  0.00000000000E+00 0.  1.
<mgrwt>
<rscale>  0 0.16363615E+04</rscale>
<asrwt>0</asrwt>
<pdfrwt beam="1">  1        2 0.23737374E+00 0.16363615E+04</pdfrwt>
<pdfrwt beam="2">  1       -2 0.66748133E-01 0.16363615E+04</pdfrwt>
<totfact> 0.23665885E+01</totfact>
</mgrwt>
</event>
<event>
11    1  0.2502641E-008  0.1206738E+04  0.7818608E-02  0.9106980E-01
          2   -1    0    0  501    0  0.00000000000E+00  0.00000000000E+00  0.16669294113E+04  0.16669294113E+04  0.00000000000E+00 0. -1.
         -2   -1    0    0    0  501 -0.00000000000E+00 -0.00000000000E+00 -0.21839789442E+03  0.21839789442E+03  0.00000000000E+00 0.  1.
         23    2    1    2    0    0  0.11776414156E+03  0.21052936107E+03  0.18511066577E+03  0.31809355650E+03  0.93415990063E+02 0.  0.
        254    2    1    2    0    0 -0.11776414156E+03 -0.21052936107E+03  0.12634208511E+04  0.15672337492E+04  0.89543194759E+03 0.  0.
         24    2    4    4    0    0 -0.16765601064E+03  0.23614002766E+03  0.93850551042E+03  0.98520416662E+03  0.77226978909E+02 0.  0.
         11    1    3    3    0    0  0.25897821276E+02  0.12263763835E+03  0.12654717001E+03  0.17811477683E+03  0.00000000000E+00 0. -1.
        -11    1    3    3    0    0  0.91866320281E+02  0.87891722716E+02  0.58563495761E+02  0.13997877968E+03  0.00000000000E+00 0.  1.
          4    1    5    5  502    0 -0.16959143613E+03  0.23618807279E+03  0.88254701117E+03  0.92921218668E+03  0.00000000000E+00 0. -1.
          3    1    4    4  503    0 -0.20909665377E+02 -0.39424310812E+03  0.26572903839E+03  0.47589574935E+03  0.00000000000E+00 0. -1.
         -4    1    4    4    0  503  0.70801534463E+02 -0.52426280608E+02  0.59186302328E+02  0.10613383327E+03  0.00000000000E+00 0.  1.
         -3    1    5    5    0  502  0.19354254907E+01 -0.48045128547E-01  0.55958499251E+02  0.55991979949E+02  0.00000000000E+00 0.  1.
<mgrwt>
<rscale>  0 0.12067375E+04</rscale>
<asrwt>0</asrwt>
<pdfrwt beam="1">  1        2 0.25645067E+00 0.12067375E+04</pdfrwt>
<pdfrwt beam="2">  1       -2 0.33599677E-01 0.12067375E+04</pdfrwt>
<totfact> 0.83558796E+01</totfact>
</mgrwt>
</event>
<event>
12    1  0.2502641E-008  0.1218322E+04  0.7818608E-02  0.9096969E-01
          1   -1    0    0  501    0  0.00000000000E+00  0.00000000000E+00  0.10373041961E+04  0.10373041961E+04  0.00000000000E+00 0. -1.
         -1   -1    0    0    0  501 -0.00000000000E+00 -0.00000000000E+00 -0.35773213251E+03  0.35773213251E+03  0.00000000000E+00 0.  1.
         23    2    1    2    0    0 -0.56094076477E+02 -0.10288195419E+03 -0.11416804569E+03  0.18749710104E+03  0.91594641381E+02 0.  0.
        254    2    1    2    0    0  0.56094076477E+02  0.10288195419E+03  0.79374010928E+03  0.12075392276E+04  0.90243912988E+03 0.  0.
        -24    2    4    4    0    0  0.47623280857E+01 -0.24319215508E+03 -0.78209624363E+02  0.26440380835E+03  0.68025910253E+02 0.  0.
         24    2    4    4    0    0  0.51331748391E+02  0.34607410927E+03  0.87194973365E+03  0.94313541923E+03  0.82497536304E+02 0.  0.
         11    1    3    3    0    0 -0.46890395809E+01 -0.66353168872E+02 -0.12235823686E+02  0.67634647133E+02  0.00000000000E+00 0. -1.
        -11    1    3    3    0    0 -0.51405036896E+02 -0.36528785318E+02 -0.10193222200E+03  0.11986245391E+03  0.00000000000E+00 0.  1.
          4    1    6    6  502    0  0.26648252958E+02  0.13251457225E+03  0.44562630594E+03  0.46567482838E+03  0.00000000000E+00 0. -1.
          3    1    5    5  503    0 -0.16754056166E+02 -0.20653448296E+03 -0.79340280335E+02  0.22188301226E+03  0.00000000000E+00 0. -1.
         -4    1    5    5    0  503  0.21516384252E+02 -0.36657672127E+02  0.11306559723E+01  0.42520796088E+02  0.00000000000E+00 0.  1.
         -3    1    6    6    0  502  0.24683495433E+02  0.21355953702E+03  0.42632342771E+03  0.47746059085E+03  0.00000000000E+00 0.  1.
<mgrwt>
<rscale>  0 0.12183219E+04</rscale>
<asrwt>0</asrwt>
<pdfrwt beam="1">  1        1 0.15958526E+00 0.12183219E+04</pdfrwt>
<pdfrwt beam="2">  1       -1 0.55035713E-01 0.12183219E+04</pdfrwt>
<totfact> 0.46677345E+01</totfact>
</mgrwt>
</event>
<event>
11    1  0.2502641E-008  0.1337191E+04  0.7818608E-02  0.9000581E-01
         -1   -1    0    0    0  501 -0.00000000000E+00  0.00000000000E+00  0.24241898819E+03  0.24241898819E+03  0.00000000000E+00 0.  1.
          1   -1    0    0  501    0  0.00000000000E+00 -0.00000000000E+00 -0.18439967933E+04  0.18439967933E+04  0.00000000000E+00 0. -1.
         23    2    1    2    0    0  0.29489589683E+03  0.78725453982E+02 -0.66767627546E+03  0.73955044303E+03  0.89341826215E+02 0.  0.
        254    2    1    2    0    0 -0.29489589683E+03 -0.78725453982E+02 -0.93390152964E+03  0.13468653385E+04  0.92125614559E+03 0.  0.
         24    2    4    4    0    0 -0.40586178893E+03 -0.42122554686E+03 -0.61479549818E+03  0.85232291582E+03  0.79536753909E+02 0.  0.
         13    1    3    3    0    0  0.20838141049E+03  0.48119638909E+02 -0.55140729674E+03  0.59142904797E+03  0.00000000000E+00 0.  1.
        -13    1    3    3    0    0  0.86514486344E+02  0.30605815072E+02 -0.11626897871E+03  0.14812139506E+03  0.00000000000E+00 0. -1.
          4    1    5    5  502    0 -0.21915516233E+03 -0.20627417635E+03 -0.26245856435E+03  0.39932758357E+03  0.00000000000E+00 0. -1.
          1    1    4    4  503    0  0.24606633312E+01  0.13047009327E+03 -0.63357993870E+02  0.14506114397E+03  0.00000000000E+00 0. -1.
         -2    1    4    4    0  503  0.10850522876E+03  0.21202999960E+03 -0.25574803759E+03  0.34948127866E+03  0.00000000000E+00 0.  1.
         -3    1    5    5    0  502 -0.18670662660E+03 -0.21495137051E+03 -0.35233693383E+03  0.45299533225E+03  0.00000000000E+00 0.  1.
<mgrwt>
<rscale>  0 0.13371908E+04</rscale>
<asrwt>0</asrwt>
<pdfrwt beam="1">  1        1 0.28369181E+00 0.13371908E+04</pdfrwt>
<pdfrwt beam="2">  1       -1 0.37295230E-01 0.13371908E+04</pdfrwt>
<totfact> 0.25798006E+01</totfact>
</mgrwt>
</event>
<event>
12    1  0.2502641E-008  0.2419250E+04  0.7818608E-02  0.8432332E-01
          2   -1    0    0  501    0  0.00000000000E+00  0.00000000000E+00  0.14104635661E+04  0.14104635661E+04  0.00000000000E+00 0. -1.
         -2   -1    0    0    0  501 -0.00000000000E+00 -0.00000000000E+00 -0.10373841368E+04  0.10373841368E+04  0.00000000000E+00 0.  1.
         23    2    1    2    0    0  0.49802363712E+03 -0.52606386689E+03  0.90862300799E+03  0.11656836429E+04  0.91933940456E+02 0.  0.
        254    2    1    2    0    0 -0.49802363712E+03  0.52606386689E+03 -0.53554357866E+03  0.12821640600E+04  0.91234150236E+03 0.  0.
        -24    2    4    4    0    0 -0.37761128358E+02  0.44519174333E+03  0.12538062342E+03  0.46873797047E+03  0.66131634547E+02 0.  0.
         24    2    4    4    0    0 -0.46026250876E+03  0.80872123563E+02 -0.66092420208E+03  0.81342608953E+03  0.80369925282E+02 0.  0.
         11    1    3    3    0    0  0.40836583233E+03 -0.45346848247E+03  0.80836685267E+03  0.10128441569E+04  0.00000000000E+00 0. -1.
        -11    1    3    3    0    0  0.89657804790E+02 -0.72595384423E+02  0.10025615532E+03  0.15283948600E+03  0.00000000000E+00 0.  1.
          2    1    6    6  502    0 -0.36644795037E+03  0.66266922634E+02 -0.46522053244E+03  0.59590733270E+03  0.00000000000E+00 0. -1.
          3    1    5    5  503    0  0.16385568388E+02  0.11362331053E+03  0.19168803901E+02  0.11638808612E+03  0.00000000000E+00 0. -1.
         -4    1    5    5    0  503 -0.54146696746E+02  0.33156843279E+03  0.10621181952E+03  0.35234988435E+03  0.00000000000E+00 0.  1.
         -1    1    6    6    0  502 -0.93814558393E+02  0.14605200929E+02 -0.19570366964E+03  0.21751875683E+03  0.00000000000E+00 0.  1.
<mgrwt>
<rscale>  0 0.24192499E+04</rscale>
<asrwt>0</asrwt>
<pdfrwt beam="1">  1        2 0.21699440E+00 0.24192499E+04</pdfrwt>
<pdfrwt beam="2">  1       -2 0.15959756E+00 0.24192499E+04</pdfrwt>
<totfact> 0.32504208E+00</totfact>
</mgrwt>
</event>
<event>
12    1  0.2502641E-008  0.2321837E+04  0.7818608E-02  0.8469361E-01
         -1   -1    0    0    0  501 -0.00000000000E+00  0.00000000000E+00  0.58164890271E+03  0.58164890271E+03  0.00000000000E+00 0.  1.
          1   -1    0    0  501    0  0.00000000000E+00 -0.00000000000E+00 -0.23170873610E+04  0.23170873610E+04  0.00000000000E+00 0. -1.
         23    2    1    2    0    0  0.77067334130E+03  0.40531697854E+03 -0.16778870361E+03  0.89118413995E+03  0.88526098714E+02 0.  0.
        254    2    1    2    0    0 -0.77067334130E+03 -0.40531697854E+03 -0.15676497547E+04  0.20075521238E+04  0.90250790812E+03 0.  0.
        -24    2    4    4    0    0 -0.83208443899E+03 -0.80195736355E+02 -0.13886407512E+04  0.16239439820E+04  0.10037455485E+03 0.  0.
         24    2    4    4    0    0  0.61411097692E+02 -0.32512124219E+03 -0.17900900355E+03  0.38360814176E+03  0.75072218755E+02 0.  0.
         11    1    3    3    0    0  0.65925944374E+03  0.33149273389E+03 -0.17111556478E+03  0.75748992290E+03  0.00000000000E+00 0.  1.
        -11    1    3    3    0    0  0.11141389755E+03  0.73824244656E+02  0.33268611635E+01  0.13369421705E+03  0.00000000000E+00 0. -1.
          2    1    6    6  502    0  0.27405348129E+02 -0.22326578026E+03 -0.83634157595E+02  0.23998611222E+03  0.00000000000E+00 0. -1.
          1    1    5    5  503    0 -0.64464992314E+03 -0.50612205440E+02 -0.99037977250E+03  0.11827878984E+04  0.00000000000E+00 0. -1.
         -2    1    5    5    0  503 -0.18743451585E+03 -0.29583530915E+02 -0.39826097866E+03  0.44115608366E+03  0.00000000000E+00 0.  1.
         -1    1    6    6    0  502  0.34005749563E+02 -0.10185546193E+03 -0.95374845957E+02  0.14362202954E+03  0.00000000000E+00 0.  1.
<mgrwt>
<rscale>  0 0.23218366E+04</rscale>
<asrwt>0</asrwt>
<pdfrwt beam="1">  1        1 0.35647498E+00 0.23218366E+04</pdfrwt>
<pdfrwt beam="2">  1       -1 0.89484446E-01 0.23218366E+04</pdfrwt>
<totfact> 0.19990637E+00</totfact>
</mgrwt>
</event>
<event>
12    1  0.2502641E-008  0.2337988E+04  0.7818608E-02  0.8463092E-01
         -2   -1    0    0    0  501 -0.00000000000E+00  0.00000000000E+00  0.43950361721E+03  0.43950361721E+03  0.00000000000E+00 0.  1.
          2   -1    0    0  501    0  0.00000000000E+00 -0.00000000000E+00 -0.31092961691E+04  0.31092961691E+04  0.00000000000E+00 0. -1.
         23    2    1    2    0    0 -0.47811170805E+03  0.59759125230E+03 -0.17456554448E+03  0.79047077171E+03  0.93084915073E+02 0.  0.
        254    2    1    2    0    0  0.47811170805E+03 -0.59759125230E+03 -0.24952270074E+04  0.27583290146E+04  0.89247690395E+03 0.  0.
        -24    2    4    4    0    0 -0.15697742399E+03 -0.11015771934E+03 -0.11124669459E+03  0.24223451141E+03  0.97596601848E+02 0.  0.
         24    2    4    4    0    0  0.63508913204E+03 -0.48743353296E+03 -0.23839803128E+04  0.25160945032E+04  0.80248129941E+02 0.  0.
         11    1    3    3    0    0 -0.42644827506E+03  0.57148423005E+03 -0.16034489698E+03  0.73086444878E+03  0.00000000000E+00 0.  1.
        -11    1    3    3    0    0 -0.51663432984E+02  0.26107022251E+02 -0.14220647493E+02  0.59606322933E+02  0.00000000000E+00 0. -1.
          4    1    6    6  502    0  0.44950364915E+03 -0.37126412335E+03 -0.16386565647E+04  0.17392774123E+04  0.00000000000E+00 0. -1.
          3    1    5    5  503    0 -0.78996090884E+02 -0.10968692769E+03 -0.86241384949E+02  0.16034082748E+03  0.00000000000E+00 0. -1.
         -4    1    5    5    0  503 -0.77981333104E+02 -0.47079164767E+00 -0.25005309639E+02  0.81893683930E+02  0.00000000000E+00 0.  1.
         -3    1    6    6    0  502  0.18558548289E+03 -0.11616940961E+03 -0.74532374808E+03  0.77681709085E+03  0.00000000000E+00 0.  1.
<mgrwt>
<rscale>  0 0.23379879E+04</rscale>
<asrwt>0</asrwt>
<pdfrwt beam="1">  1        2 0.47835325E+00 0.23379879E+04</pdfrwt>
<pdfrwt beam="2">  1       -2 0.67615942E-01 0.23379879E+04</pdfrwt>
<totfact> 0.26920199E+00</totfact>
</mgrwt>
</event>
<event>
12    1  0.2502641E-008  0.2554184E+04  0.7818608E-02  0.8383933E-01
         -2   -1    0    0    0  501 -0.00000000000E+00  0.00000000000E+00  0.12818702726E+04  0.12818702726E+04  0.00000000000E+00 0. -1.
          2   -1    0    0  501    0  0.00000000000E+00 -0.00000000000E+00 -0.12723313829E+04  0.12723313829E+04  0.00000000000E+00 0.  1.
         23    2    1    2    0    0  0.67307242693E+03 -0.41139316908E+03 -0.78306150250E+03  0.11152281006E+04  0.90981142621E+02 0.  0.
        254    2    1    2    0    0 -0.67307242693E+03  0.41139316908E+03  0.79260039227E+03  0.14389735548E+04  0.90562612497E+03 0.  0.
        -24    2    4    4    0    0 -0.53789186764E+03 -0.18300909456E+02  0.25914851903E+02  0.54639690688E+03  0.90638930577E+02 0.  0.
         24    2    4    4    0    0 -0.13518055928E+03  0.42969407853E+03  0.76668554036E+03  0.89257664795E+03  0.77301810613E+02 0.  0.
         11    1    3    3    0    0  0.45313497072E+03 -0.32563389132E+03 -0.54965474965E+03  0.78325543514E+03  0.00000000000E+00 0. -1.
        -11    1    3    3    0    0  0.21993745621E+03 -0.85759277760E+02 -0.23340675285E+03  0.33197266551E+03  0.00000000000E+00 0.  1.
          4    1    6    6  502    0 -0.64440354437E+02  0.22675671649E+03  0.32626087945E+03  0.40251376276E+03  0.00000000000E+00 0. -1.
          1    1    5    5  503    0 -0.11931717814E+03  0.29506062769E+02 -0.11470678466E+02  0.12344542602E+03  0.00000000000E+00 0. -1.
         -2    1    5    5    0  503 -0.41857468950E+03 -0.47806972225E+02  0.37385530369E+02  0.42295148087E+03  0.00000000000E+00 0.  1.
         -3    1    6    6    0  502 -0.70740204846E+02  0.20293736204E+03  0.44042466092E+03  0.49006288519E+03  0.00000000000E+00 0.  1.
<mgrwt>
<rscale>  0 0.25541838E+04</rscale>
<asrwt>0</asrwt>
<pdfrwt beam="1">  1        2 0.19574329E+00 0.25541838E+04</pdfrwt>
<pdfrwt beam="2">  1       -2 0.19721081E+00 0.25541838E+04</pdfrwt>
<totfact> 0.21141587E+00</totfact>
</mgrwt>
</event>
<event>
11    1  0.2502641E-008  0.2166880E+04  0.7818608E-02  0.8532341E-01
         -1   -1    0    0    0  501 -0.00000000000E+00  0.00000000000E+00  0.10268587980E+04  0.10268587980E+04  0.00000000000E+00 0.  1.
          1   -1    0    0  501    0  0.00000000000E+00 -0.00000000000E+00 -0.11431384366E+04  0.11431384366E+04  0.00000000000E+00 0. -1.
         23    2    1    2    0    0 -0.38680718885E+03  0.20184846233E+03  0.73200923156E+03  0.85738469745E+03  0.94384327291E+02 0.  0.
        254    2    1    2    0    0  0.38680718885E+03 -0.20184846233E+03 -0.84828887020E+03  0.13126125371E+04  0.90166238819E+03 0.  0.
         24    2    4    4    0    0 -0.55593823269E+02 -0.42644829900E+03 -0.30820469676E+03  0.53479147198E+03  0.77865001725E+02 0.  0.
         13    1    3    3    0    0 -0.20064918189E+03  0.15025392257E+03  0.45825594384E+03  0.52233595081E+03  0.00000000000E+00 0.  1.
        -13    1    3    3    0    0 -0.18615800696E+03  0.51594539762E+02  0.27375328771E+03  0.33504874664E+03  0.00000000000E+00 0. -1.
          4    1    5    5  502    0 -0.49826315309E+02 -0.41815792036E+03 -0.31189480721E+03  0.52403919588E+03  0.00000000000E+00 0. -1.
          1    1    4    4  503    0  0.37116143038E+03  0.18961010986E+03 -0.27068589056E+03  0.49697449886E+03  0.00000000000E+00 0. -1.
         -4    1    4    4    0  503  0.71239581735E+02  0.34989726816E+02 -0.26939828288E+03  0.28084656631E+03  0.00000000000E+00 0.  1.
         -3    1    5    5    0  502 -0.57675079604E+01 -0.82903786464E+01  0.36901104553E+01  0.10752276101E+02  0.00000000000E+00 0.  1.
<mgrwt>
<rscale>  0 0.21668796E+04</rscale>
<asrwt>0</asrwt>
<pdfrwt beam="1">  1        1 0.17586745E+00 0.21668796E+04</pdfrwt>
<pdfrwt beam="2">  1       -1 0.15797828E+00 0.21668796E+04</pdfrwt>
<totfact> 0.32586386E+00</totfact>
</mgrwt>
</event>
<event>
12    1  0.2502641E-008  0.1425117E+04  0.7818608E-02  0.8935835E-01
          1   -1    0    0  501    0  0.00000000000E+00  0.00000000000E+00  0.35583592043E+03  0.35583592043E+03  0.00000000000E+00 0. -1.
         -1   -1    0    0    0  501 -0.00000000000E+00 -0.00000000000E+00 -0.14268933495E+04  0.14268933495E+04  0.00000000000E+00 0.  1.
         23    2    1    2    0    0  0.35339850014E+03 -0.48663468619E+02 -0.60206959683E+03  0.70590842023E+03  0.92521701536E+02 0.  0.
        254    2    1    2    0    0 -0.35339850014E+03  0.48663468619E+02 -0.46898783219E+03  0.10768208497E+04  0.90129624566E+03 0.  0.
        -24    2    4    4    0    0 -0.36725326587E+03  0.25861800115E+03 -0.64561431736E+03  0.79232865922E+03  0.95961584076E+02 0.  0.
         24    2    4    4    0    0  0.13854765735E+02 -0.20995453253E+03  0.17662648517E+03  0.28449219044E+03  0.73932610482E+02 0.  0.
         11    1    3    3    0    0  0.15270767124E+03 -0.23986882829E+02 -0.35106295383E+03  0.38358858293E+03  0.00000000000E+00 0.  1.
        -11    1    3    3    0    0  0.20069082890E+03 -0.24676585790E+02 -0.25100664300E+03  0.32231983730E+03  0.00000000000E+00 0. -1.
          4    1    6    6  502    0  0.44210935264E+02 -0.12199702861E+03  0.96708704897E+02  0.16183465447E+03  0.00000000000E+00 0. -1.
          3    1    5    5  503    0 -0.19467130572E+03  0.83950605876E+02 -0.26473684261E+03  0.33916104926E+03  0.00000000000E+00 0. -1.
         -4    1    5    5    0  503 -0.17258196015E+03  0.17466739527E+03 -0.38087747476E+03  0.45316760996E+03  0.00000000000E+00 0.  1.
         -3    1    6    6    0  502 -0.30356169528E+02 -0.87957503925E+02  0.79917780276E+02  0.12265753597E+03  0.00000000000E+00 0.  1.
<mgrwt>
<rscale>  0 0.14251174E+04</rscale>
<asrwt>0</asrwt>
<pdfrwt beam="1">  1        1 0.54743989E-01 0.14251174E+04</pdfrwt>
<pdfrwt beam="2">  1       -1 0.21952205E+00 0.14251174E+04</pdfrwt>
<totfact> 0.75610991E+00</totfact>
</mgrwt>
</event>
<event>
11    1  0.2502641E-008  0.1636151E+04  0.7818608E-02  0.8798642E-01
          2   -1    0    0  501    0  0.00000000000E+00  0.00000000000E+00  0.13601583149E+04  0.13601583149E+04  0.00000000000E+00 0. -1.
         -2   -1    0    0    0  501 -0.00000000000E+00 -0.00000000000E+00 -0.49203669223E+03  0.49203669223E+03  0.00000000000E+00 0.  1.
         23    2    1    2    0    0 -0.26822144117E+03 -0.25192417334E+03  0.78896681214E+03  0.87542314865E+03  0.92133207479E+02 0.  0.
        254    2    1    2    0    0  0.26822144117E+03  0.25192417334E+03  0.79154810560E+02  0.97677185851E+03  0.90133747782E+03 0.  0.
         24    2    4    4    0    0  0.41793020616E+03  0.61526671105E+02  0.28636109960E+03  0.51651287389E+03  0.79571860968E+02 0.  0.
         13    1    3    3    0    0 -0.32566856295E+02 -0.61561275459E+01  0.35353264614E+02  0.48459791107E+02  0.00000000000E+00 0.  1.
        -13    1    3    3    0    0 -0.23565458487E+03 -0.24576804579E+03  0.75361354753E+03  0.82696335755E+03  0.00000000000E+00 0. -1.
          4    1    5    5  502    0  0.26927958639E+03  0.49978935136E+02  0.22813751030E+03  0.35644931366E+03  0.00000000000E+00 0. -1.
          3    1    4    4  503    0 -0.98034052589E+02  0.19080405214E+03 -0.29117526641E+03  0.36166268476E+03  0.00000000000E+00 0. -1.
         -2    1    4    4    0  503 -0.51674712401E+02 -0.40654990860E+00  0.83968977366E+02  0.98596299852E+02  0.00000000000E+00 0.  1.
         -3    1    5    5    0  502  0.14865061977E+03  0.11547735969E+02  0.58223589300E+02  0.16006356023E+03  0.00000000000E+00 0.  1.
<mgrwt>
<rscale>  0 0.16361513E+04</rscale>
<asrwt>0</asrwt>
<pdfrwt beam="1">  1        2 0.20925512E+00 0.16361513E+04</pdfrwt>
<pdfrwt beam="2">  1       -2 0.75697953E-01 0.16361513E+04</pdfrwt>
<totfact> 0.22819480E+01</totfact>
</mgrwt>
</event>
<event>
11    1  0.2502641E-008  0.1288965E+04  0.7818608E-02  0.9038362E-01
         -2   -1    0    0    0  501 -0.00000000000E+00  0.00000000000E+00  0.78660371590E+03  0.78660371590E+03  0.00000000000E+00 0.  1.
          2   -1    0    0  501    0  0.00000000000E+00 -0.00000000000E+00 -0.52803892715E+03  0.52803892715E+03  0.00000000000E+00 0. -1.
         23    2    1    2    0    0  0.17939532260E+03 -0.26810403561E+03  0.46870431655E+02  0.33839289688E+03  0.90832040680E+02 0.  0.
        254    2    1    2    0    0 -0.17939532260E+03  0.26810403561E+03  0.21169435710E+03  0.97624974616E+03  0.89676452337E+03 0.  0.
         24    2    4    4    0    0 -0.38605366883E+03  0.74138551436E+02 -0.17924764081E+03  0.43899888545E+03  0.77822520343E+02 0.  0.
         11    1    3    3    0    0  0.12904025288E+03 -0.17707124414E+03 -0.10945199678E+02  0.21937504362E+03  0.00000000000E+00 0. -1.
        -11    1    3    3    0    0  0.50355069712E+02 -0.91032791475E+02  0.57815631333E+02  0.11901785327E+03  0.00000000000E+00 0.  1.
          4    1    5    5  502    0 -0.81537821762E+01 -0.98563238176E+01 -0.11098424000E+02  0.16935356455E+02  0.00000000000E+00 0. -1.
          1    1    4    4  503    0 -0.13768524811E+02  0.49371115224E+01  0.17442285656E+03  0.17503508287E+03  0.00000000000E+00 0. -1.
         -2    1    4    4    0  503  0.22042687104E+03  0.18902837266E+03  0.21651914134E+03  0.36221577784E+03  0.00000000000E+00 0.  1.
         -3    1    5    5    0  502 -0.37789988665E+03  0.83994875254E+02 -0.16814921681E+03  0.42206352900E+03  0.00000000000E+00 0.  1.
<mgrwt>
<rscale>  0 0.12889645E+04</rscale>
<asrwt>0</asrwt>
<pdfrwt beam="1">  1        2 0.81236758E-01 0.12889645E+04</pdfrwt>
<pdfrwt beam="2">  1       -2 0.12101596E+00 0.12889645E+04</pdfrwt>
<totfact> 0.29455820E+01</totfact>
</mgrwt>
</event>
<event>
12    1  0.2502641E-008  0.1600334E+04  0.7818608E-02  0.8820343E-01
          1   -1    0    0  501    0  0.00000000000E+00  0.00000000000E+00  0.10605047546E+04  0.10605047546E+04  0.00000000000E+00 0. -1.
         -1   -1    0    0    0  501 -0.00000000000E+00 -0.00000000000E+00 -0.60373823506E+03  0.60373823506E+03  0.00000000000E+00 0.  1.
         23    2    1    2    0    0 -0.16726249703E+03 -0.49346861897E+03  0.23172463383E+03  0.57757208222E+03  0.91679787354E+02 0.  0.
        254    2    1    2    0    0  0.16726249703E+03  0.49346861897E+03  0.22504188571E+03  0.10866709074E+04  0.92667242860E+03 0.  0.
        -24    2    4    4    0    0  0.17069852688E+03 -0.16488733045E+03  0.32409937010E+03  0.41603706308E+03  0.10826180001E+03 0.  0.
         24    2    4    4    0    0 -0.34360298492E+01  0.65835594942E+03 -0.99057484389E+02  0.67063384436E+03  0.80579187995E+02 0.  0.
         13    1    3    3    0    0  0.83123615392E+00  0.37850604340E+01  0.34400524113E+01  0.51818526248E+01  0.00000000000E+00 0. -1.
        -13    1    3    3    0    0 -0.16809373318E+03 -0.49725367941E+03  0.22828458142E+03  0.57239022959E+03  0.00000000000E+00 0.  1.
          2    1    6    6  502    0  0.26256217228E+02  0.21687221598E+03 -0.63667742687E+01  0.21854858229E+03  0.00000000000E+00 0. -1.
          3    1    5    5  503    0  0.10568688686E+02 -0.59886489494E+01 -0.80139374944E+01  0.14552810414E+02  0.00000000000E+00 0. -1.
         -2    1    5    5    0  503  0.16012983819E+03 -0.15889868150E+03  0.33211330759E+03  0.40148425267E+03  0.00000000000E+00 0.  1.
         -1    1    6    6    0  502 -0.29692247077E+02  0.44148373344E+03 -0.92690710121E+02  0.45208526206E+03  0.00000000000E+00 0.  1.
<mgrwt>
<rscale>  0 0.16003341E+04</rscale>
<asrwt>0</asrwt>
<pdfrwt beam="1">  1        1 0.16315458E+00 0.16003341E+04</pdfrwt>
<pdfrwt beam="2">  1       -1 0.92882805E-01 0.16003341E+04</pdfrwt>
<totfact> 0.14683342E+01</totfact>
</mgrwt>
</event>
<event>
12    1  0.2502641E-008  0.1421146E+04  0.7818608E-02  0.8938653E-01
         -2   -1    0    0    0  501 -0.00000000000E+00  0.00000000000E+00  0.19434033468E+03  0.19434033468E+03  0.00000000000E+00 0.  1.
          2   -1    0    0  501    0  0.00000000000E+00 -0.00000000000E+00 -0.25980911028E+04  0.25980911028E+04  0.00000000000E+00 0. -1.
         23    2    1    2    0    0 -0.45782661560E+02 -0.31978100130E+02 -0.15302530561E+04  0.15338286543E+04  0.88528379410E+02 0.  0.
        254    2    1    2    0    0  0.45782661560E+02  0.31978100130E+02 -0.87349771195E+03  0.12586027831E+04  0.90441365644E+03 0.  0.
        -24    2    4    4    0    0  0.32220828892E+03  0.30877141092E+03 -0.67224209628E+03  0.81198203842E+03  0.90815356951E+02 0.  0.
         24    2    4    4    0    0 -0.27642562736E+03 -0.27679331079E+03 -0.20125561567E+03  0.44662074472E+03  0.77075303517E+02 0.  0.
         13    1    3    3    0    0 -0.56609455533E+02 -0.85491730023E+01 -0.50238874870E+03  0.50564035997E+03  0.00000000000E+00 0.  1.
        -13    1    3    3    0    0  0.10826793972E+02 -0.23428927127E+02 -0.10278643074E+04  0.10281882943E+04  0.00000000000E+00 0. -1.
          2    1    6    6  502    0 -0.14452642772E+03 -0.11187471459E+03 -0.59220221791E+02  0.19212203087E+03  0.00000000000E+00 0. -1.
          1    1    5    5  503    0  0.36448383503E+02  0.84590110337E+02 -0.12901751340E+03  0.15852283807E+03  0.00000000000E+00 0. -1.
         -2    1    5    5    0  503  0.28575990542E+03  0.22418130058E+03 -0.54322458288E+03  0.65345920035E+03  0.00000000000E+00 0.  1.
         -1    1    6    6    0  502 -0.13189919964E+03 -0.16491859620E+03 -0.14203539388E+03  0.25449871385E+03  0.00000000000E+00 0.  1.
<mgrwt>
<rscale>  0 0.14211459E+04</rscale>
<asrwt>0</asrwt>
<pdfrwt beam="1">  1        2 0.39970630E+00 0.14211459E+04</pdfrwt>
<pdfrwt beam="2">  1       -2 0.29898515E-01 0.14211459E+04</pdfrwt>
<totfact> 0.30731372E+01</totfact>
</mgrwt>
</event>
<event>
11    1  0.2502641E-008  0.1922399E+04  0.7818608E-02  0.8643787E-01
         -2   -1    0    0    0  501 -0.00000000000E+00  0.00000000000E+00  0.62681216216E+03  0.62681216216E+03  0.00000000000E+00 0.  1.
          2   -1    0    0  501    0  0.00000000000E+00 -0.00000000000E+00 -0.14739736562E+04  0.14739736562E+04  0.00000000000E+00 0. -1.
         23    2    1    2    0    0  0.25277037542E+03  0.20565041722E+03  0.40751940571E+03  0.52966220459E+03  0.91022130044E+02 0.  0.
        254    2    1    2    0    0 -0.25277037542E+03 -0.20565041722E+03 -0.12546808997E+04  0.15711236137E+04  0.88770507082E+03 0.  0.
         24    2    4    4    0    0 -0.38136466799E+03 -0.63691288842E+02 -0.56762143457E+03  0.69166243217E+03  0.81897721716E+02 0.  0.
         13    1    3    3    0    0 -0.77785431727E+01  0.34924582341E+01  0.92085000322E+01  0.12549879332E+02  0.00000000000E+00 0. -1.
        -13    1    3    3    0    0  0.26054891859E+03  0.20215795898E+03  0.39831090567E+03  0.51711232526E+03  0.00000000000E+00 0.  1.
          4    1    5    5  502    0 -0.19328830957E+03  0.33489174274E+01 -0.31604117316E+03  0.37047754182E+03  0.00000000000E+00 0. -1.
          1    1    4    4  503    0  0.22673576934E+03 -0.25744623731E+03 -0.63032794821E+03  0.71763569901E+03  0.00000000000E+00 0. -1.
         -4    1    4    4    0  503 -0.98141476770E+02  0.11548710894E+03 -0.56731516932E+02  0.16182548256E+03  0.00000000000E+00 0.  1.
         -3    1    5    5    0  502 -0.18807635842E+03 -0.67040206270E+02 -0.25158026142E+03  0.32118489035E+03  0.00000000000E+00 0.  1.
<mgrwt>
<rscale>  0 0.19223991E+04</rscale>
<asrwt>0</asrwt>
<pdfrwt beam="1">  1        2 0.22676518E+00 0.19223991E+04</pdfrwt>
<pdfrwt beam="2">  1       -2 0.96432641E-01 0.19223991E+04</pdfrwt>
<totfact> 0.11048777E+01</totfact>
</mgrwt>
</event>
<event>
11    1  0.2502641E-008  0.1470032E+04  0.7818608E-02  0.8904629E-01
          1   -1    0    0  501    0  0.00000000000E+00  0.00000000000E+00  0.11008705004E+04  0.11008705004E+04  0.00000000000E+00 0. -1.
         -1   -1    0    0    0  501 -0.00000000000E+00 -0.00000000000E+00 -0.49074690133E+03  0.49074690133E+03  0.00000000000E+00 0.  1.
         23    2    1    2    0    0 -0.25867936896E+03  0.32585133653E+03  0.37247483180E+03  0.56567881065E+03  0.90337738814E+02 0.  0.
        254    2    1    2    0    0  0.25867936896E+03 -0.32585133653E+03  0.23764876729E+03  0.10259385911E+04  0.90718187077E+03 0.  0.
         24    2    4    4    0    0  0.18908318798E+03 -0.54403466589E+03  0.40724696891E+03  0.71042016541E+03  0.84383340007E+02 0.  0.
         11    1    3    3    0    0 -0.57024720002E+02  0.69393969609E+02  0.13503515185E+03  0.16217840159E+03  0.00000000000E+00 0. -1.
        -11    1    3    3    0    0 -0.20165464896E+03  0.25645736692E+03  0.23743967995E+03  0.40350040906E+03  0.00000000000E+00 0.  1.
          4    1    5    5  502    0  0.21932917357E+01 -0.87389203632E+00  0.14223400049E+02  0.14418020838E+02  0.00000000000E+00 0. -1.
          1    1    4    4  503    0 -0.12732401579E+02  0.22954077082E+02  0.18564234543E+02  0.32150186762E+02  0.00000000000E+00 0. -1.
         -2    1    4    4    0  503  0.82328582555E+02  0.19522925227E+03 -0.18816243616E+03  0.28336823893E+03  0.00000000000E+00 0.  1.
         -3    1    5    5    0  502  0.18688989625E+03 -0.54316077385E+03  0.39302356886E+03  0.69600214457E+03  0.00000000000E+00 0.  1.
<mgrwt>
<rscale>  0 0.14700324E+04</rscale>
<asrwt>0</asrwt>
<pdfrwt beam="1">  1        1 0.16936469E+00 0.14700324E+04</pdfrwt>
<pdfrwt beam="2">  1       -1 0.75499524E-01 0.14700324E+04</pdfrwt>
<totfact> 0.21647548E+01</totfact>
</mgrwt>
</event>
<event>
11    1  0.2502641E-008  0.2212994E+04  0.7818608E-02  0.8513039E-01
         -2   -1    0    0    0  501 -0.00000000000E+00  0.00000000000E+00  0.87752139683E+03  0.87752139683E+03  0.00000000000E+00 0.  1.
          2   -1    0    0  501    0  0.00000000000E+00 -0.00000000000E+00 -0.13952202491E+04  0.13952202491E+04  0.00000000000E+00 0. -1.
         23    2    1    2    0    0 -0.90502175364E+03  0.12462049912E+02 -0.69854544339E+01  0.90948788055E+03  0.88880431160E+02 0.  0.
        254    2    1    2    0    0  0.90502175364E+03 -0.12462049912E+02 -0.51071339782E+03  0.13632537654E+04  0.88227715421E+03 0.  0.
         24    2    4    4    0    0  0.84482035722E+03  0.11569274179E+03 -0.61457322996E+02  0.85838817538E+03  0.77116863246E+02 0.  0.
         13    1    3    3    0    0 -0.34355866311E+03  0.15603854964E+02 -0.44419172732E+02  0.34676951740E+03  0.00000000000E+00 0. -1.
        -13    1    3    3    0    0 -0.56146309053E+03 -0.31418050515E+01  0.37433718298E+02  0.56271836315E+03  0.00000000000E+00 0.  1.
          2    1    5    5  502    0  0.40459140807E+03  0.16573296467E+02 -0.27602816014E+02  0.40587041909E+03  0.00000000000E+00 0. -1.
          3    1    4    4  503    0  0.86058880344E+02 -0.36321555309E+02 -0.78449280703E+02  0.12198227703E+03  0.00000000000E+00 0. -1.
         -4    1    4    4    0  503 -0.25857483925E+02 -0.91833236389E+02 -0.37080679413E+03  0.38288331297E+03  0.00000000000E+00 0.  1.
         -1    1    5    5    0  502  0.44022894915E+03  0.99119445319E+02 -0.33854506982E+02  0.45251775629E+03  0.00000000000E+00 0.  1.
<mgrwt>
<rscale>  0 0.22129940E+04</rscale>
<asrwt>0</asrwt>
<pdfrwt beam="1">  1        2 0.21464927E+00 0.22129940E+04</pdfrwt>
<pdfrwt beam="2">  1       -2 0.13500329E+00 0.22129940E+04</pdfrwt>
<totfact> 0.52461852E+00</totfact>
</mgrwt>
</event>
<event>
12    1  0.2502641E-008  0.1616583E+04  0.7818608E-02  0.8810425E-01
          2   -1    0    0  501    0  0.00000000000E+00  0.00000000000E+00  0.19695809555E+04  0.19695809555E+04  0.00000000000E+00 0.  1.
         -2   -1    0    0    0  501 -0.00000000000E+00 -0.00000000000E+00 -0.33171268341E+03  0.33171268341E+03  0.00000000000E+00 0. -1.
         23    2    1    2    0    0  0.16092934838E+03 -0.10767810481E+03  0.12984824731E+04  0.13160517176E+04  0.91883410321E+02 0.  0.
        254    2    1    2    0    0 -0.16092934838E+03  0.10767810481E+03  0.33938579894E+03  0.98524192125E+03  0.90444794954E+03 0.  0.
        -24    2    4    4    0    0 -0.30771467393E+03  0.20163287001E+03 -0.19219234477E+03  0.42035122500E+03  0.66431319054E+02 0.  0.
         24    2    4    4    0    0  0.14678532555E+03 -0.93954765202E+02  0.53157814371E+03  0.56489069625E+03  0.78439442456E+02 0.  0.
         13    1    3    3    0    0  0.15213461540E+03 -0.12335315688E+03  0.11619995927E+04  0.11783904259E+04  0.00000000000E+00 0.  1.
        -13    1    3    3    0    0  0.87947329838E+01  0.15675052077E+02  0.13648288040E+03  0.13766129168E+03  0.00000000000E+00 0. -1.
          2    1    6    6  502    0  0.11790672198E+03 -0.51705220442E+02  0.45440105390E+03  0.47228777530E+03  0.00000000000E+00 0. -1.
          3    1    5    5  503    0 -0.22644857298E+03  0.16891464602E+03 -0.17096046378E+03  0.33020992417E+03  0.00000000000E+00 0. -1.
         -4    1    5    5    0  503 -0.81266100953E+02  0.32718223987E+02 -0.21231880986E+02  0.90141300829E+02  0.00000000000E+00 0.  1.
         -1    1    6    6    0  502  0.28878603577E+02 -0.42249544760E+02  0.77177089812E+02  0.92602920952E+02  0.00000000000E+00 0.  1.
<mgrwt>
<rscale>  0 0.16165828E+04</rscale>
<asrwt>0</asrwt>
<pdfrwt beam="1">  1        2 0.30301245E+00 0.16165828E+04</pdfrwt>
<pdfrwt beam="2">  1       -2 0.51032722E-01 0.16165828E+04</pdfrwt>
<totfact> 0.24148117E+01</totfact>
</mgrwt>
</event>
<event>
11    1  0.2502641E-008  0.1405370E+04  0.7818608E-02  0.8949941E-01
          2   -1    0    0  501    0  0.00000000000E+00  0.00000000000E+00  0.34957637011E+04  0.34957637011E+04  0.00000000000E+00 0.  1.
         -2   -1    0    0    0  501 -0.00000000000E+00 -0.00000000000E+00 -0.14124700073E+03  0.14124700073E+03  0.00000000000E+00 0. -1.
         23    2    1    2    0    0  0.15797116396E+03  0.18678140994E+03  0.15357647362E+03  0.30354783348E+03  0.93345434931E+02 0.  0.
        254    2    1    2    0    0 -0.15797116396E+03 -0.18678140994E+03  0.32009402267E+04  0.33334628683E+04  0.89783861339E+03 0.  0.
         24    2    4    4    0    0 -0.93780954247E+02 -0.32400601584E+03  0.40947496518E+03  0.53774430747E+03  0.87888721823E+02 0.  0.
         13    1    3    3    0    0 -0.10461382402E+02  0.28607530659E+02  0.13272521772E+02  0.33226362521E+02  0.00000000000E+00 0.  1.
        -13    1    3    3    0    0  0.16843254636E+03  0.15817387928E+03  0.14030395185E+03  0.27032147096E+03  0.00000000000E+00 0. -1.
          4    1    5    5  502    0 -0.30133349068E+02 -0.78563808681E+02  0.16653284352E+03  0.18658370436E+03  0.00000000000E+00 0. -1.
          1    1    4    4  503    0 -0.82092324614E+01  0.16587971209E+02  0.55001448673E+03  0.55032580160E+03  0.00000000000E+00 0. -1.
         -2    1    4    4    0  503 -0.55980977249E+02  0.12063663469E+03  0.22414507748E+04  0.22453927593E+04  0.00000000000E+00 0.  1.
         -3    1    5    5    0  502 -0.63647605180E+02 -0.24544220716E+03  0.24294212166E+03  0.35116060311E+03  0.00000000000E+00 0.  1.
<mgrwt>
<rscale>  0 0.14053699E+04</rscale>
<asrwt>0</asrwt>
<pdfrwt beam="1">  1        2 0.53780974E+00 0.14053699E+04</pdfrwt>
<pdfrwt beam="2">  1       -2 0.21730310E-01 0.14053699E+04</pdfrwt>
<totfact> 0.14950264E+01</totfact>
</mgrwt>
</event>
<event>
11    1  0.2502641E-008  0.2303082E+04  0.7818608E-02  0.8476707E-01
          1   -1    0    0  501    0  0.00000000000E+00  0.00000000000E+00  0.10102595961E+04  0.10102595961E+04  0.00000000000E+00 0. -1.
         -1   -1    0    0    0  501 -0.00000000000E+00 -0.00000000000E+00 -0.13125800219E+04  0.13125800219E+04  0.00000000000E+00 0.  1.
         23    2    1    2    0    0 -0.30195598343E+03  0.90576854169E+03 -0.29266222720E+03  0.10026806520E+04  0.90129038467E+02 0.  0.
        254    2    1    2    0    0  0.30195598343E+03 -0.90576854169E+03 -0.96581985833E+01  0.13201589659E+04  0.91166460253E+03 0.  0.
         24    2    4    4    0    0 -0.12052901236E+03  0.33622925869E+02  0.20333177928E+03  0.25153356789E+03  0.79168044971E+02 0.  0.
         13    1    3    3    0    0 -0.18112135781E+03  0.55399475676E+03 -0.13254331053E+03  0.59773143295E+03  0.00000000000E+00 0.  1.
        -13    1    3    3    0    0 -0.12083462562E+03  0.35177378493E+03 -0.16011891668E+03  0.40494921903E+03  0.00000000000E+00 0. -1.
          2    1    5    5  502    0 -0.81447531803E+02 -0.17900112187E+02  0.11290456649E+03  0.14036222991E+03  0.00000000000E+00 0. -1.
          3    1    4    4  503    0  0.33622303907E+03 -0.52460195095E+03 -0.14163392586E+03  0.63899398111E+03  0.00000000000E+00 0. -1.
         -4    1    4    4    0  503  0.86261956725E+02 -0.41478951661E+03 -0.71356052006E+02  0.42963141694E+03  0.00000000000E+00 0.  1.
         -1    1    5    5    0  502 -0.39081480556E+02  0.51523038056E+02  0.90427212795E+02  0.11117133797E+03  0.00000000000E+00 0.  1.
<mgrwt>
<rscale>  0 0.23030819E+04</rscale>
<asrwt>0</asrwt>
<pdfrwt beam="1">  1        1 0.15542455E+00 0.23030819E+04</pdfrwt>
<pdfrwt beam="2">  1       -1 0.20193539E+00 0.23030819E+04</pdfrwt>
<totfact> 0.19590676E+00</totfact>
</mgrwt>
</event>
<event>
12    1  0.2502641E-008  0.2428305E+04  0.7818608E-02  0.8428982E-01
          1   -1    0    0  501    0  0.00000000000E+00  0.00000000000E+00  0.19565644950E+04  0.19565644950E+04  0.00000000000E+00 0. -1.
         -1   -1    0    0    0  501 -0.00000000000E+00 -0.00000000000E+00 -0.75344637716E+03  0.75344637716E+03  0.00000000000E+00 0.  1.
         23    2    1    2    0    0  0.63413124021E+03 -0.34018535453E+03  0.13664931221E+04  0.15471671334E+04  0.92596871023E+02 0.  0.
        254    2    1    2    0    0 -0.63413124021E+03  0.34018535453E+03 -0.16337500427E+03  0.11628437388E+04  0.89870221074E+03 0.  0.
        -24    2    4    4    0    0 -0.43249467239E+03 -0.26024280562E+03 -0.72738837181E+02  0.51830099806E+03  0.92558233709E+02 0.  0.
         24    2    4    4    0    0 -0.20163656781E+03  0.60042816016E+03 -0.90636167091E+02  0.64454274074E+03  0.77776274416E+02 0.  0.
         13    1    3    3    0    0  0.23756375671E+02 -0.22132419280E+02  0.31726487256E+02  0.45395807756E+02  0.00000000000E+00 0.  1.
        -13    1    3    3    0    0  0.61037486453E+03 -0.31805293525E+03  0.13347666349E+04  0.15017713256E+04  0.00000000000E+00 0. -1.
          4    1    6    6  502    0 -0.13347526984E+03  0.31037017796E+03 -0.20708301667E+02  0.33848800390E+03  0.00000000000E+00 0. -1.
          3    1    5    5  503    0 -0.10866070652E+03 -0.72150796310E+02 -0.60043729093E+02  0.14359016663E+03  0.00000000000E+00 0. -1.
         -4    1    5    5    0  503 -0.32383396587E+03 -0.18809200931E+03 -0.12695108088E+02  0.37471083143E+03  0.00000000000E+00 0.  1.
         -3    1    6    6    0  502 -0.68161297973E+02  0.29005798220E+03 -0.69927865424E+02  0.30605473684E+03  0.00000000000E+00 0.  1.
<mgrwt>
<rscale>  0 0.24283051E+04</rscale>
<asrwt>0</asrwt>
<pdfrwt beam="1">  1        1 0.30100992E+00 0.24283051E+04</pdfrwt>
<pdfrwt beam="2">  1       -1 0.11591483E+00 0.24283051E+04</pdfrwt>
<totfact> 0.19196894E+00</totfact>
</mgrwt>
</event>
<event>
11    1  0.2502641E-008  0.1140395E+04  0.7818608E-02  0.9166691E-01
          2   -1    0    0  501    0  0.00000000000E+00  0.00000000000E+00  0.65529318294E+03  0.65529318294E+03  0.00000000000E+00 0. -1.
         -2   -1    0    0    0  501 -0.00000000000E+00 -0.00000000000E+00 -0.49615188366E+03  0.49615188366E+03  0.00000000000E+00 0.  1.
         23    2    1    2    0    0 -0.16584576478E+03  0.40015441086E+02  0.12874570759E+03  0.23153589086E+03  0.89035713690E+02 0.  0.
        254    2    1    2    0    0  0.16584576478E+03 -0.40015441086E+02  0.30395591686E+02  0.91990917574E+03  0.90343950899E+03 0.  0.
         24    2    4    4    0    0 -0.10772817002E+03  0.16935218324E+03 -0.18277719385E+03  0.28403814169E+03  0.83574175198E+02 0.  0.
         11    1    3    3    0    0  0.72116888023E+01 -0.90081209959E+01  0.14177839545E+02  0.18280203320E+02  0.00000000000E+00 0.  1.
        -11    1    3    3    0    0 -0.17305745358E+03  0.49023562082E+02  0.11456786805E+03  0.21325568754E+03  0.00000000000E+00 0. -1.
          2    1    5    5  502    0 -0.84916987803E+02  0.58303517998E+02 -0.10093844196E+03  0.14421776622E+03  0.00000000000E+00 0. -1.
          1    1    4    4  503    0  0.34253588904E+03  0.56688296426E+01  0.22479069540E+03  0.40974849317E+03  0.00000000000E+00 0. -1.
         -2    1    4    4    0  503 -0.68961954251E+02 -0.21503645396E+03 -0.11617909862E+02  0.22612254089E+03  0.00000000000E+00 0.  1.
         -1    1    5    5    0  502 -0.22811182215E+02  0.11104866524E+03 -0.81838751897E+02  0.13982037547E+03  0.00000000000E+00 0.  1.
<mgrwt>
<rscale>  0 0.11403946E+04</rscale>
<asrwt>0</asrwt>
<pdfrwt beam="1">  1        2 0.10081434E+00 0.11403946E+04</pdfrwt>
<pdfrwt beam="2">  1       -2 0.76331059E-01 0.11403946E+04</pdfrwt>
<totfact> 0.67738171E+01</totfact>
</mgrwt>
</event>
<event>
11    1  0.2502641E-008  0.1704425E+04  0.7818608E-02  0.8758845E-01
         -2   -1    0    0    0  501 -0.00000000000E+00  0.00000000000E+00  0.33250046004E+03  0.33250046004E+03  0.00000000000E+00 0.  1.
          2   -1    0    0  501    0  0.00000000000E+00 -0.00000000000E+00 -0.21842561179E+04  0.21842561179E+04  0.00000000000E+00 0. -1.
         23    2    1    2    0    0  0.38566927552E+03  0.45729628436E+03 -0.66346557920E+03  0.89799012348E+03  0.91318154332E+02 0.  0.
        254    2    1    2    0    0 -0.38566927552E+03 -0.45729628436E+03 -0.11882900787E+04  0.16187664545E+04  0.92223144670E+03 0.  0.
         24    2    4    4    0    0  0.16788251457E+03  0.97117447792E+02 -0.55979917399E+02  0.21686027574E+03  0.79235665421E+02 0.  0.
         11    1    3    3    0    0  0.23906925258E+03  0.34674172437E+03 -0.47614715012E+03  0.63568863409E+03  0.00000000000E+00 0. -1.
        -11    1    3    3    0    0  0.14660002294E+03  0.11055456000E+03 -0.18731842908E+03  0.26230148939E+03  0.00000000000E+00 0.  1.
          2    1    5    5  502    0 -0.75465010374E+01  0.95033138885E+00 -0.81813206359E+01  0.11170801896E+02  0.00000000000E+00 0. -1.
          3    1    4    4  503    0 -0.13971650067E+03 -0.20880221137E+02 -0.12156837770E+03  0.18637476935E+03  0.00000000000E+00 0. -1.
         -4    1    4    4    0  503 -0.41383528942E+03 -0.53353351102E+03 -0.10107417836E+04  0.12155314094E+04  0.00000000000E+00 0.  1.
         -1    1    5    5    0  502  0.17542901561E+03  0.96167116403E+02 -0.47798596763E+02  0.20568947384E+03  0.00000000000E+00 0.  1.
<mgrwt>
<rscale>  0 0.17044250E+04</rscale>
<asrwt>0</asrwt>
<pdfrwt beam="1">  1        2 0.33603941E+00 0.17044250E+04</pdfrwt>
<pdfrwt beam="2">  1       -2 0.51153916E-01 0.17044250E+04</pdfrwt>
<totfact> 0.18113478E+01</totfact>
</mgrwt>
</event>
<event>
11    1  0.2502641E-008  0.1516255E+04  0.7818608E-02  0.8873715E-01
         -2   -1    0    0    0  501 -0.00000000000E+00  0.00000000000E+00  0.15479857076E+04  0.15479857076E+04  0.00000000000E+00 0.  1.
          2   -1    0    0  501    0  0.00000000000E+00 -0.00000000000E+00 -0.37129348393E+03  0.37129348393E+03  0.00000000000E+00 0. -1.
         23    2    1    2    0    0  0.25800468450E+03 -0.30835147897E+03  0.73993433602E+03  0.84705164731E+03  0.91359836733E+02 0.  0.
        254    2    1    2    0    0 -0.25800468450E+03  0.30835147897E+03  0.43675788769E+03  0.10722275443E+04  0.89289831582E+03 0.  0.
         24    2    4    4    0    0  0.11867797304E+03  0.11247895392E+03 -0.13162775899E+03  0.22257868822E+03  0.74023166318E+02 0.  0.
         11    1    3    3    0    0  0.96534450619E+02 -0.13921262942E+03  0.22622711188E+03  0.28262654244E+03  0.00000000000E+00 0. -1.
        -11    1    3    3    0    0  0.16147023388E+03 -0.16913884956E+03  0.51370722415E+03  0.56442510486E+03  0.00000000000E+00 0.  1.
          2    1    5    5  502    0  0.12085655538E+03  0.11207437928E+03 -0.13854347043E+03  0.21531666603E+03  0.00000000000E+00 0. -1.
          1    1    4    4  503    0 -0.45447922248E+03  0.11830082249E+03  0.57155103482E+03  0.73974119372E+03  0.00000000000E+00 0. -1.
         -2    1    4    4    0  503  0.77796564939E+02  0.77571702559E+02 -0.31653881441E+01  0.10990766232E+03  0.00000000000E+00 0.  1.
         -1    1    5    5    0  502 -0.21785823400E+01  0.40457463907E+00  0.69157114370E+01  0.72620221930E+01  0.00000000000E+00 0.  1.
<mgrwt>
<rscale>  0 0.15162546E+04</rscale>
<asrwt>0</asrwt>
<pdfrwt beam="1">  1        2 0.57122075E-01 0.15162546E+04</pdfrwt>
<pdfrwt beam="2">  1       -2 0.23815164E+00 0.15162546E+04</pdfrwt>
<totfact> 0.63473816E+00</totfact>
</mgrwt>
</event>
<event>
12    1  0.2502641E-008  0.1524795E+04  0.7818608E-02  0.8868130E-01
          2   -1    0    0  501    0  0.00000000000E+00  0.00000000000E+00  0.11860833525E+04  0.11860833525E+04  0.00000000000E+00 0. -1.
         -2   -1    0    0    0  501 -0.00000000000E+00 -0.00000000000E+00 -0.49005813772E+03  0.49005813772E+03  0.00000000000E+00 0.  1.
         23    2    1    2    0    0  0.37244230790E+03 -0.10835621261E+03 -0.95619026228E+02  0.40938934153E+03  0.89455537864E+02 0.  0.
        254    2    1    2    0    0 -0.37244230790E+03  0.10835621261E+03  0.79164424105E+03  0.12667521487E+04  0.90967360103E+03 0.  0.
        -24    2    4    4    0    0  0.12326387295E+03 -0.17708649509E+03 -0.48087491166E+02  0.24731885769E+03  0.11090807656E+03 0.  0.
         24    2    4    4    0    0 -0.49570618085E+03  0.28544270770E+03  0.83973173221E+03  0.10194332910E+04  0.83022260201E+02 0.  0.
         13    1    3    3    0    0  0.78821108859E+02 -0.51215363585E+02 -0.51022661544E+02  0.10695369400E+03  0.00000000000E+00 0. -1.
        -13    1    3    3    0    0  0.29362119904E+03 -0.57140849027E+02 -0.44596364684E+02  0.30243564753E+03  0.00000000000E+00 0.  1.
          4    1    6    6  502    0 -0.49311284390E+03  0.28434790698E+03  0.81248351062E+03  0.99204005163E+03  0.00000000000E+00 0. -1.
          1    1    5    5  503    0  0.43518944787E+02 -0.14900099204E+03 -0.12962326849E+02  0.15576654359E+03  0.00000000000E+00 0. -1.
         -2    1    5    5    0  503  0.79744928162E+02 -0.28085503046E+02 -0.35125164317E+02  0.91552314101E+02  0.00000000000E+00 0.  1.
         -3    1    6    6    0  502 -0.25933369484E+01  0.10948007250E+01  0.27248221596E+02  0.27393239408E+02  0.00000000000E+00 0.  1.
<mgrwt>
<rscale>  0 0.15247948E+04</rscale>
<asrwt>0</asrwt>
<pdfrwt beam="1">  1        2 0.18247436E+00 0.15247948E+04</pdfrwt>
<pdfrwt beam="2">  1       -2 0.75393560E-01 0.15247948E+04</pdfrwt>
<totfact> 0.29394103E+01</totfact>
</mgrwt>
</event>
<event>
12    1  0.2502641E-008  0.2642117E+04  0.7818608E-02  0.8354034E-01
          2   -1    0    0  501    0  0.00000000000E+00  0.00000000000E+00  0.39080905341E+04  0.39080905341E+04  0.00000000000E+00 0.  1.
         -2   -1    0    0    0  501 -0.00000000000E+00 -0.00000000000E+00 -0.44655960877E+03  0.44655960877E+03  0.00000000000E+00 0. -1.
         23    2    1    2    0    0 -0.91939725979E+03  0.67128505464E+03  0.12495216420E+04  0.16927095241E+04  0.89700909074E+02 0.  0.
        254    2    1    2    0    0  0.91939725979E+03 -0.67128505464E+03  0.22120092832E+04  0.26619406187E+04  0.94711553818E+03 0.  0.
        -24    2    4    4    0    0  0.57003872895E+03 -0.79831163566E+03  0.10544310652E+04  0.14435068574E+04  0.98191425894E+02 0.  0.
         24    2    4    4    0    0  0.34935853085E+03  0.12702658102E+03  0.11575782181E+04  0.12184337613E+04  0.80039767682E+02 0.  0.
         13    1    3    3    0    0 -0.40462707081E+03  0.26887804079E+03  0.59086348975E+03  0.76494322062E+03  0.00000000000E+00 0.  1.
        -13    1    3    3    0    0 -0.51477018898E+03  0.40240701385E+03  0.65865815230E+03  0.92776630347E+03  0.00000000000E+00 0. -1.
          2    1    6    6  502    0  0.27035822132E+03  0.12851959865E+03  0.86306390062E+03  0.91350432491E+03  0.00000000000E+00 0. -1.
          1    1    5    5  503    0  0.26311708268E+03 -0.45275440534E+03  0.56250663757E+03  0.76852512520E+03  0.00000000000E+00 0. -1.
         -2    1    5    5    0  503  0.30692164627E+03 -0.34555723032E+03  0.49192442762E+03  0.67498173224E+03  0.00000000000E+00 0.  1.
         -1    1    6    6    0  502  0.79000309526E+02 -0.14930176311E+01  0.29451431743E+03  0.30492943639E+03  0.00000000000E+00 0.  1.
<mgrwt>
<rscale>  0 0.26421169E+04</rscale>
<asrwt>0</asrwt>
<pdfrwt beam="1">  1        2 0.60124468E+00 0.26421169E+04</pdfrwt>
<pdfrwt beam="2">  1       -2 0.68701481E-01 0.26421169E+04</pdfrwt>
<totfact> 0.69263113E-01</totfact>
</mgrwt>
</event>
<event>
12    1  0.2502641E-008  0.1325111E+04  0.7818608E-02  0.9009886E-01
          2   -1    0    0  501    0  0.00000000000E+00  0.00000000000E+00  0.18186485365E+04  0.18186485365E+04  0.00000000000E+00 0. -1.
         -2   -1    0    0    0  501 -0.00000000000E+00 -0.00000000000E+00 -0.24137681574E+03  0.24137681574E+03  0.00000000000E+00 0.  1.
         23    2    1    2    0    0  0.23418884807E+03 -0.10480102488E+03  0.54371949884E+02  0.27795357899E+03  0.92055482005E+02 0.  0.
        254    2    1    2    0    0 -0.23418884807E+03  0.10480102488E+03  0.15228997708E+04  0.17820717732E+04  0.88922911641E+03 0.  0.
        -24    2    4    4    0    0 -0.53426719366E+03 -0.91557263229E+02  0.10269860360E+04  0.11649379423E+04  0.92498240769E+02 0.  0.
         24    2    4    4    0    0  0.30007834560E+03  0.19635828811E+03  0.49591373481E+03  0.61713383091E+03  0.79499321192E+02 0.  0.
         13    1    3    3    0    0  0.16917313256E+03 -0.11695420792E+03  0.50072589528E+02  0.21167215157E+03  0.00000000000E+00 0.  1.
        -13    1    3    3    0    0  0.65015715510E+02  0.12153183045E+02  0.42993603562E+01  0.66281427420E+02  0.00000000000E+00 0. -1.
          4    1    6    6  502    0  0.29185139189E+02  0.65955997416E+01  0.15018572085E+02  0.33478826038E+02  0.00000000000E+00 0. -1.
          3    1    5    5  503    0 -0.19152121630E+02  0.13829666040E+02  0.35039897813E+02  0.42259411549E+02  0.00000000000E+00 0. -1.
         -4    1    5    5    0  503 -0.51511507203E+03 -0.10538692927E+03  0.99194613821E+03  0.11226785308E+04  0.00000000000E+00 0.  1.
         -3    1    6    6    0  502  0.27089320641E+03  0.18976268837E+03  0.48089516273E+03  0.58365500487E+03  0.00000000000E+00 0.  1.
<mgrwt>
<rscale>  0 0.13251107E+04</rscale>
<asrwt>0</asrwt>
<pdfrwt beam="1">  1        2 0.27979207E+00 0.13251107E+04</pdfrwt>
<pdfrwt beam="2">  1       -2 0.37134896E-01 0.13251107E+04</pdfrwt>
<totfact> 0.56359917E+01</totfact>
</mgrwt>
</event>
<event>
11    1  0.2502641E-008  0.1363785E+04  0.7818608E-02  0.8980458E-01
         -2   -1    0    0    0  501 -0.00000000000E+00  0.00000000000E+00  0.22975053675E+03  0.22975053675E+03  0.00000000000E+00 0.  1.
          2   -1    0    0  501    0  0.00000000000E+00 -0.00000000000E+00 -0.20238355215E+04  0.20238355215E+04  0.00000000000E+00 0. -1.
         23    2    1    2    0    0 -0.39924543130E+03 -0.21309999250E+03 -0.60920859088E+03  0.76454157053E+03  0.92629286105E+02 0.  0.
        254    2    1    2    0    0  0.39924543130E+03  0.21309999250E+03 -0.11848763939E+04  0.14890444877E+04  0.78007236616E+03 0.  0.
         24    2    4    4    0    0 -0.15758434418E+03 -0.70005703059E+02 -0.65489805851E+02  0.20092328299E+03  0.79671996244E+02 0.  0.
         11    1    3    3    0    0 -0.28012356841E+03 -0.19284126439E+03 -0.42646608423E+03  0.54546336983E+03  0.00000000000E+00 0. -1.
        -11    1    3    3    0    0 -0.11912186289E+03 -0.20258728112E+02 -0.18274250665E+03  0.21907820070E+03  0.00000000000E+00 0.  1.
          2    1    5    5  502    0 -0.14983997155E+03 -0.54821285217E+02 -0.80047313938E+02  0.17850759887E+03  0.00000000000E+00 0. -1.
          1    1    4    4  503    0  0.52639108524E+03  0.23668560931E+03 -0.96954998483E+03  0.11283327636E+04  0.00000000000E+00 0. -1.
         -2    1    4    4    0  503  0.30438690237E+02  0.46420086255E+02 -0.14983660322E+03  0.15978844118E+03  0.00000000000E+00 0.  1.
         -1    1    5    5    0  502 -0.77443726265E+01 -0.15184417842E+02  0.14557508087E+02  0.22415684114E+02  0.00000000000E+00 0.  1.
<mgrwt>
<rscale>  0 0.13637849E+04</rscale>
<asrwt>0</asrwt>
<pdfrwt beam="1">  1        2 0.31135930E+00 0.13637849E+04</pdfrwt>
<pdfrwt beam="2">  1       -2 0.35346237E-01 0.13637849E+04</pdfrwt>
<totfact> 0.47575454E+01</totfact>
</mgrwt>
</event>
<event>
11    1  0.2502641E-008  0.1402659E+04  0.7818608E-02  0.8951896E-01
          2   -1    0    0  501    0  0.00000000000E+00  0.00000000000E+00  0.44808583599E+03  0.44808583599E+03  0.00000000000E+00 0. -1.
         -2   -1    0    0    0  501 -0.00000000000E+00 -0.00000000000E+00 -0.10976988418E+04  0.10976988418E+04  0.00000000000E+00 0.  1.
         23    2    1    2    0    0 -0.23341573431E+03  0.44550777468E+02 -0.45500994463E+03  0.52142530079E+03  0.91556637091E+02 0.  0.
        254    2    1    2    0    0  0.23341573431E+03 -0.44550777468E+02 -0.19460306116E+03  0.10243593770E+04  0.97722776515E+03 0.  0.
         24    2    4    4    0    0 -0.20005445206E+03 -0.17716479260E+03 -0.29015452305E+03  0.40245749728E+03  0.79832589435E+02 0.  0.
         13    1    3    3    0    0 -0.20783617253E+03  0.25795060498E+02 -0.43785600159E+03  0.48536495329E+03  0.00000000000E+00 0.  1.
        -13    1    3    3    0    0 -0.25579561776E+02  0.18755716970E+02 -0.17153943045E+02  0.36060347498E+02  0.00000000000E+00 0. -1.
          4    1    5    5  502    0 -0.14672648986E+03 -0.78223969219E+02 -0.16520936690E+03  0.23439664481E+03  0.00000000000E+00 0. -1.
          1    1    4    4  503    0  0.44759066056E+03  0.23842551042E+03  0.68151928187E+02  0.51169210347E+03  0.00000000000E+00 0. -1.
         -2    1    4    4    0  503 -0.14120474188E+02 -0.10581149529E+03  0.27399533712E+02  0.11020977622E+03  0.00000000000E+00 0.  1.
         -3    1    5    5    0  502 -0.53327962203E+02 -0.98940823386E+02 -0.12494515615E+03  0.16806085246E+03  0.00000000000E+00 0.  1.
<mgrwt>
<rscale>  0 0.14026593E+04</rscale>
<asrwt>0</asrwt>
<pdfrwt beam="1">  1        2 0.68936283E-01 0.14026593E+04</pdfrwt>
<pdfrwt beam="2">  1       -2 0.16887674E+00 0.14026593E+04</pdfrwt>
<totfact> 0.14748392E+01</totfact>
</mgrwt>
</event>
<event>
11    1  0.2502641E-008  0.1336287E+04  0.7818608E-02  0.9001274E-01
         -1   -1    0    0    0  501 -0.00000000000E+00  0.00000000000E+00  0.46063864714E+03  0.46063864714E+03  0.00000000000E+00 0.  1.
          1   -1    0    0  501    0  0.00000000000E+00 -0.00000000000E+00 -0.96912375031E+03  0.96912375031E+03  0.00000000000E+00 0. -1.
         23    2    1    2    0    0  0.23507204218E+03 -0.12865434810E+03 -0.40114500088E+03  0.49105782682E+03  0.91704259702E+02 0.  0.
        254    2    1    2    0    0 -0.23507204218E+03  0.12865434810E+03 -0.10734010229E+03  0.93870457063E+03  0.89321529715E+03 0.  0.
         24    2    4    4    0    0  0.26042505888E+03  0.25962528315E+03 -0.61226979428E+02  0.38143924792E+03  0.80750590686E+02 0.  0.
         11    1    3    3    0    0  0.15821159338E+03 -0.99137846252E+02 -0.34212847534E+03  0.38975776385E+03  0.00000000000E+00 0. -1.
        -11    1    3    3    0    0  0.76860448804E+02 -0.29516501846E+02 -0.59016525542E+02  0.10130006297E+03  0.00000000000E+00 0.  1.
          4    1    5    5  502    0  0.13449328826E+03  0.15052448266E+03 -0.72396584690E+02  0.21444656664E+03  0.00000000000E+00 0. -1.
          1    1    4    4  503    0 -0.38344025865E+03 -0.18868189136E+03 -0.15873442673E+02  0.42764384044E+03  0.00000000000E+00 0. -1.
         -2    1    4    4    0  503 -0.11205684242E+03  0.57710956312E+02 -0.30239680184E+02  0.12962148228E+03  0.00000000000E+00 0.  1.
         -3    1    5    5    0  502  0.12593177062E+03  0.10910080049E+03  0.11169605261E+02  0.16699268128E+03  0.00000000000E+00 0.  1.
<mgrwt>
<rscale>  0 0.13362872E+04</rscale>
<asrwt>0</asrwt>
<pdfrwt beam="1">  1        1 0.14909596E+00 0.13362872E+04</pdfrwt>
<pdfrwt beam="2">  1       -1 0.70867485E-01 0.13362872E+04</pdfrwt>
<totfact> 0.31548168E+01</totfact>
</mgrwt>
</event>
<event>
11    1  0.2502641E-008  0.1127596E+04  0.7818608E-02  0.9178705E-01
         -2   -1    0    0    0  501 -0.00000000000E+00  0.00000000000E+00  0.73793050457E+02  0.73793050457E+02  0.00000000000E+00 0.  1.
          2   -1    0    0  501    0  0.00000000000E+00 -0.00000000000E+00 -0.43075630927E+04  0.43075630927E+04  0.00000000000E+00 0. -1.
         23    2    1    2    0    0  0.16510072661E+03  0.77111611262E+02 -0.88651643880E+03  0.90937461986E+03  0.88579639080E+02 0.  0.
        254    2    1    2    0    0 -0.16510072661E+03 -0.77111611262E+02 -0.33472536034E+04  0.34719815233E+04  0.90407110442E+03 0.  0.
         24    2    4    4    0    0  0.88165230551E+02  0.37294218354E+03 -0.14714696791E+04  0.15226775324E+04  0.80404420780E+02 0.  0.
         11    1    3    3    0    0  0.25111282954E+02  0.10480059616E+00 -0.31339943756E+03  0.31440387240E+03  0.00000000000E+00 0. -1.
        -11    1    3    3    0    0  0.13998944366E+03  0.77006810666E+02 -0.57311700124E+03  0.59497074746E+03  0.00000000000E+00 0.  1.
          4    1    5    5  502    0  0.50187621905E+02  0.20282392532E+03 -0.64393989710E+03  0.67698961081E+03  0.00000000000E+00 0. -1.
          1    1    4    4  503    0 -0.11042136463E+03 -0.25127296589E+03 -0.11869591983E+04  0.12182787528E+04  0.00000000000E+00 0. -1.
         -2    1    4    4    0  503 -0.14284459253E+03 -0.19878082892E+03 -0.68882472603E+03  0.73102523811E+03  0.00000000000E+00 0.  1.
         -3    1    5    5    0  502  0.37977608646E+02  0.17011825823E+03 -0.82752978204E+03  0.84568792157E+03  0.00000000000E+00 0.  1.
<mgrwt>
<rscale>  0 0.11275961E+04</rscale>
<asrwt>0</asrwt>
<pdfrwt beam="1">  1        2 0.66270198E+00 0.11275961E+04</pdfrwt>
<pdfrwt beam="2">  1       -2 0.11352778E-01 0.11275961E+04</pdfrwt>
<totfact> 0.10952879E+01</totfact>
</mgrwt>
</event>
<event>
12    1  0.2502641E-008  0.1880023E+04  0.7818608E-02  0.8664865E-01
          2   -1    0    0  501    0  0.00000000000E+00  0.00000000000E+00  0.61125491415E+03  0.61125491415E+03  0.00000000000E+00 0. -1.
         -2   -1    0    0    0  501 -0.00000000000E+00 -0.00000000000E+00 -0.14455855407E+04  0.14455855407E+04  0.00000000000E+00 0.  1.
         23    2    1    2    0    0 -0.33753633149E+03 -0.31546540375E+03 -0.81163097580E+03  0.93827254963E+03  0.90340137680E+02 0.  0.
        254    2    1    2    0    0  0.33753633149E+03  0.31546540375E+03 -0.22699650715E+02  0.11185679052E+04  0.10184447399E+04 0.  0.
        -24    2    4    4    0    0  0.39565675791E+03 -0.25314118763E+03  0.17861008859E+03  0.50722197309E+03  0.68904537439E+02 0.  0.
         24    2    4    4    0    0 -0.58120426426E+02  0.56860659139E+03 -0.20130973931E+03  0.61134593210E+03  0.80788599521E+02 0.  0.
         13    1    3    3    0    0 -0.37013389995E+02 -0.74689133633E+02 -0.11130989364E+03  0.13906239658E+03  0.00000000000E+00 0. -1.
        -13    1    3    3    0    0 -0.30052294149E+03 -0.24077627012E+03 -0.70032108216E+03  0.79921015305E+03  0.00000000000E+00 0.  1.
          4    1    6    6  502    0 -0.11687072024E+02  0.74107364179E+01 -0.19050503358E+01  0.13969104607E+02  0.00000000000E+00 0. -1.
          3    1    5    5  503    0  0.18938960309E+03 -0.84528815679E+02  0.93912537941E+02  0.22766885431E+03  0.00000000000E+00 0. -1.
         -4    1    5    5    0  503  0.20626715482E+03 -0.16861237196E+03  0.84697550649E+02  0.27955311878E+03  0.00000000000E+00 0.  1.
         -3    1    6    6    0  502 -0.46433354402E+02  0.56119585497E+03 -0.19940468897E+03  0.59737682749E+03  0.00000000000E+00 0.  1.
<mgrwt>
<rscale>  0 0.18800226E+04</rscale>
<asrwt>0</asrwt>
<pdfrwt beam="1">  1        2 0.94039218E-01 0.18800226E+04</pdfrwt>
<pdfrwt beam="2">  1       -2 0.22239778E+00 0.18800226E+04</pdfrwt>
<totfact> 0.43385701E+00</totfact>
</mgrwt>
</event>
<event>
12    1  0.2502641E-008  0.1726622E+04  0.7818608E-02  0.8746325E-01
         -1   -1    0    0    0  501 -0.00000000000E+00  0.00000000000E+00  0.68834170704E+03  0.68834170704E+03  0.00000000000E+00 0.  1.
          1   -1    0    0  501    0  0.00000000000E+00 -0.00000000000E+00 -0.10827550941E+04  0.10827550941E+04  0.00000000000E+00 0. -1.
         23    2    1    2    0    0  0.17265953525E+03  0.35068181473E+03 -0.64364944921E+03  0.75903745931E+03  0.95206096824E+02 0.  0.
        254    2    1    2    0    0 -0.17265953525E+03 -0.35068181473E+03  0.24923606213E+03  0.10120593419E+04  0.89964239923E+03 0.  0.
        -24    2    4    4    0    0 -0.63882538355E+02  0.12770550086E+03 -0.25136683407E+03  0.30700760519E+03  0.10333784747E+03 0.  0.
         24    2    4    4    0    0 -0.10877699689E+03 -0.47838731559E+03  0.50060289619E+03  0.70505173667E+03  0.76209139461E+02 0.  0.
         11    1    3    3    0    0  0.15605413498E+03  0.35218329949E+03 -0.62333591393E+03  0.73275755272E+03  0.00000000000E+00 0. -1.
        -11    1    3    3    0    0  0.16605400264E+02 -0.15014847584E+01 -0.20313535282E+02  0.26279906584E+02  0.00000000000E+00 0.  1.
          4    1    6    6  502    0 -0.31950108321E+02 -0.60783252676E+02  0.99873233249E+02  0.12120262352E+03  0.00000000000E+00 0. -1.
          1    1    5    5  503    0  0.36166043185E+01  0.12558510911E+01 -0.94262495404E+02  0.94340208970E+02  0.00000000000E+00 0. -1.
         -2    1    5    5    0  503 -0.67499142673E+02  0.12644964977E+03 -0.15710433866E+03  0.21266739622E+03  0.00000000000E+00 0.  1.
         -3    1    6    6    0  502 -0.76826888569E+02 -0.41760406291E+03  0.40072966294E+03  0.58384911315E+03  0.00000000000E+00 0.  1.
<mgrwt>
<rscale>  0 0.17266215E+04</rscale>
<asrwt>0</asrwt>
<pdfrwt beam="1">  1        1 0.16657771E+00 0.17266215E+04</pdfrwt>
<pdfrwt beam="2">  1       -1 0.10589872E+00 0.17266215E+04</pdfrwt>
<totfact> 0.10354990E+01</totfact>
</mgrwt>
</event>
<event>
12    1  0.2502641E-008  0.1257989E+04  0.7818608E-02  0.9063560E-01
          1   -1    0    0  501    0  0.00000000000E+00  0.00000000000E+00  0.18085079546E+04  0.18085079546E+04  0.00000000000E+00 0. -1.
         -1   -1    0    0    0  501 -0.00000000000E+00 -0.00000000000E+00 -0.21876283846E+03  0.21876283846E+03  0.00000000000E+00 0.  1.
         23    2    1    2    0    0  0.10355391542E+03  0.44429343902E+02  0.83782428309E+03  0.85029169394E+03  0.91373165926E+02 0.  0.
        254    2    1    2    0    0 -0.10355391542E+03 -0.44429343902E+02  0.75192083308E+03  0.11769790991E+04  0.89844169572E+03 0.  0.
        -24    2    4    4    0    0  0.25337554168E+03 -0.33971872202E+03  0.42923336815E+03  0.60696244950E+03  0.67484483837E+02 0.  0.
         24    2    4    4    0    0 -0.35692945711E+03  0.29528937812E+03  0.32268746493E+03  0.57001664964E+03  0.78723101199E+02 0.  0.
         11    1    3    3    0    0 -0.20090908676E+01  0.20520706155E+02  0.38510071215E+02  0.43682506936E+02  0.00000000000E+00 0.  1.
        -11    1    3    3    0    0  0.10556300629E+03  0.23908637746E+02  0.79931421187E+03  0.80660918700E+03  0.00000000000E+00 0. -1.
          4    1    6    6  502    0 -0.12896063420E+03  0.89751333406E+02  0.15292267653E+03  0.21925211976E+03  0.00000000000E+00 0. -1.
          3    1    5    5  503    0  0.23376832841E+02 -0.29194017210E+02  0.14523752759E+02  0.40121145905E+02  0.00000000000E+00 0. -1.
         -4    1    5    5    0  503  0.22999870884E+03 -0.31052470481E+03  0.41470961539E+03  0.56684130360E+03  0.00000000000E+00 0.  1.
         -3    1    6    6    0  502 -0.22796882290E+03  0.20553804472E+03  0.16976478840E+03  0.35076452988E+03  0.00000000000E+00 0.  1.
<mgrwt>
<rscale>  0 0.12579894E+04</rscale>
<asrwt>0</asrwt>
<pdfrwt beam="1">  1        1 0.27823198E+00 0.12579894E+04</pdfrwt>
<pdfrwt beam="2">  1       -1 0.33655822E-01 0.12579894E+04</pdfrwt>
<totfact> 0.32998260E+01</totfact>
</mgrwt>
</event>
<event>
11    1  0.2502641E-008  0.1346781E+04  0.7818608E-02  0.8993269E-01
          1   -1    0    0  501    0  0.00000000000E+00  0.00000000000E+00  0.73431174890E+03  0.73431174890E+03  0.00000000000E+00 0. -1.
         -1   -1    0    0    0  501 -0.00000000000E+00 -0.00000000000E+00 -0.61752325083E+03  0.61752325083E+03  0.00000000000E+00 0.  1.
         23    2    1    2    0    0  0.35606492886E+03  0.67346032235E+02 -0.16536214760E+02  0.37366010288E+03  0.89614197906E+02 0.  0.
        254    2    1    2    0    0 -0.35606492886E+03 -0.67346032235E+02  0.13332471282E+03  0.97817489685E+03  0.89873963313E+03 0.  0.
         24    2    4    4    0    0 -0.39765455248E+03 -0.73624981464E+02  0.46576612758E+03  0.62323491823E+03  0.89072423832E+02 0.  0.
         13    1    3    3    0    0  0.33170370652E+02  0.14519609755E+02 -0.28765375342E+02  0.46244344250E+02  0.00000000000E+00 0. -1.
        -13    1    3    3    0    0  0.32289455821E+03  0.52826422480E+02  0.12229160582E+02  0.32741575863E+03  0.00000000000E+00 0.  1.
          2    1    5    5  502    0 -0.20710847565E+03 -0.83469721298E+02  0.24903936030E+03  0.33448724645E+03  0.00000000000E+00 0. -1.
          1    1    4    4  503    0  0.51811441314E+02 -0.46855085169E+02 -0.20121619617E+03  0.21299714097E+03  0.00000000000E+00 0. -1.
         -2    1    4    4    0  503 -0.10221817690E+02  0.53134034398E+02 -0.13122521859E+03  0.14194283766E+03  0.00000000000E+00 0.  1.
         -1    1    5    5    0  502 -0.19054607684E+03  0.98447398347E+01  0.21672676728E+03  0.28874767178E+03  0.00000000000E+00 0.  1.
<mgrwt>
<rscale>  0 0.13467807E+04</rscale>
<asrwt>0</asrwt>
<pdfrwt beam="1">  1        1 0.11297104E+00 0.13467807E+04</pdfrwt>
<pdfrwt beam="2">  1       -1 0.95003578E-01 0.13467807E+04</pdfrwt>
<totfact> 0.26546183E+01</totfact>
</mgrwt>
</event>
<event>
12    1  0.2502641E-008  0.3037733E+04  0.7818608E-02  0.8233037E-01
          2   -1    0    0  501    0  0.00000000000E+00  0.00000000000E+00  0.20023791049E+04  0.20023791049E+04  0.00000000000E+00 0.  1.
         -2   -1    0    0    0  501 -0.00000000000E+00 -0.00000000000E+00 -0.11521075233E+04  0.11521075233E+04  0.00000000000E+00 0. -1.
         23    2    1    2    0    0  0.51333173726E+03 -0.12647859382E+04  0.62551528749E+03  0.15046769352E+04  0.97930395921E+02 0.  0.
        254    2    1    2    0    0 -0.51333173726E+03  0.12647859382E+04  0.22475629403E+03  0.16498096930E+04  0.89897924875E+03 0.  0.
        -24    2    4    4    0    0 -0.14950490835E+03 -0.10762597484E+03 -0.85438057802E+01  0.20876591807E+03  0.97852663984E+02 0.  0.
         24    2    4    4    0    0 -0.36382682891E+03  0.13724119130E+04  0.23330009981E+03  0.14410437750E+04  0.79333501112E+02 0.  0.
         11    1    3    3    0    0  0.17362525343E+03 -0.50536060289E+03  0.28647834502E+03  0.60630430458E+03  0.00000000000E+00 0. -1.
        -11    1    3    3    0    0  0.33970648383E+03 -0.75942533528E+03  0.33903694247E+03  0.89837263058E+03  0.00000000000E+00 0.  1.
          4    1    6    6  502    0 -0.34519059057E+03  0.13263385530E+04  0.23833018465E+03  0.13910901401E+04  0.00000000000E+00 0. -1.
          3    1    5    5  503    0 -0.15826655983E+03 -0.98300774835E+02  0.96081231215E+01  0.18655739686E+03  0.00000000000E+00 0. -1.
         -4    1    5    5    0  503  0.87616514725E+01 -0.93252000083E+01 -0.18151928902E+02  0.22208521215E+02  0.00000000000E+00 0.  1.
         -3    1    6    6    0  502 -0.18636238340E+02  0.46073359989E+02 -0.50300848441E+01  0.49953634840E+02  0.00000000000E+00 0.  1.
<mgrwt>
<rscale>  0 0.30377334E+04</rscale>
<asrwt>0</asrwt>
<pdfrwt beam="1">  1        2 0.30805832E+00 0.30377334E+04</pdfrwt>
<pdfrwt beam="2">  1       -2 0.17724731E+00 0.30377334E+04</pdfrwt>
<totfact> 0.10771775E+00</totfact>
</mgrwt>
</event>
<event>
12    1  0.2502641E-008  0.2876445E+04  0.7818608E-02  0.8279921E-01
          1   -1    0    0  501    0  0.00000000000E+00  0.00000000000E+00  0.14247856905E+04  0.14247856905E+04  0.00000000000E+00 0. -1.
         -1   -1    0    0    0  501 -0.00000000000E+00 -0.00000000000E+00 -0.14517856325E+04  0.14517856325E+04  0.00000000000E+00 0.  1.
         23    2    1    2    0    0  0.42151092063E+03 -0.12091587828E+04 -0.21302290219E+03  0.13013122104E+04  0.91094970568E+02 0.  0.
        254    2    1    2    0    0 -0.42151092063E+03  0.12091587828E+04  0.18602296016E+03  0.15752591127E+04  0.89838761790E+03 0.  0.
        -24    2    4    4    0    0 -0.56215499392E+03  0.47491963479E+03  0.32283227452E+03  0.81114773464E+03  0.11033165119E+03 0.  0.
         24    2    4    4    0    0  0.14064407329E+03  0.73423914805E+03 -0.13680931436E+03  0.76411137802E+03  0.79129815146E+02 0.  0.
         13    1    3    3    0    0  0.26916536164E+03 -0.82010032976E+03 -0.10314339970E+03  0.86928309755E+03  0.00000000000E+00 0. -1.
        -13    1    3    3    0    0  0.15234555899E+03 -0.38905845307E+03 -0.10987950248E+03  0.43202911281E+03  0.00000000000E+00 0.  1.
          4    1    6    6  502    0  0.20031122127E+02  0.25043300995E+03 -0.20201258963E+02  0.25204370493E+03  0.00000000000E+00 0. -1.
          1    1    5    5  503    0 -0.12279785267E+03  0.16840488122E+03  0.91735752030E+02  0.22771685234E+03  0.00000000000E+00 0. -1.
         -2    1    5    5    0  503 -0.43935714125E+03  0.30651475357E+03  0.23109652249E+03  0.58343088230E+03  0.00000000000E+00 0.  1.
         -1    1    6    6    0  502  0.12061295116E+03  0.48380613809E+03 -0.11660805539E+03  0.51206767309E+03  0.00000000000E+00 0.  1.
<mgrwt>
<rscale>  0 0.28764446E+04</rscale>
<asrwt>0</asrwt>
<pdfrwt beam="1">  1        1 0.21919780E+00 0.28764446E+04</pdfrwt>
<pdfrwt beam="2">  1       -1 0.22335164E+00 0.28764446E+04</pdfrwt>
<totfact> 0.66351009E-01</totfact>
</mgrwt>
</event>
<event>
11    1  0.2502641E-008  0.2667880E+04  0.7818608E-02  0.8345503E-01
         -2   -1    0    0    0  501 -0.00000000000E+00  0.00000000000E+00  0.82285666382E+03  0.82285666382E+03  0.00000000000E+00 0.  1.
          2   -1    0    0  501    0  0.00000000000E+00 -0.00000000000E+00 -0.21624616944E+04  0.21624616944E+04  0.00000000000E+00 0. -1.
         23    2    1    2    0    0 -0.43763463115E+02 -0.57930179694E+03 -0.17496631103E+04  0.18457484469E+04  0.89221729488E+02 0.  0.
        254    2    1    2    0    0  0.43763463115E+02  0.57930179694E+03  0.41005807972E+03  0.11395699113E+04  0.89048646336E+03 0.  0.
         24    2    4    4    0    0  0.17932509637E+03  0.48465440831E+03 -0.13624994124E+03  0.54043713423E+03  0.80379499214E+02 0.  0.
         13    1    3    3    0    0 -0.23274681240E+02 -0.26829367605E+03 -0.67307032282E+03  0.72494611307E+03  0.00000000000E+00 0.  1.
        -13    1    3    3    0    0 -0.20488781875E+02 -0.31100812089E+03 -0.10765927875E+04  0.11208023338E+04  0.00000000000E+00 0. -1.
          4    1    5    5  502    0  0.16207282064E+03  0.47133979547E+03 -0.14129791215E+03  0.51806746855E+03  0.00000000000E+00 0. -1.
          1    1    4    4  503    0 -0.14499888756E+03  0.13316435437E+03  0.50429321827E+03  0.54135854353E+03  0.00000000000E+00 0. -1.
         -2    1    4    4    0  503  0.94372543025E+01 -0.38516965734E+02  0.42014802692E+02  0.57774233560E+02  0.00000000000E+00 0.  1.
         -3    1    5    5    0  502  0.17252275728E+02  0.13314612832E+02  0.50479709116E+01  0.22369665688E+02  0.00000000000E+00 0.  1.
<mgrwt>
<rscale>  0 0.26678801E+04</rscale>
<asrwt>0</asrwt>
<pdfrwt beam="1">  1        2 0.33268641E+00 0.26678801E+04</pdfrwt>
<pdfrwt beam="2">  1       -2 0.12659333E+00 0.26678801E+04</pdfrwt>
<totfact> 0.22144962E+00</totfact>
</mgrwt>
</event>
<event>
12    1  0.2502641E-008  0.2175992E+04  0.7818608E-02  0.8528488E-01
          1   -1    0    0  501    0  0.00000000000E+00  0.00000000000E+00  0.56157748602E+03  0.56157748602E+03  0.00000000000E+00 0. -1.
         -1   -1    0    0    0  501 -0.00000000000E+00 -0.00000000000E+00 -0.21078751428E+04  0.21078751428E+04  0.00000000000E+00 0.  1.
         23    2    1    2    0    0 -0.82924032952E+02 -0.71640931163E+03  0.18335209031E+02  0.72705199368E+03  0.90275825101E+02 0.  0.
        254    2    1    2    0    0  0.82924032952E+02  0.71640931163E+03 -0.15646328658E+04  0.19424006352E+04  0.89706495059E+03 0.  0.
        -24    2    4    4    0    0 -0.36466019040E+03  0.16906440842E+03 -0.78263277090E+03  0.88511170340E+03  0.96689424175E+02 0.  0.
         24    2    4    4    0    0  0.44758422335E+03  0.54734490321E+03 -0.78200009493E+03  0.10572889318E+04  0.80110278243E+02 0.  0.
         13    1    3    3    0    0 -0.78437818741E+02 -0.62697833778E+03  0.45436195275E+02  0.63349725753E+03  0.00000000000E+00 0. -1.
        -13    1    3    3    0    0 -0.44862142105E+01 -0.89430973851E+02 -0.27100986245E+02  0.93554736157E+02  0.00000000000E+00 0.  1.
          2    1    6    6  502    0  0.91668712743E+02  0.66311495107E+02 -0.12874374391E+03  0.17139229526E+03  0.00000000000E+00 0. -1.
          3    1    5    5  503    0 -0.35044625673E+03  0.16706241589E+03 -0.77888190263E+03  0.87027550115E+03  0.00000000000E+00 0. -1.
         -4    1    5    5    0  503 -0.14213933667E+02  0.20019925273E+01 -0.37508682757E+01  0.14836202250E+02  0.00000000000E+00 0.  1.
         -1    1    6    6    0  502  0.35591551061E+03  0.48103340811E+03 -0.65325635102E+03  0.88589663650E+03  0.00000000000E+00 0.  1.
<mgrwt>
<rscale>  0 0.21759919E+04</rscale>
<asrwt>0</asrwt>
<pdfrwt beam="1">  1        1 0.86396536E-01 0.21759919E+04</pdfrwt>
<pdfrwt beam="2">  1       -1 0.32428848E+00 0.21759919E+04</pdfrwt>
<totfact> 0.79006780E-01</totfact>
</mgrwt>
</event>
<event>
11    1  0.2502641E-008  0.2494632E+04  0.7818608E-02  0.8404900E-01
          2   -1    0    0  501    0  0.00000000000E+00  0.00000000000E+00  0.27781112507E+04  0.27781112507E+04  0.00000000000E+00 0. -1.
         -2   -1    0    0    0  501 -0.00000000000E+00 -0.00000000000E+00 -0.56001995036E+03  0.56001995036E+03  0.00000000000E+00 0.  1.
         23    2    1    2    0    0 -0.49250447280E+03  0.54307952766E+03  0.20278434137E+04  0.21579921656E+04  0.85353659693E+02 0.  0.
        254    2    1    2    0    0  0.49250447280E+03 -0.54307952766E+03  0.19024788662E+03  0.11801390354E+04  0.90500710246E+03 0.  0.
         24    2    4    4    0    0  0.12392501451E+03  0.20656682495E+03  0.20441074058E+03  0.32591531444E+03  0.80061094983E+02 0.  0.
         11    1    3    3    0    0 -0.41783063646E+03  0.49307924895E+03  0.18274213266E+04  0.19383442139E+04  0.00000000000E+00 0. -1.
        -11    1    3    3    0    0 -0.74673836335E+02  0.50000278714E+02  0.20042208706E+03  0.21964795170E+03  0.00000000000E+00 0.  1.
          2    1    5    5  502    0  0.55355081440E+02  0.16194408827E+03  0.15081026377E+03  0.22810920285E+03  0.00000000000E+00 0. -1.
          3    1    4    4  503    0  0.34236843200E+03 -0.53556258311E+03 -0.40533908386E+02  0.63693517832E+03  0.00000000000E+00 0. -1.
         -4    1    4    4    0  503  0.26211026289E+02 -0.21408376951E+03  0.26371054422E+02  0.21728854267E+03  0.00000000000E+00 0.  1.
         -1    1    5    5    0  502  0.68569933067E+02  0.44622736682E+02  0.53600476816E+02  0.97806111591E+02  0.00000000000E+00 0.  1.
<mgrwt>
<rscale>  0 0.24946324E+04</rscale>
<asrwt>0</asrwt>
<pdfrwt beam="1">  1        2 0.42740173E+00 0.24946324E+04</pdfrwt>
<pdfrwt beam="2">  1       -2 0.86156917E-01 0.24946324E+04</pdfrwt>
<totfact> 0.24849710E+00</totfact>
</mgrwt>
</event>
<event>
11    1  0.2502641E-008  0.2613084E+04  0.7818608E-02  0.8363770E-01
          2   -1    0    0  501    0  0.00000000000E+00  0.00000000000E+00  0.23353975917E+04  0.23353975917E+04  0.00000000000E+00 0. -1.
         -2   -1    0    0    0  501 -0.00000000000E+00 -0.00000000000E+00 -0.73094721129E+03  0.73094721129E+03  0.00000000000E+00 0.  1.
         23    2    1    2    0    0  0.11381932175E+04  0.12237158783E+03  0.58657164120E+03  0.12895076008E+04  0.91131534098E+02 0.  0.
        254    2    1    2    0    0 -0.11381932175E+04 -0.12237158783E+03  0.10178787392E+04  0.17768372021E+04  0.90034144046E+03 0.  0.
         24    2    4    4    0    0 -0.19541156729E+03  0.25706607961E+03  0.25290804257E+03  0.41757682531E+03  0.78353539285E+02 0.  0.
         11    1    3    3    0    0  0.62951867909E+03  0.57351487281E+02  0.37323063015E+03  0.73408723167E+03  0.00000000000E+00 0. -1.
        -11    1    3    3    0    0  0.50867453838E+03  0.65020100552E+02  0.21334101105E+03  0.55542036915E+03  0.00000000000E+00 0.  1.
          2    1    5    5  502    0 -0.58465857199E+02  0.57206884323E+02  0.10726049001E+03  0.13489142593E+03  0.00000000000E+00 0. -1.
          3    1    4    4  503    0 -0.45844358627E+03 -0.22784371031E+03  0.66958186443E+03  0.84286603402E+03  0.00000000000E+00 0. -1.
         -4    1    4    4    0  503 -0.48433806390E+03 -0.15159395714E+03  0.95388832182E+02  0.51639434281E+03  0.00000000000E+00 0.  1.
         -1    1    5    5    0  502 -0.13694571009E+03  0.19985919529E+03  0.14564755256E+03  0.28268539938E+03  0.00000000000E+00 0.  1.
<mgrwt>
<rscale>  0 0.26130843E+04</rscale>
<asrwt>0</asrwt>
<pdfrwt beam="1">  1        2 0.35929193E+00 0.26130843E+04</pdfrwt>
<pdfrwt beam="2">  1       -2 0.11245342E+00 0.26130843E+04</pdfrwt>
<totfact> 0.23812736E+00</totfact>
</mgrwt>
</event>
<event>
12    1  0.2502641E-008  0.1459458E+04  0.7818608E-02  0.8911870E-01
          2   -1    0    0  501    0  0.00000000000E+00  0.00000000000E+00  0.14160902784E+04  0.14160902784E+04  0.00000000000E+00 0. -1.
         -2   -1    0    0    0  501 -0.00000000000E+00 -0.00000000000E+00 -0.37603827597E+03  0.37603827597E+03  0.00000000000E+00 0.  1.
         23    2    1    2    0    0 -0.63006581456E+02 -0.62613346037E+02 -0.21336599103E+03  0.24849950244E+03  0.91305510098E+02 0.  0.
        254    2    1    2    0    0  0.63006581456E+02  0.62613346037E+02  0.12534179935E+04  0.15436290520E+04  0.89657332283E+03 0.  0.
        -24    2    4    4    0    0  0.35725801257E+03 -0.87706750093E+02  0.11109481151E+04  0.11750534141E+04  0.10592001626E+03 0.  0.
         24    2    4    4    0    0 -0.29425143112E+03  0.15032009613E+03  0.14246987838E+03  0.36857563790E+03  0.79814150339E+02 0.  0.
         11    1    3    3    0    0  0.22580382657E+02 -0.13408478237E+02 -0.27395824356E+02  0.37949863790E+02  0.00000000000E+00 0. -1.
        -11    1    3    3    0    0 -0.85586964112E+02 -0.49204867800E+02 -0.18597016668E+03  0.21054963865E+03  0.00000000000E+00 0.  1.
          2    1    6    6  502    0 -0.25840226550E+03  0.12082597973E+03  0.14878395383E+03  0.32172552449E+03  0.00000000000E+00 0. -1.
          3    1    5    5  503    0  0.35872965906E+02  0.25990945446E+01  0.42547337839E+02  0.55712664023E+02  0.00000000000E+00 0. -1.
         -4    1    5    5    0  503  0.32138504667E+03 -0.90305844637E+02  0.10684007773E+04  0.11193407500E+04  0.00000000000E+00 0.  1.
         -1    1    6    6    0  502 -0.35849165620E+02  0.29494116401E+02 -0.63140754491E+01  0.46850113412E+02  0.00000000000E+00 0.  1.
<mgrwt>
<rscale>  0 0.14594576E+04</rscale>
<asrwt>0</asrwt>
<pdfrwt beam="1">  1        2 0.21786004E+00 0.14594576E+04</pdfrwt>
<pdfrwt beam="2">  1       -2 0.57852043E-01 0.14594576E+04</pdfrwt>
<totfact> 0.38395298E+01</totfact>
</mgrwt>
</event>
<event>
11    1  0.2502641E-008  0.2643178E+04  0.7818608E-02  0.8353681E-01
         -2   -1    0    0    0  501 -0.00000000000E+00  0.00000000000E+00  0.15617838295E+04  0.15617838295E+04  0.00000000000E+00 0.  1.
          2   -1    0    0  501    0  0.00000000000E+00 -0.00000000000E+00 -0.11183349421E+04  0.11183349421E+04  0.00000000000E+00 0. -1.
         23    2    1    2    0    0  0.67826122955E+03  0.67999610291E+03  0.87268543940E+03  0.13009090495E+04  0.91386450815E+02 0.  0.
        254    2    1    2    0    0 -0.67826122955E+03 -0.67999610291E+03 -0.42923655199E+03  0.13792097222E+04  0.89193186105E+03 0.  0.
         24    2    4    4    0    0 -0.72147534685E+03 -0.16078436524E+03 -0.42539232622E+03  0.85666046790E+03  0.80809887065E+02 0.  0.
         11    1    3    3    0    0  0.40648056002E+03  0.46113003018E+03  0.52639838138E+03  0.80929760059E+03  0.00000000000E+00 0.  1.
        -11    1    3    3    0    0  0.27178066953E+03  0.21886607273E+03  0.34628705802E+03  0.49161144889E+03  0.00000000000E+00 0. -1.
          4    1    5    5  502    0 -0.21966010087E+03 -0.11558196582E+02 -0.12009904453E+03  0.25061510793E+03  0.00000000000E+00 0. -1.
          3    1    4    4  503    0 -0.65016600145E+01 -0.29696557303E+02 -0.26413067391E+01  0.30514481806E+02  0.00000000000E+00 0. -1.
         -2    1    4    4    0  503  0.49715777309E+02 -0.48951518037E+03 -0.12029190241E+01  0.49203477249E+03  0.00000000000E+00 0.  1.
         -3    1    5    5    0  502 -0.50181524597E+03 -0.14922616866E+03 -0.30529328169E+03  0.60604535998E+03  0.00000000000E+00 0.  1.
<mgrwt>
<rscale>  0 0.26431780E+04</rscale>
<asrwt>0</asrwt>
<pdfrwt beam="1">  1        2 0.17205153E+00 0.26431780E+04</pdfrwt>
<pdfrwt beam="2">  1       -2 0.24027444E+00 0.26431780E+04</pdfrwt>
<totfact> 0.13804241E+00</totfact>
</mgrwt>
</event>
<event>
12    1  0.2502641E-008  0.3277859E+04  0.7818608E-02  0.8168552E-01
          2   -1    0    0  501    0  0.00000000000E+00  0.00000000000E+00  0.13515860064E+04  0.13515860064E+04  0.00000000000E+00 0. -1.
         -2   -1    0    0    0  501 -0.00000000000E+00 -0.00000000000E+00 -0.19873617813E+04  0.19873617813E+04  0.00000000000E+00 0.  1.
         23    2    1    2    0    0 -0.13526449482E+04 -0.47496212809E+03  0.20223628106E+03  0.14506070386E+04  0.90132613873E+02 0.  0.
        254    2    1    2    0    0  0.13526449482E+04  0.47496212809E+03 -0.83801205601E+03  0.18883407491E+04  0.89907129839E+03 0.  0.
        -24    2    4    4    0    0 -0.77883446240E+02 -0.96635989558E+02 -0.13605557747E+02  0.13927371322E+03  0.61706647260E+02 0.  0.
         24    2    4    4    0    0  0.14305283944E+04  0.57159811765E+03 -0.82440649826E+03  0.17490670358E+04  0.80333841851E+02 0.  0.
         13    1    3    3    0    0 -0.27177268973E+03 -0.91923145954E+02  0.44051896341E+01  0.28693146454E+03  0.00000000000E+00 0.  1.
        -13    1    3    3    0    0 -0.10808722584E+04 -0.38303898214E+03  0.19783109143E+03  0.11636755741E+04  0.00000000000E+00 0. -1.
          2    1    6    6  502    0  0.12535787157E+04  0.50981931521E+03 -0.69505943047E+03  0.15213424803E+04  0.00000000000E+00 0. -1.
          3    1    5    5  503    0 -0.85806176363E+02 -0.76299001237E+02 -0.19953743403E+02  0.11654350847E+03  0.00000000000E+00 0. -1.
         -4    1    5    5    0  503  0.79227301230E+01 -0.20336988321E+02  0.63481856563E+01  0.22730204744E+02  0.00000000000E+00 0.  1.
         -1    1    6    6    0  502  0.17694967874E+03  0.61778802443E+02 -0.12934706779E+03  0.22772455551E+03  0.00000000000E+00 0.  1.
<mgrwt>
<rscale>  0 0.32778593E+04</rscale>
<asrwt>0</asrwt>
<pdfrwt beam="1">  1        2 0.20793631E+00 0.32778593E+04</pdfrwt>
<pdfrwt beam="2">  1       -2 0.30574797E+00 0.32778593E+04</pdfrwt>
<totfact> 0.37828807E-01</totfact>
</mgrwt>
</event>
<event>
11    1  0.2502641E-008  0.1282306E+04  0.7818608E-02  0.9043716E-01
         -2   -1    0    0    0  501 -0.00000000000E+00  0.00000000000E+00  0.55253518507E+03  0.55253518507E+03  0.00000000000E+00 0.  1.
          2   -1    0    0  501    0  0.00000000000E+00 -0.00000000000E+00 -0.74398321329E+03  0.74398321329E+03  0.00000000000E+00 0. -1.
         23    2    1    2    0    0  0.33145955859E+02  0.91976234536E+02 -0.34517168634E+03  0.37422630859E+03  0.10650612601E+03 0.  0.
        254    2    1    2    0    0 -0.33145955859E+02 -0.91976234536E+02  0.15372365812E+03  0.92229208978E+03  0.90412026506E+03 0.  0.
         24    2    4    4    0    0 -0.38204353833E+02  0.12721504604E+03  0.49250103403E+03  0.51671814762E+03  0.82444738892E+02 0.  0.
         11    1    3    3    0    0  0.21794338395E+02  0.97774155598E+02 -0.34716166163E+03  0.36132533539E+03  0.00000000000E+00 0. -1.
        -11    1    3    3    0    0  0.11351617464E+02 -0.57979210626E+01  0.19899752910E+01  0.12900973194E+02  0.00000000000E+00 0.  1.
          2    1    5    5  502    0 -0.42621748411E+02  0.11646291604E+03  0.31056559669E+03  0.33441174336E+03  0.00000000000E+00 0. -1.
          1    1    4    4  503    0 -0.31509751474E+01 -0.20408047063E+03 -0.29676322926E+03  0.36017659749E+03  0.00000000000E+00 0. -1.
         -2    1    4    4    0  503  0.82093731208E+01 -0.15110809946E+02 -0.42014146651E+02  0.45397344670E+02  0.00000000000E+00 0.  1.
         -1    1    5    5    0  502  0.44173945788E+01  0.10752129998E+02  0.18193543734E+03  0.18230640426E+03  0.00000000000E+00 0.  1.
<mgrwt>
<rscale>  0 0.12823056E+04</rscale>
<asrwt>0</asrwt>
<pdfrwt beam="1">  1        2 0.11445896E+00 0.12823056E+04</pdfrwt>
<pdfrwt beam="2">  1       -2 0.85005413E-01 0.12823056E+04</pdfrwt>
<totfact> 0.44820363E+01</totfact>
</mgrwt>
</event>
<event>
11    1  0.2502641E-008  0.1320443E+04  0.7818608E-02  0.9013509E-01
          2   -1    0    0  501    0  0.00000000000E+00  0.00000000000E+00  0.69124793450E+03  0.69124793450E+03  0.00000000000E+00 0. -1.
         -2   -1    0    0    0  501 -0.00000000000E+00 -0.00000000000E+00 -0.63058793386E+03  0.63058793386E+03  0.00000000000E+00 0.  1.
         23    2    1    2    0    0 -0.66208175367E+02  0.16510001421E+03  0.30693571419E+03  0.36576295895E+03  0.89058813801E+02 0.  0.
        254    2    1    2    0    0  0.66208175367E+02 -0.16510001421E+03 -0.24627571356E+03  0.95607290941E+03  0.90652200406E+03 0.  0.
         24    2    4    4    0    0  0.29904697969E+03  0.13196245571E+03 -0.38748354831E+03  0.51313749268E+03  0.79519811405E+02 0.  0.
         11    1    3    3    0    0 -0.28332228744E+02  0.15031415491E+03  0.20315107219E+03  0.25429789319E+03  0.00000000000E+00 0.  1.
        -11    1    3    3    0    0 -0.37875946623E+02  0.14785859301E+02  0.10378464201E+03  0.11146506576E+03  0.00000000000E+00 0. -1.
          2    1    5    5  502    0  0.19360403531E+03  0.89645647435E+02 -0.30719112686E+03  0.37401237013E+03  0.00000000000E+00 0. -1.
          3    1    4    4  503    0 -0.14973349253E+03 -0.13039898687E+03  0.16103488337E+03  0.25564868125E+03  0.00000000000E+00 0. -1.
         -4    1    4    4    0  503 -0.83105311784E+02 -0.16666348306E+03 -0.19827048614E+02  0.18728673548E+03  0.00000000000E+00 0.  1.
         -1    1    5    5    0  502  0.10544294437E+03  0.42316808276E+02 -0.80292421457E+02  0.13912512255E+03  0.00000000000E+00 0.  1.
<mgrwt>
<rscale>  0 0.13204433E+04</rscale>
<asrwt>0</asrwt>
<pdfrwt beam="1">  1        2 0.10634584E+00 0.13204433E+04</pdfrwt>
<pdfrwt beam="2">  1       -2 0.97013528E-01 0.13204433E+04</pdfrwt>
<totfact> 0.36165271E+01</totfact>
</mgrwt>
</event>
<event>
12    1  0.2502641E-008  0.1798271E+04  0.7818608E-02  0.8707220E-01
         -1   -1    0    0    0  501 -0.00000000000E+00  0.00000000000E+00  0.17087021938E+04  0.17087021938E+04  0.00000000000E+00 0.  1.
          1   -1    0    0  501    0  0.00000000000E+00 -0.00000000000E+00 -0.47313348562E+03  0.47313348562E+03  0.00000000000E+00 0. -1.
         23    2    1    2    0    0 -0.35969720407E+03  0.42822433187E+03  0.13334126336E+02  0.56709866100E+03  0.93085634567E+02 0.  0.
        254    2    1    2    0    0  0.35969720407E+03 -0.42822433187E+03  0.12222345818E+04  0.16147370184E+04  0.89485200374E+03 0.  0.
        -24    2    4    4    0    0  0.62593729848E+03 -0.42984467799E+03  0.77543241464E+03  0.10871941483E+04  0.64278593832E+02 0.  0.
         24    2    4    4    0    0 -0.26624009441E+03  0.16203461221E+01  0.44680216720E+03  0.52754287011E+03  0.88220688027E+02 0.  0.
         11    1    3    3    0    0 -0.33913880371E+03  0.42837349912E+03  0.12104358863E+02  0.54650297202E+03  0.00000000000E+00 0. -1.
        -11    1    3    3    0    0 -0.20558400366E+02 -0.14916724980E+00  0.12297674735E+01  0.20595688978E+02  0.00000000000E+00 0.  1.
          4    1    6    6  502    0 -0.20769782136E+02  0.25982027803E+02  0.64371432682E+02  0.72457787464E+02  0.00000000000E+00 0. -1.
          1    1    5    5  503    0  0.36036924694E+03 -0.28358184974E+03  0.45221653292E+03  0.64403761714E+03  0.00000000000E+00 0. -1.
         -2    1    5    5    0  503  0.26556805154E+03 -0.14626282825E+03  0.32321588172E+03  0.44315653117E+03  0.00000000000E+00 0.  1.
         -3    1    6    6    0  502 -0.24547031227E+03 -0.24361681681E+02  0.38243073452E+03  0.45508508265E+03  0.00000000000E+00 0.  1.
<mgrwt>
<rscale>  0 0.17982705E+04</rscale>
<asrwt>0</asrwt>
<pdfrwt beam="1">  1        1 0.72789768E-01 0.17982705E+04</pdfrwt>
<pdfrwt beam="2">  1       -1 0.26287726E+00 0.17982705E+04</pdfrwt>
<totfact> 0.25947297E+00</totfact>
</mgrwt>
</event>
<event>
11    1  0.2502641E-008  0.1577218E+04  0.7818608E-02  0.8834668E-01
         -2   -1    0    0    0  501 -0.00000000000E+00  0.00000000000E+00  0.79527748102E+03  0.79527748102E+03  0.00000000000E+00 0.  1.
          2   -1    0    0  501    0  0.00000000000E+00 -0.00000000000E+00 -0.78199600534E+03  0.78199600534E+03  0.00000000000E+00 0. -1.
         23    2    1    2    0    0  0.22494927024E+03  0.35583457900E+03 -0.30704205395E+03  0.52887869568E+03  0.90650041678E+02 0.  0.
        254    2    1    2    0    0 -0.22494927024E+03 -0.35583457900E+03  0.32032352963E+03  0.10483947907E+04  0.90515415908E+03 0.  0.
         24    2    4    4    0    0  0.97729483928E+02 -0.11517312160E+03  0.52852110848E+03  0.55513731905E+03  0.77633632727E+02 0.  0.
         13    1    3    3    0    0  0.20815082451E+03  0.28234347036E+03 -0.22149533386E+03  0.41485513607E+03  0.00000000000E+00 0. -1.
        -13    1    3    3    0    0  0.16798445726E+02  0.73491108643E+02 -0.85546720097E+02  0.11402355962E+03  0.00000000000E+00 0.  1.
          4    1    5    5  502    0  0.87684175050E+02 -0.44878007391E+02  0.29012093433E+03  0.30638653142E+03  0.00000000000E+00 0. -1.
          3    1    4    4  503    0 -0.31837251733E+03 -0.18120914345E+03 -0.11747621280E+03  0.38470569795E+03  0.00000000000E+00 0. -1.
         -4    1    4    4    0  503 -0.43062368334E+01 -0.59452313955E+02 -0.90721366047E+02  0.10855177367E+03  0.00000000000E+00 0.  1.
         -3    1    5    5    0  502  0.10045308878E+02 -0.70295114207E+02  0.23840017415E+03  0.24875078763E+03  0.00000000000E+00 0.  1.
<mgrwt>
<rscale>  0 0.15772176E+04</rscale>
<asrwt>0</asrwt>
<pdfrwt beam="1">  1        2 0.12030708E+00 0.15772176E+04</pdfrwt>
<pdfrwt beam="2">  1       -2 0.12235038E+00 0.15772176E+04</pdfrwt>
<totfact> 0.17252175E+01</totfact>
</mgrwt>
</event>
<event>
12    1  0.2502641E-008  0.2286115E+04  0.7818608E-02  0.8483416E-01
          1   -1    0    0  501    0  0.00000000000E+00  0.00000000000E+00  0.16099013055E+04  0.16099013055E+04  0.00000000000E+00 0. -1.
         -1   -1    0    0    0  501 -0.00000000000E+00 -0.00000000000E+00 -0.81159026514E+03  0.81159026514E+03  0.00000000000E+00 0.  1.
         23    2    1    2    0    0 -0.42073735010E+03  0.81778438249E+03  0.63510551702E+03  0.11214451390E+04  0.92135596161E+02 0.  0.
        254    2    1    2    0    0  0.42073735010E+03 -0.81778438249E+03  0.16320552338E+03  0.13000464317E+04  0.90426404751E+03 0.  0.
        -24    2    4    4    0    0  0.23783270753E+03 -0.98590120736E+03  0.54696737277E+02  0.10173877047E+04  0.59333137115E+02 0.  0.
         24    2    4    4    0    0  0.18290464257E+03  0.16811682487E+03  0.10850878610E+03  0.28265872696E+03  0.80027646394E+02 0.  0.
         13    1    3    3    0    0 -0.93466089091E+02  0.26020363800E+03  0.21741102248E+03  0.35172346486E+03  0.00000000000E+00 0. -1.
        -13    1    3    3    0    0 -0.32727126101E+03  0.55758074449E+03  0.41769449455E+03  0.76972167416E+03  0.00000000000E+00 0.  1.
          4    1    6    6  502    0  0.67503218658E+02  0.86059318103E+02  0.86309792855E+02  0.13932792650E+03  0.00000000000E+00 0. -1.
          1    1    5    5  503    0  0.60283688990E+02 -0.20507837848E+03 -0.10272003416E+02  0.21400181899E+03  0.00000000000E+00 0. -1.
         -2    1    5    5    0  503  0.17754901854E+03 -0.78082282888E+03  0.64968740692E+02  0.80338588571E+03  0.00000000000E+00 0.  1.
         -3    1    6    6    0  502  0.11540142391E+03  0.82057506772E+02  0.22198993246E+02  0.14333080046E+03  0.00000000000E+00 0.  1.
<mgrwt>
<rscale>  0 0.22861148E+04</rscale>
<asrwt>0</asrwt>
<pdfrwt beam="1">  1        1 0.24767712E+00 0.22861148E+04</pdfrwt>
<pdfrwt beam="2">  1       -1 0.12486004E+00 0.22861148E+04</pdfrwt>
<totfact> 0.27897977E+00</totfact>
</mgrwt>
</event>
<event>
12    1  0.2593065E-008  0.2056372E+04  0.7818608E-02  0.8580709E-01
         -2   -1    0    0    0  501 -0.00000000000E+00  0.00000000000E+00  0.97265538333E+03  0.97265538333E+03  0.00000000000E+00 0.  1.
          2   -1    0    0  501    0  0.00000000000E+00 -0.00000000000E+00 -0.10868872955E+04  0.10868872955E+04  0.00000000000E+00 0. -1.
         23    2    1    2    0    0 -0.65616912830E+03 -0.44600970483E+02 -0.54839936737E+03  0.86121439743E+03  0.91658064108E+02 0.  0.
        254    2    1    2    0    0  0.65616912830E+03  0.44600970483E+02  0.43416745518E+03  0.11983282814E+04  0.90274144661E+03 0.  0.
        -24    2    4    4    0    0  0.63643983253E+03 -0.21213051456E+03  0.58006082251E+03  0.89209456158E+03  0.96473485266E+02 0.  0.
         24    2    4    4    0    0  0.19729295770E+02  0.25673148504E+03 -0.14589336733E+03  0.30623371984E+03  0.78701435909E+02 0.  0.
         11    1    3    3    0    0 -0.52357646901E+03  0.17265028001E+01 -0.43077357452E+03  0.67801266376E+03  0.00000000000E+00 0. -1.
        -11    1    3    3    0    0 -0.13259265929E+03 -0.46327473283E+02 -0.11762579285E+03  0.18320173367E+03  0.00000000000E+00 0.  1.
          4    1    6    6  502    0  0.39751856955E+02  0.23171187741E+03 -0.14007933737E+03  0.27366553496E+03  0.00000000000E+00 0. -1.
          1    1    5    5  503    0  0.62214912611E+03 -0.21339134166E+03  0.54490226115E+03  0.85412169743E+03  0.00000000000E+00 0. -1.
         -2    1    5    5    0  503  0.14290706417E+02  0.12608271024E+01  0.35158561364E+02  0.37972864154E+02  0.00000000000E+00 0.  1.
         -3    1    6    6    0  502 -0.20022561185E+02  0.25019607634E+02 -0.58140299590E+01  0.32568184888E+02  0.00000000000E+00 0.  1.
<mgrwt>
<rscale>  0 0.20563723E+04</rscale>
<asrwt>0</asrwt>
<pdfrwt beam="1">  1        2 0.16721343E+00 0.20563723E+04</pdfrwt>
<pdfrwt beam="2">  1       -2 0.14963929E+00 0.20563723E+04</pdfrwt>
<totfact> 0.61901481E+00</totfact>
</mgrwt>
</event>
<event>
11    1  0.2502641E-008  0.4321996E+04  0.7818608E-02  0.7942563E-01
         -2   -1    0    0    0  501 -0.00000000000E+00  0.00000000000E+00  0.16020898101E+04  0.16020898101E+04  0.00000000000E+00 0.  1.
          2   -1    0    0  501    0  0.00000000000E+00 -0.00000000000E+00 -0.29148883035E+04  0.29148883035E+04  0.00000000000E+00 0. -1.
         23    2    1    2    0    0  0.25505866770E+03  0.13520092360E+04  0.98277454696E+03  0.16934936947E+04  0.95347709601E+02 0.  0.
        254    2    1    2    0    0 -0.25505866770E+03 -0.13520092360E+04 -0.22955730403E+04  0.28234844190E+04  0.89968037799E+03 0.  0.
         24    2    4    4    0    0  0.16085199006E+03 -0.45438301604E+03 -0.25263785223E+03  0.54993948757E+03  0.79185021530E+02 0.  0.
         11    1    3    3    0    0  0.17654811232E+02  0.23903256059E+03  0.14211053172E+03  0.27864612074E+03  0.00000000000E+00 0. -1.
        -11    1    3    3    0    0  0.23740385647E+03  0.11129766754E+04  0.84066401525E+03  0.14148475740E+04  0.00000000000E+00 0.  1.
          4    1    5    5  502    0  0.14770997683E+03 -0.44929135265E+03 -0.25184448213E+03  0.53582329177E+03  0.00000000000E+00 0. -1.
          3    1    4    4  503    0 -0.29330674052E+03 -0.74361566570E+03 -0.16868398921E+04  0.18666606343E+04  0.00000000000E+00 0. -1.
         -4    1    4    4    0  503 -0.12260391724E+03 -0.15401055422E+03 -0.35609529605E+03  0.40688429707E+03  0.00000000000E+00 0.  1.
         -3    1    5    5    0  502  0.13142013226E+02 -0.50916633958E+01 -0.79337009268E+00  0.14116195800E+02  0.00000000000E+00 0.  1.
<mgrwt>
<rscale>  0 0.43219962E+04</rscale>
<asrwt>0</asrwt>
<pdfrwt beam="1">  1        2 0.44844435E+00 0.43219962E+04</pdfrwt>
<pdfrwt beam="2">  1       -2 0.24647536E+00 0.43219962E+04</pdfrwt>
<totfact> 0.10210437E-01</totfact>
</mgrwt>
</event>
<event>
11    1  0.2502641E-008  0.1176937E+04  0.7818608E-02  0.9133287E-01
          2   -1    0    0  501    0  0.00000000000E+00  0.00000000000E+00  0.38242004690E+03  0.38242004690E+03  0.00000000000E+00 0. -1.
         -2   -1    0    0    0  501 -0.00000000000E+00 -0.00000000000E+00 -0.90553551545E+03  0.90553551545E+03  0.00000000000E+00 0.  1.
         23    2    1    2    0    0  0.11265125789E+03  0.10876232963E+03  0.66453195038E+02  0.19603494778E+03  0.97437792295E+02 0.  0.
        254    2    1    2    0    0 -0.11265125789E+03 -0.10876232963E+03 -0.58956866359E+03  0.10919206146E+04  0.90563782452E+03 0.  0.
         24    2    4    4    0    0  0.11435993560E+03 -0.37747205635E+03 -0.99355110645E+01  0.40260310766E+03  0.80169818003E+02 0.  0.
         13    1    3    3    0    0  0.19347792099E+02 -0.17536812057E+02  0.16556744704E+01  0.26165207704E+02  0.00000000000E+00 0.  1.
        -13    1    3    3    0    0  0.93303465794E+02  0.12629914169E+03  0.64797520567E+02  0.16986974007E+03  0.00000000000E+00 0. -1.
          2    1    5    5  502    0  0.11351509767E+03 -0.29274726646E+03 -0.30352932306E+02  0.31544879128E+03  0.00000000000E+00 0. -1.
          1    1    4    4  503    0 -0.16049513083E+03  0.25160961419E+03 -0.41712855079E+03  0.51289600589E+03  0.00000000000E+00 0. -1.
         -2    1    4    4    0  503 -0.66516062664E+02  0.17100112532E+02 -0.16250460173E+03  0.17642150102E+03  0.00000000000E+00 0.  1.
         -1    1    5    5    0  502  0.84483792621E+00 -0.84724789888E+02  0.20417421242E+02  0.87154316375E+02  0.00000000000E+00 0.  1.
<mgrwt>
<rscale>  0 0.11769366E+04</rscale>
<asrwt>0</asrwt>
<pdfrwt beam="1">  1        2 0.58833854E-01 0.11769366E+04</pdfrwt>
<pdfrwt beam="2">  1       -2 0.13931316E+00 0.11769366E+04</pdfrwt>
<totfact> 0.30046170E+01</totfact>
</mgrwt>
</event>
<event>
12    1  0.2502641E-008  0.2756407E+04  0.7818608E-02  0.8316932E-01
         -1   -1    0    0    0  501 -0.00000000000E+00  0.00000000000E+00  0.58217136984E+03  0.58217136984E+03  0.00000000000E+00 0.  1.
          1   -1    0    0  501    0  0.00000000000E+00 -0.00000000000E+00 -0.32626891413E+04  0.32626891413E+04  0.00000000000E+00 0. -1.
         23    2    1    2    0    0 -0.65055039670E+03  0.77550262171E+03 -0.21523106563E+04  0.23802505720E+04  0.92366060719E+02 0.  0.
        254    2    1    2    0    0  0.65055039670E+03 -0.77550262171E+03 -0.52820711513E+03  0.14646099392E+04  0.91731095189E+03 0.  0.
        -24    2    4    4    0    0  0.74904125856E+03 -0.51910205104E+03 -0.58419140805E+02  0.91479610724E+03  0.53938626189E+02 0.  0.
         24    2    4    4    0    0 -0.98490861855E+02 -0.25640057067E+03 -0.46978797433E+03  0.54981383191E+03  0.78439826823E+02 0.  0.
         13    1    3    3    0    0 -0.91015182684E+02  0.13742939205E+03 -0.28723024353E+03  0.33116735056E+03  0.00000000000E+00 0.  1.
        -13    1    3    3    0    0 -0.55953521402E+03  0.63807322967E+03 -0.18650804128E+04  0.20490832214E+04  0.00000000000E+00 0. -1.
          4    1    6    6  502    0 -0.38891994354E+02 -0.79587793458E+02 -0.87962053481E+02  0.12483640072E+03  0.00000000000E+00 0. -1.
          1    1    5    5  503    0  0.25393336980E+03 -0.14634926018E+03 -0.12363082951E+02  0.29334810051E+03  0.00000000000E+00 0. -1.
         -2    1    5    5    0  503  0.49510788875E+03 -0.37275279086E+03 -0.46056057854E+02  0.62144800673E+03  0.00000000000E+00 0.  1.
         -3    1    6    6    0  502 -0.59598867501E+02 -0.17681277721E+03 -0.38182592085E+03  0.42497743119E+03  0.00000000000E+00 0.  1.
<mgrwt>
<rscale>  0 0.27564065E+04</rscale>
<asrwt>0</asrwt>
<pdfrwt beam="1">  1        1 0.50195218E+00 0.27564065E+04</pdfrwt>
<pdfrwt beam="2">  1       -1 0.89564826E-01 0.27564065E+04</pdfrwt>
<totfact> 0.40429322E-01</totfact>
</mgrwt>
</event>
<event>
11    1  0.2502641E-008  0.1734704E+04  0.7818608E-02  0.8741815E-01
         -2   -1    0    0    0  501 -0.00000000000E+00  0.00000000000E+00  0.27688621448E+03  0.27688621448E+03  0.00000000000E+00 0. -1.
          2   -1    0    0  501    0  0.00000000000E+00 -0.00000000000E+00 -0.27169993175E+04  0.27169993175E+04  0.00000000000E+00 0.  1.
         23    2    1    2    0    0  0.10238988792E+03 -0.51902521852E+03 -0.30437881442E+03  0.61586672807E+03  0.82307335471E+02 0.  0.
        254    2    1    2    0    0 -0.10238988792E+03  0.51902521852E+03 -0.21357342886E+04  0.23780188039E+04  0.90207627925E+03 0.  0.
         24    2    4    4    0    0 -0.12861954074E+03  0.21671272276E+03 -0.10327984703E+03  0.28270171751E+03  0.75803323241E+02 0.  0.
         13    1    3    3    0    0  0.19400609214E+02 -0.12520015386E+03 -0.34579094971E+02  0.13132850404E+03  0.00000000000E+00 0. -1.
        -13    1    3    3    0    0  0.82989278711E+02 -0.39382506465E+03 -0.26979971945E+03  0.48453822403E+03  0.00000000000E+00 0.  1.
          2    1    5    5  502    0 -0.90292523835E+02  0.20110567602E+03 -0.76189622011E+02  0.23324041522E+03  0.00000000000E+00 0. -1.
          1    1    4    4  503    0  0.31997290489E+02  0.40310273563E+03 -0.15105499509E+04  0.15637380843E+04  0.00000000000E+00 0. -1.
         -2    1    4    4    0  503 -0.57676376718E+01 -0.10079023988E+03 -0.52190449062E+03  0.53157900205E+03  0.00000000000E+00 0.  1.
         -1    1    5    5    0  502 -0.38327016907E+02  0.15607046736E+02 -0.27090225018E+02  0.49461302291E+02  0.00000000000E+00 0.  1.
<mgrwt>
<rscale>  0 0.17347042E+04</rscale>
<asrwt>0</asrwt>
<pdfrwt beam="1">  1        2 0.41799987E+00 0.17347042E+04</pdfrwt>
<pdfrwt beam="2">  1       -2 0.42597882E-01 0.17347042E+04</pdfrwt>
<totfact> 0.12893992E+01</totfact>
</mgrwt>
</event>
<event>
12    1  0.2502641E-008  0.1814272E+04  0.7818608E-02  0.8698746E-01
          2   -1    0    0  501    0  0.00000000000E+00  0.00000000000E+00  0.15690990460E+04  0.15690990460E+04  0.00000000000E+00 0. -1.
         -2   -1    0    0    0  501 -0.00000000000E+00 -0.00000000000E+00 -0.52443827051E+03  0.52443827051E+03  0.00000000000E+00 0.  1.
         23    2    1    2    0    0 -0.64319262878E+03 -0.90158529140E+02  0.14907649097E+03  0.67267322103E+03  0.91870256608E+02 0.  0.
        254    2    1    2    0    0  0.64319262878E+03  0.90158529140E+02  0.89558428455E+03  0.14208640955E+04  0.89160431195E+03 0.  0.
        -24    2    4    4    0    0  0.71219909498E+03 -0.46468397033E+02  0.25911314234E+03  0.76148349059E+03  0.57711550762E+02 0.  0.
         24    2    4    4    0    0 -0.69006466205E+02  0.13662692617E+03  0.63647114221E+03  0.65938060492E+03  0.79110416157E+02 0.  0.
         11    1    3    3    0    0 -0.22136003672E+03 -0.18500093709E+02  0.84929954766E+01  0.22229406267E+03  0.00000000000E+00 0.  1.
        -11    1    3    3    0    0 -0.42183259205E+03 -0.71658435432E+02  0.14058349549E+03  0.45037915837E+03  0.00000000000E+00 0. -1.
          2    1    6    6  502    0 -0.38491963071E+01  0.90738320929E+02  0.38581076492E+03  0.39635615994E+03  0.00000000000E+00 0. -1.
          1    1    5    5  503    0  0.41413128122E+03  0.10054427267E+01  0.15569109418E+03  0.44243128936E+03  0.00000000000E+00 0. -1.
         -2    1    5    5    0  503  0.29806781376E+03 -0.47473839760E+02  0.10342204816E+03  0.31905220123E+03  0.00000000000E+00 0.  1.
         -1    1    6    6    0  502 -0.65157269898E+02  0.45888605245E+02  0.25066037729E+03  0.26302444498E+03  0.00000000000E+00 0.  1.
<mgrwt>
<rscale>  0 0.18142719E+04</rscale>
<asrwt>0</asrwt>
<pdfrwt beam="1">  1        2 0.24139985E+00 0.18142719E+04</pdfrwt>
<pdfrwt beam="2">  1       -2 0.80682811E-01 0.18142719E+04</pdfrwt>
<totfact> 0.14840705E+01</totfact>
</mgrwt>
</event>
<event>
12    1  0.2502641E-008  0.1339438E+04  0.7818608E-02  0.8998862E-01
         -1   -1    0    0    0  501 -0.00000000000E+00  0.00000000000E+00  0.63837908185E+03  0.63837908185E+03  0.00000000000E+00 0.  1.
          1   -1    0    0  501    0  0.00000000000E+00 -0.00000000000E+00 -0.70259785446E+03  0.70259785446E+03  0.00000000000E+00 0. -1.
         23    2    1    2    0    0  0.15048624749E+03  0.31767318513E+03 -0.86936269895E+02  0.37404925275E+03  0.93768679332E+02 0.  0.
        254    2    1    2    0    0 -0.15048624749E+03 -0.31767318513E+03  0.22717497291E+02  0.96692768356E+03  0.90048359081E+03 0.  0.
        -24    2    4    4    0    0  0.46779834118E+02 -0.43119794977E+03 -0.32325686156E+03  0.54534184395E+03  0.69157092553E+02 0.  0.
         24    2    4    4    0    0 -0.19726608160E+03  0.11352476464E+03  0.34597435885E+03  0.42158583961E+03  0.78959382220E+02 0.  0.
         11    1    3    3    0    0  0.87532720033E+02  0.22299437523E+03 -0.10002076629E+03  0.25960089011E+03  0.00000000000E+00 0. -1.
        -11    1    3    3    0    0  0.62953527453E+02  0.94678809906E+02  0.13084496392E+02  0.11444836263E+03  0.00000000000E+00 0.  1.
          2    1    6    6  502    0 -0.45308529024E+02  0.68479440401E+02  0.12822281868E+03  0.15226092010E+03  0.00000000000E+00 0. -1.
          3    1    5    5  503    0  0.54491415678E+01 -0.11243140582E+03 -0.48843691034E+02  0.12270379095E+03  0.00000000000E+00 0. -1.
         -4    1    5    5    0  503  0.41330692551E+02 -0.31876654395E+03 -0.27441317053E+03  0.42263805300E+03  0.00000000000E+00 0.  1.
         -3    1    6    6    0  502 -0.15195755258E+03  0.45045324234E+02  0.21775154017E+03  0.26932491951E+03  0.00000000000E+00 0.  1.
<mgrwt>
<rscale>  0 0.13394383E+04</rscale>
<asrwt>0</asrwt>
<pdfrwt beam="1">  1        1 0.10809198E+00 0.13394383E+04</pdfrwt>
<pdfrwt beam="2">  1       -1 0.98212167E-01 0.13394383E+04</pdfrwt>
<totfact> 0.26370075E+01</totfact>
</mgrwt>
</event>
<event>
12    1  0.2502641E-008  0.2100528E+04  0.7818608E-02  0.8561011E-01
          2   -1    0    0  501    0  0.00000000000E+00  0.00000000000E+00  0.16134743511E+04  0.16134743511E+04  0.00000000000E+00 0. -1.
         -2   -1    0    0    0  501 -0.00000000000E+00 -0.00000000000E+00 -0.68365172740E+03  0.68365172740E+03  0.00000000000E+00 0.  1.
         23    2    1    2    0    0  0.11928441144E+03  0.84754381840E+03  0.22160241896E+03  0.88905034737E+03  0.93507182285E+02 0.  0.
        254    2    1    2    0    0 -0.11928441144E+03 -0.84754381840E+03  0.70822020471E+03  0.14080757311E+04  0.86518328187E+03 0.  0.
        -24    2    4    4    0    0  0.28738542605E+02 -0.84983555148E+03  0.20849139156E+03  0.88075552784E+03  0.95996203492E+02 0.  0.
         24    2    4    4    0    0 -0.14802295404E+03  0.22917330771E+01  0.49972881315E+03  0.52732020325E+03  0.80135280004E+02 0.  0.
         13    1    3    3    0    0  0.48798795801E+02  0.19846351260E+03  0.18103264739E+02  0.20517508742E+03  0.00000000000E+00 0. -1.
        -13    1    3    3    0    0  0.70485615638E+02  0.64908030580E+03  0.20349915423E+03  0.68387525994E+03  0.00000000000E+00 0.  1.
          4    1    6    6  502    0 -0.18963173491E+02 -0.17960033166E+01  0.11379384758E+02  0.22188239548E+02  0.00000000000E+00 0. -1.
          1    1    5    5  503    0 -0.31578045948E+02 -0.30291921804E+03  0.94010411645E+02  0.31873999301E+03  0.00000000000E+00 0. -1.
         -2    1    5    5    0  503  0.60316588553E+02 -0.54691633344E+03  0.11448097991E+03  0.56201553484E+03  0.00000000000E+00 0.  1.
         -3    1    6    6    0  502 -0.12905978055E+03  0.40877363937E+01  0.48834942839E+03  0.50513196370E+03  0.00000000000E+00 0.  1.
<mgrwt>
<rscale>  0 0.21005281E+04</rscale>
<asrwt>0</asrwt>
<pdfrwt beam="1">  1        2 0.24822682E+00 0.21005281E+04</pdfrwt>
<pdfrwt beam="2">  1       -2 0.10517719E+00 0.21005281E+04</pdfrwt>
<totfact> 0.73947775E+00</totfact>
</mgrwt>
</event>
<event>
12    1  0.2502641E-008  0.1632432E+04  0.7818608E-02  0.8800868E-01
         -1   -1    0    0    0  501 -0.00000000000E+00  0.00000000000E+00  0.12235560116E+04  0.12235560116E+04  0.00000000000E+00 0.  1.
          1   -1    0    0  501    0  0.00000000000E+00 -0.00000000000E+00 -0.54448574418E+03  0.54448574418E+03  0.00000000000E+00 0. -1.
         23    2    1    2    0    0 -0.31404781729E+03 -0.23957660501E+03 -0.18754810366E+03  0.44674272722E+03  0.91552126807E+02 0.  0.
        254    2    1    2    0    0  0.31404781729E+03  0.23957660501E+03  0.86661837112E+03  0.13212990286E+04  0.91584973692E+03 0.  0.
        -24    2    4    4    0    0  0.31025348130E+03  0.43863857962E+03  0.94565839713E+03  0.10918571752E+04  0.96027396475E+02 0.  0.
         24    2    4    4    0    0  0.37943359881E+01 -0.19906197462E+03 -0.79040026014E+02  0.22944185336E+03  0.82195934430E+02 0.  0.
         13    1    3    3    0    0 -0.14321572673E+03 -0.16640922837E+03 -0.10587179493E+03  0.24374497458E+03  0.00000000000E+00 0.  1.
        -13    1    3    3    0    0 -0.17083209056E+03 -0.73167376633E+02 -0.81676308731E+02  0.20299775264E+03  0.00000000000E+00 0. -1.
          2    1    6    6  502    0  0.41643350530E+02 -0.86231382581E+02 -0.26563940438E+02  0.99376370013E+02  0.00000000000E+00 0. -1.
          3    1    5    5  503    0  0.20941511788E+03  0.21531914783E+03  0.54136108176E+03  0.61910326106E+03  0.00000000000E+00 0. -1.
         -4    1    5    5    0  503  0.10083836343E+03  0.22331943180E+03  0.40429731537E+03  0.47275391418E+03  0.00000000000E+00 0.  1.
         -1    1    6    6    0  502 -0.37849014542E+02 -0.11283059203E+03 -0.52476085576E+02  0.13006548335E+03  0.00000000000E+00 0.  1.
<mgrwt>
<rscale>  0 0.16324323E+04</rscale>
<asrwt>0</asrwt>
<pdfrwt beam="1">  1        1 0.83767038E-01 0.16324323E+04</pdfrwt>
<pdfrwt beam="2">  1       -1 0.18823939E+00 0.16324323E+04</pdfrwt>
<totfact> 0.68449491E+00</totfact>
</mgrwt>
</event>
<event>
12    1  0.2502641E-008  0.2270052E+04  0.7818608E-02  0.8489824E-01
          1   -1    0    0  501    0  0.00000000000E+00  0.00000000000E+00  0.13593403084E+04  0.13593403084E+04  0.00000000000E+00 0.  1.
         -1   -1    0    0    0  501 -0.00000000000E+00 -0.00000000000E+00 -0.94772739965E+03  0.94772739965E+03  0.00000000000E+00 0. -1.
         23    2    1    2    0    0 -0.78880208225E+03 -0.12411478784E+03  0.65531668605E+03  0.10370500614E+04  0.91758733746E+02 0.  0.
        254    2    1    2    0    0  0.78880208225E+03  0.12411478784E+03 -0.24370377734E+03  0.12700176467E+04  0.95704758826E+03 0.  0.
        -24    2    4    4    0    0  0.96922041360E+03  0.14984185822E+03 -0.35218711217E+03  0.10433836645E+04  0.52658492602E+02 0.  0.
         24    2    4    4    0    0 -0.18041833135E+03 -0.25727070380E+02  0.10848333484E+03  0.22663398211E+03  0.79885364551E+02 0.  0.
         13    1    3    3    0    0 -0.20760897883E+03  0.49736057616E+01  0.18920366169E+03  0.28093460172E+03  0.00000000000E+00 0. -1.
        -13    1    3    3    0    0 -0.58119310342E+03 -0.12908839360E+03  0.46611302436E+03  0.75611545963E+03  0.00000000000E+00 0.  1.
          2    1    6    6  502    0 -0.14749197105E+03  0.11633095993E+02  0.69868769396E+02  0.16361801668E+03  0.00000000000E+00 0. -1.
          3    1    5    5  503    0  0.34983263141E+03  0.28916784358E+02 -0.13040150650E+03  0.37446442196E+03  0.00000000000E+00 0. -1.
         -4    1    5    5    0  503  0.61938778219E+03  0.12092507386E+03 -0.22178560567E+03  0.66891924259E+03  0.00000000000E+00 0.  1.
         -1    1    6    6    0  502 -0.32926360309E+02 -0.37360166373E+02  0.38614565439E+02  0.63015965427E+02  0.00000000000E+00 0.  1.
<mgrwt>
<rscale>  0 0.22700520E+04</rscale>
<asrwt>0</asrwt>
<pdfrwt beam="1">  1        1 0.20912928E+00 0.22700520E+04</pdfrwt>
<pdfrwt beam="2">  1       -1 0.14580421E+00 0.22700520E+04</pdfrwt>
<totfact> 0.28004506E+00</totfact>
</mgrwt>
</event>
<event>
12    1  0.2502641E-008  0.1273479E+04  0.7818608E-02  0.9050865E-01
          2   -1    0    0  501    0  0.00000000000E+00  0.00000000000E+00  0.88689506050E+03  0.88689506050E+03  0.00000000000E+00 0.  1.
         -2   -1    0    0    0  501 -0.00000000000E+00 -0.00000000000E+00 -0.45714252382E+03  0.45714252382E+03  0.00000000000E+00 0. -1.
         23    2    1    2    0    0 -0.14638907206E+03 -0.20031564701E+03  0.30773064091E+03  0.40600443080E+03  0.92657064589E+02 0.  0.
        254    2    1    2    0    0  0.14638907206E+03  0.20031564701E+03  0.12202189577E+03  0.93803315352E+03  0.89635971306E+03 0.  0.
        -24    2    4    4    0    0 -0.24708943422E+03  0.39202055557E+03  0.15224909624E+03  0.49186970906E+03  0.63424907518E+02 0.  0.
         24    2    4    4    0    0  0.39347850628E+03 -0.19170490857E+03 -0.30227200469E+02  0.44616344446E+03  0.81068049518E+02 0.  0.
         13    1    3    3    0    0 -0.15414668589E+03 -0.16186966860E+03  0.27840304523E+03  0.35703115548E+03  0.00000000000E+00 0.  1.
        -13    1    3    3    0    0  0.77576138300E+01 -0.38445978401E+02  0.29327595677E+02  0.48973275322E+02  0.00000000000E+00 0. -1.
          4    1    6    6  502    0  0.75132204527E+02 -0.54828884881E+02 -0.35615520670E+02  0.99596787533E+02  0.00000000000E+00 0. -1.
          1    1    5    5  503    0  0.86709258148E-01  0.16502732894E+02  0.13670909780E+02  0.21429920338E+02  0.00000000000E+00 0. -1.
         -4    1    5    5    0  503 -0.24717614347E+03  0.37551782268E+03  0.13857818646E+03  0.47043978873E+03  0.00000000000E+00 0.  1.
         -3    1    6    6    0  502  0.31834630175E+03 -0.13687602369E+03  0.53883202010E+01  0.34656665693E+03  0.00000000000E+00 0.  1.
<mgrwt>
<rscale>  0 0.12734794E+04</rscale>
<asrwt>0</asrwt>
<pdfrwt beam="1">  1        2 0.13644539E+00 0.12734794E+04</pdfrwt>
<pdfrwt beam="2">  1       -2 0.70329619E-01 0.12734794E+04</pdfrwt>
<totfact> 0.54092845E+01</totfact>
</mgrwt>
</event>
<event>
11    1  0.2502641E-008  0.1573326E+04  0.7818608E-02  0.8837105E-01
          2   -1    0    0  501    0  0.00000000000E+00  0.00000000000E+00  0.20058594826E+04  0.20058594826E+04  0.00000000000E+00 0. -1.
         -2   -1    0    0    0  501 -0.00000000000E+00 -0.00000000000E+00 -0.30851534564E+03  0.30851534564E+03  0.00000000000E+00 0.  1.
         23    2    1    2    0    0  0.42188801873E+03  0.28406795400E+03  0.40158615513E+03  0.65500867167E+03  0.95293321589E+02 0.  0.
        254    2    1    2    0    0 -0.42188801873E+03 -0.28406795400E+03  0.12957579818E+04  0.16593661565E+04  0.90322931265E+03 0.  0.
         24    2    4    4    0    0 -0.40075871422E+03 -0.48081149558E+03  0.12802801600E+04  0.14274275974E+04  0.81516970416E+02 0.  0.
         11    1    3    3    0    0  0.40047906541E+03  0.24894930539E+03  0.39092213470E+03  0.61251886002E+03  0.00000000000E+00 0.  1.
        -11    1    3    3    0    0  0.21408953324E+02  0.35118648613E+02  0.10664020432E+02  0.42489811657E+02  0.00000000000E+00 0. -1.
          2    1    5    5  502    0 -0.84550232446E+02 -0.13456549957E+03  0.39175266093E+03  0.42276088139E+03  0.00000000000E+00 0. -1.
          1    1    4    4  503    0  0.17801709434E+02  0.18239877444E+03  0.34184920999E+02  0.18642645360E+03  0.00000000000E+00 0. -1.
         -2    1    4    4    0  503 -0.38931013941E+02  0.14344767135E+02 -0.18707099187E+02  0.45512105540E+02  0.00000000000E+00 0.  1.
         -1    1    5    5    0  502 -0.31620848178E+03 -0.34624599601E+03  0.88852749904E+03  0.10046667160E+04  0.00000000000E+00 0.  1.
<mgrwt>
<rscale>  0 0.15733257E+04</rscale>
<asrwt>0</asrwt>
<pdfrwt beam="1">  1        2 0.30859376E+00 0.15733257E+04</pdfrwt>
<pdfrwt beam="2">  1       -2 0.47463901E-01 0.15733257E+04</pdfrwt>
<totfact> 0.26811549E+01</totfact>
</mgrwt>
</event>
<event>
12    1  0.2502641E-008  0.2986409E+04  0.7818608E-02  0.8247623E-01
          1   -1    0    0  501    0  0.00000000000E+00  0.00000000000E+00  0.17541752441E+04  0.17541752441E+04  0.00000000000E+00 0.  1.
         -1   -1    0    0    0  501 -0.00000000000E+00 -0.00000000000E+00 -0.12710586879E+04  0.12710586879E+04  0.00000000000E+00 0. -1.
         23    2    1    2    0    0  0.12586043198E+04  0.49211196238E+03  0.36344575374E+03  0.14020156150E+04  0.85416340897E+02 0.  0.
        254    2    1    2    0    0 -0.12586043198E+04 -0.49211196238E+03  0.11967080240E+03  0.16232183170E+04  0.89121130291E+03 0.  0.
        -24    2    4    4    0    0  0.11059489643E+03  0.55162203540E+02  0.53638319837E+02  0.14518745307E+03  0.54113097828E+02 0.  0.
         24    2    4    4    0    0 -0.13691992163E+04 -0.54727416592E+03  0.66032482567E+02  0.14780308640E+04  0.77456049689E+02 0.  0.
         13    1    3    3    0    0  0.66358158080E+03  0.26365978659E+03  0.23595471661E+03  0.75201836795E+03  0.00000000000E+00 0.  1.
        -13    1    3    3    0    0  0.59502273903E+03  0.22845217579E+03  0.12749103714E+03  0.64999724702E+03  0.00000000000E+00 0. -1.
          4    1    6    6  502    0 -0.58922199786E+03 -0.23469930834E+03  0.66795604749E+02  0.63775228805E+03  0.00000000000E+00 0. -1.
          3    1    5    5  503    0  0.96007768724E+02  0.66159476454E+02  0.44975907442E+02  0.12496959722E+03  0.00000000000E+00 0. -1.
         -4    1    5    5    0  503  0.14587127709E+02 -0.10997272915E+02  0.86624123952E+01  0.20217855842E+02  0.00000000000E+00 0.  1.
         -3    1    6    6    0  502 -0.77997721841E+03 -0.31257485758E+03 -0.76312218160E+00  0.84027857594E+03  0.00000000000E+00 0.  1.
<mgrwt>
<rscale>  0 0.29864090E+04</rscale>
<asrwt>0</asrwt>
<pdfrwt beam="1">  1        1 0.26987311E+00 0.29864090E+04</pdfrwt>
<pdfrwt beam="2">  1       -1 0.19554749E+00 0.29864090E+04</pdfrwt>
<totfact> 0.60272320E-01</totfact>
</mgrwt>
</event>
<event>
12    1  0.2502641E-008  0.1544195E+04  0.7818608E-02  0.8855584E-01
         -2   -1    0    0    0  501 -0.00000000000E+00  0.00000000000E+00  0.12083495403E+04  0.12083495403E+04  0.00000000000E+00 0.  1.
          2   -1    0    0  501    0  0.00000000000E+00 -0.00000000000E+00 -0.49334596354E+03  0.49334596354E+03  0.00000000000E+00 0. -1.
         23    2    1    2    0    0  0.16078452825E+03  0.41063130328E+03 -0.32674453852E+02  0.45190040761E+03  0.93148412264E+02 0.  0.
        254    2    1    2    0    0 -0.16078452825E+03 -0.41063130328E+03  0.74767803064E+03  0.12497950963E+04  0.89916384123E+03 0.  0.
        -24    2    4    4    0    0 -0.12898424205E+03 -0.68706245220E+03  0.47385899405E+03  0.84967767421E+03  0.93370530067E+02 0.  0.
         24    2    4    4    0    0 -0.31800286202E+02  0.27643114893E+03  0.27381903659E+03  0.40011742205E+03  0.87702042906E+02 0.  0.
         11    1    3    3    0    0  0.13447262023E+03  0.38378888041E+03 -0.51410003851E+02  0.40990215761E+03  0.00000000000E+00 0. -1.
        -11    1    3    3    0    0  0.26311908026E+02  0.26842422868E+02  0.18735549999E+02  0.41998250001E+02  0.00000000000E+00 0.  1.
          2    1    6    6  502    0 -0.91063894520E+01  0.99669587940E+02  0.15978965667E+03  0.18854624755E+03  0.00000000000E+00 0. -1.
          1    1    5    5  503    0 -0.11889364507E+03 -0.68219767779E+03  0.45790822666E+03  0.83018631310E+03  0.00000000000E+00 0. -1.
         -2    1    5    5    0  503 -0.10090596975E+02 -0.48647744113E+01  0.15950767392E+02  0.19491361107E+02  0.00000000000E+00 0.  1.
         -1    1    6    6    0  502 -0.22693896750E+02  0.17676156099E+03  0.11402937992E+03  0.21157117450E+03  0.00000000000E+00 0.  1.
<mgrwt>
<rscale>  0 0.15441948E+04</rscale>
<asrwt>0</asrwt>
<pdfrwt beam="1">  1        2 0.75899379E-01 0.15441948E+04</pdfrwt>
<pdfrwt beam="2">  1       -2 0.18589993E+00 0.15441948E+04</pdfrwt>
<totfact> 0.99401001E+00</totfact>
</mgrwt>
</event>
<event>
12    1  0.2676078E-008  0.1529576E+04  0.7818608E-02  0.8865020E-01
          2   -1    0    0  501    0  0.00000000000E+00  0.00000000000E+00  0.19204206029E+04  0.19204206029E+04  0.00000000000E+00 0. -1.
         -2   -1    0    0    0  501 -0.00000000000E+00 -0.00000000000E+00 -0.30456892227E+03  0.30456892227E+03  0.00000000000E+00 0.  1.
         23    2    1    2    0    0  0.60176711577E+02  0.61732506504E+02  0.12324247147E+04  0.12388852986E+04  0.92379471480E+02 0.  0.
        254    2    1    2    0    0 -0.60176711577E+02 -0.61732506504E+02  0.38342696593E+03  0.98610422655E+03  0.90440763400E+03 0.  0.
        -24    2    4    4    0    0  0.20996365099E+03  0.77576147819E+00 -0.21967766576E+03  0.31755951424E+03  0.92197785815E+02 0.  0.
         24    2    4    4    0    0 -0.27014036256E+03 -0.62508267982E+02  0.60310463170E+03  0.66854471231E+03  0.79584775745E+02 0.  0.
         11    1    3    3    0    0  0.12738859493E+01  0.19079318849E+02  0.81143854964E+03  0.81166382390E+03  0.00000000000E+00 0. -1.
        -11    1    3    3    0    0  0.58902825628E+02  0.42653187655E+02  0.42098616507E+03  0.42722147473E+03  0.00000000000E+00 0.  1.
          2    1    6    6  502    0 -0.25718818718E+03 -0.60360842647E+02  0.50845044160E+03  0.57298433357E+03  0.00000000000E+00 0. -1.
          3    1    5    5  503    0  0.17574015894E+03 -0.17423255364E+02 -0.12825807193E+03  0.21826201297E+03  0.00000000000E+00 0. -1.
         -4    1    5    5    0  503  0.34223492050E+02  0.18199016842E+02 -0.91419593836E+02  0.99297501274E+02  0.00000000000E+00 0.  1.
         -1    1    6    6    0  502 -0.12952175387E+02 -0.21474253358E+01  0.94654190096E+02  0.95560378743E+02  0.00000000000E+00 0.  1.
<mgrwt>
<rscale>  0 0.15295757E+04</rscale>
<asrwt>0</asrwt>
<pdfrwt beam="1">  1        2 0.29544932E+00 0.15295757E+04</pdfrwt>
<pdfrwt beam="2">  1       -2 0.46856758E-01 0.15295757E+04</pdfrwt>
<totfact> 0.30796264E+01</totfact>
</mgrwt>
</event>
<event>
11    1  0.2502641E-008  0.1483003E+04  0.7818608E-02  0.8895835E-01
          2   -1    0    0  501    0  0.00000000000E+00  0.00000000000E+00  0.97228370833E+03  0.97228370833E+03  0.00000000000E+00 0. -1.
         -2   -1    0    0    0  501 -0.00000000000E+00 -0.00000000000E+00 -0.56549825238E+03  0.56549825238E+03  0.00000000000E+00 0.  1.
         23    2    1    2    0    0 -0.29689838374E+03  0.24615224860E+03  0.38781236341E+03  0.55447430812E+03  0.91124910917E+02 0.  0.
        254    2    1    2    0    0  0.29689838374E+03 -0.24615224860E+03  0.18973092539E+02  0.98330765259E+03  0.90431984476E+03 0.  0.
         24    2    4    4    0    0  0.45920900624E+03 -0.47574760169E+03  0.48354893923E+02  0.66800641963E+03  0.81766062489E+02 0.  0.
         11    1    3    3    0    0 -0.20807347910E+03  0.22072643922E+03  0.30939998587E+03  0.43329330128E+03  0.00000000000E+00 0. -1.
        -11    1    3    3    0    0 -0.88824904643E+02  0.25425809380E+02  0.78412377542E+02  0.12118100684E+03  0.00000000000E+00 0.  1.
          2    1    5    5  502    0  0.36112071145E+03 -0.41666995044E+03  0.31656961366E+02  0.55228994110E+03  0.00000000000E+00 0. -1.
          3    1    4    4  503    0 -0.40249025761E+02  0.13820235656E+03  0.37568451658E+02  0.14876580250E+03  0.00000000000E+00 0. -1.
         -4    1    4    4    0  503 -0.12206159674E+03  0.91392996525E+02 -0.66950253042E+02  0.16653543045E+03  0.00000000000E+00 0.  1.
         -3    1    5    5    0  502  0.98088294788E+02 -0.59077651255E+02  0.16697932557E+02  0.11571647853E+03  0.00000000000E+00 0.  1.
<mgrwt>
<rscale>  0 0.14830034E+04</rscale>
<asrwt>0</asrwt>
<pdfrwt beam="1">  1        2 0.14958211E+00 0.14830034E+04</pdfrwt>
<pdfrwt beam="2">  1       -2 0.86999732E-01 0.14830034E+04</pdfrwt>
<totfact> 0.29023864E+01</totfact>
</mgrwt>
</event>
<event>
12    1  0.2502641E-008  0.1318831E+04  0.7818608E-02  0.9014764E-01
          2   -1    0    0  501    0  0.00000000000E+00  0.00000000000E+00  0.38448967235E+04  0.38448967235E+04  0.00000000000E+00 0. -1.
         -2   -1    0    0    0  501 -0.00000000000E+00 -0.00000000000E+00 -0.11309245653E+03  0.11309245653E+03  0.00000000000E+00 0.  1.
         23    2    1    2    0    0 -0.12320281137E+03 -0.10622638488E+03  0.96201940387E+02  0.20982054773E+03  0.91142039392E+02 0.  0.
        254    2    1    2    0    0  0.12320281137E+03  0.10622638488E+03  0.36356023266E+04  0.37481686323E+04  0.89705119224E+03 0.  0.
        -24    2    4    4    0    0 -0.28743821787E+03  0.76354211014E+02  0.27593462840E+04  0.27768563710E+04  0.92134116146E+02 0.  0.
         24    2    4    4    0    0  0.41064102923E+03  0.29872173863E+02  0.87625604259E+03  0.97131226133E+03  0.78131012878E+02 0.  0.
         13    1    3    3    0    0 -0.10069802355E+02 -0.45100670966E+02  0.60946537985E+02  0.76484978482E+02  0.00000000000E+00 0. -1.
        -13    1    3    3    0    0 -0.11313300901E+03 -0.61125713911E+02  0.35255402402E+02  0.13333556925E+03  0.00000000000E+00 0.  1.
          2    1    6    6  502    0  0.22714742182E+03  0.14295167302E+02  0.39284370855E+03  0.45401154434E+03  0.00000000000E+00 0. -1.
          3    1    5    5  503    0 -0.61600458599E+01 -0.11273485572E+02  0.53594914879E+02  0.55113088670E+02  0.00000000000E+00 0. -1.
         -4    1    5    5    0  503 -0.28127817201E+03  0.87627696587E+02  0.27057513691E+04  0.27217432823E+04  0.00000000000E+00 0.  1.
         -1    1    6    6    0  502  0.18349360741E+03  0.15577006561E+02  0.48341233404E+03  0.51730071699E+03  0.00000000000E+00 0.  1.
<mgrwt>
<rscale>  0 0.13188310E+04</rscale>
<asrwt>0</asrwt>
<pdfrwt beam="1">  1        2 0.59152247E+00 0.13188310E+04</pdfrwt>
<pdfrwt beam="2">  1       -2 0.17398842E-01 0.13188310E+04</pdfrwt>
<totfact> 0.12449316E+01</totfact>
</mgrwt>
</event>
<event>
11    1  0.2502641E-008  0.5887092E+04  0.7818608E-02  0.7704561E-01
         -1   -1    0    0    0  501 -0.00000000000E+00  0.00000000000E+00  0.22853214258E+04  0.22853214258E+04  0.00000000000E+00 0.  1.
          1   -1    0    0  501    0  0.00000000000E+00 -0.00000000000E+00 -0.37913548626E+04  0.37913548626E+04  0.00000000000E+00 0. -1.
         23    2    1    2    0    0  0.22300794867E+04 -0.48892163276E+03  0.10651262158E+04  0.25208683497E+04  0.89356037059E+02 0.  0.
        254    2    1    2    0    0 -0.22300794867E+04  0.48892163276E+03 -0.25711596526E+04  0.35558079387E+04  0.90587485793E+03 0.  0.
         24    2    4    4    0    0 -0.26599195965E+03 -0.13821189435E+03 -0.81071866702E+02  0.32055326451E+03  0.79545568573E+02 0.  0.
         13    1    3    3    0    0  0.13652506107E+03 -0.29120037928E+02  0.42175101133E+02  0.14582800850E+03  0.00000000000E+00 0. -1.
        -13    1    3    3    0    0  0.20935544256E+04 -0.45980159484E+03  0.10229511147E+04  0.23750403412E+04  0.00000000000E+00 0.  1.
          4    1    5    5  502    0 -0.41009682513E+02  0.80409455614E+01 -0.10795539574E+02  0.43162420461E+02  0.00000000000E+00 0. -1.
          1    1    4    4  503    0 -0.34587304482E+03  0.11702917937E+03 -0.37018605313E+03  0.51996317743E+03  0.00000000000E+00 0. -1.
         -2    1    4    4    0  503 -0.16182144822E+04  0.51010434775E+03 -0.21199017327E+04  0.27152914968E+04  0.00000000000E+00 0.  1.
         -3    1    5    5    0  502 -0.22498227713E+03 -0.14625283991E+03 -0.70276327129E+02  0.27739084405E+03  0.00000000000E+00 0.  1.
<mgrwt>
<rscale>  0 0.58870925E+04</rscale>
<asrwt>0</asrwt>
<pdfrwt beam="1">  1        1 0.58328536E+00 0.58870925E+04</pdfrwt>
<pdfrwt beam="2">  1       -1 0.35158791E+00 0.58870925E+04</pdfrwt>
<totfact> 0.14774125E-03</totfact>
</mgrwt>
</event>
<event>
12    1  0.2502641E-008  0.2392512E+04  0.7818608E-02  0.8442312E-01
         -2   -1    0    0    0  501 -0.00000000000E+00  0.00000000000E+00  0.49245846879E+03  0.49245846879E+03  0.00000000000E+00 0.  1.
          2   -1    0    0  501    0  0.00000000000E+00 -0.00000000000E+00 -0.29058871093E+04  0.29058871093E+04  0.00000000000E+00 0. -1.
         23    2    1    2    0    0 -0.56307573881E+03  0.85840910648E+03 -0.94102863162E+03  0.13959890031E+04  0.96591560369E+02 0.  0.
        254    2    1    2    0    0  0.56307573881E+03 -0.85840910648E+03 -0.14724000089E+04  0.20023565750E+04  0.88743990528E+03 0.  0.
        -24    2    4    4    0    0  0.66570304661E+03 -0.35379106514E+03 -0.53597616596E+03  0.93067703471E+03  0.10276491818E+03 0.  0.
         24    2    4    4    0    0 -0.10262730780E+03 -0.50461804134E+03 -0.93642384289E+03  0.10716795403E+04  0.80222761744E+02 0.  0.
         13    1    3    3    0    0 -0.86146390099E+02  0.79113533536E+02 -0.93034396250E+02  0.14945083005E+03  0.00000000000E+00 0. -1.
        -13    1    3    3    0    0 -0.47692934871E+03  0.77929557294E+03 -0.84799423537E+03  0.12465381731E+04  0.00000000000E+00 0.  1.
          2    1    6    6  502    0 -0.45879493634E+02 -0.37164395019E+03 -0.71721454469E+03  0.80908643343E+03  0.00000000000E+00 0. -1.
          3    1    5    5  503    0  0.83172391143E+02 -0.32198744416E+02 -0.27813139310E+02  0.93423639988E+02  0.00000000000E+00 0. -1.
         -4    1    5    5    0  503  0.58253065547E+03 -0.32159232072E+03 -0.50816302665E+03  0.83725339472E+03  0.00000000000E+00 0.  1.
         -1    1    6    6    0  502 -0.56747814170E+02 -0.13297409115E+03 -0.21920929820E+03  0.26259310682E+03  0.00000000000E+00 0.  1.
<mgrwt>
<rscale>  0 0.23925122E+04</rscale>
<asrwt>0</asrwt>
<pdfrwt beam="1">  1        2 0.44705955E+00 0.23925122E+04</pdfrwt>
<pdfrwt beam="2">  1       -2 0.75762841E-01 0.23925122E+04</pdfrwt>
<totfact> 0.27997959E+00</totfact>
</mgrwt>
</event>
<event>
12    1  0.2502641E-008  0.1496813E+04  0.7818608E-02  0.8886575E-01
          1   -1    0    0  501    0  0.00000000000E+00  0.00000000000E+00  0.52724029963E+03  0.52724029963E+03  0.00000000000E+00 0. -1.
         -1   -1    0    0    0  501 -0.00000000000E+00 -0.00000000000E+00 -0.10623467880E+04  0.10623467880E+04  0.00000000000E+00 0.  1.
         23    2    1    2    0    0 -0.17775125627E+02  0.13618066139E+03  0.30561373270E+03  0.34684216849E+03  0.89658287974E+02 0.  0.
        254    2    1    2    0    0  0.17775125627E+02 -0.13618066139E+03 -0.84072022108E+03  0.12427449191E+04  0.90484436026E+03 0.  0.
        -24    2    4    4    0    0  0.47692641990E+02 -0.26469612058E+03 -0.98840873498E+03  0.10288079622E+04  0.95683704270E+02 0.  0.
         24    2    4    4    0    0 -0.29917516363E+02  0.12851545919E+03  0.14768851391E+03  0.21393695698E+03  0.80906386548E+02 0.  0.
         13    1    3    3    0    0 -0.23751888436E+02 -0.31538168094E+01  0.56001477203E+02  0.60911938187E+02  0.00000000000E+00 0.  1.
        -13    1    3    3    0    0  0.59767628089E+01  0.13933447820E+03  0.24961225550E+03  0.28593023031E+03  0.00000000000E+00 0. -1.
          4    1    6    6  502    0 -0.15728471729E+02  0.13147924165E+03  0.14905435791E+03  0.19937747471E+03  0.00000000000E+00 0. -1.
          3    1    5    5  503    0 -0.13312816419E+02 -0.83472873500E+02 -0.43929507262E+03  0.44735345368E+03  0.00000000000E+00 0. -1.
         -4    1    5    5    0  503  0.61005458409E+02 -0.18122324708E+03 -0.54911366237E+03  0.58145450848E+03  0.00000000000E+00 0.  1.
         -3    1    6    6    0  502 -0.14189044634E+02 -0.29637824609E+01 -0.13658440052E+01  0.14559482269E+02  0.00000000000E+00 0.  1.
<mgrwt>
<rscale>  0 0.14968127E+04</rscale>
<asrwt>0</asrwt>
<pdfrwt beam="1">  1        1 0.81113893E-01 0.14968127E+04</pdfrwt>
<pdfrwt beam="2">  1       -1 0.16343797E+00 0.14968127E+04</pdfrwt>
<totfact> 0.10965895E+01</totfact>
</mgrwt>
</event>
<event>
11    1  0.2502641E-008  0.1104579E+04  0.7818608E-02  0.9200740E-01
          1   -1    0    0  501    0  0.00000000000E+00  0.00000000000E+00  0.78023998962E+03  0.78023998962E+03  0.00000000000E+00 0. -1.
         -1   -1    0    0    0  501 -0.00000000000E+00 -0.00000000000E+00 -0.39093608498E+03  0.39093608498E+03  0.00000000000E+00 0.  1.
         23    2    1    2    0    0  0.95547375031E+02  0.15454704612E+03  0.99452064251E+02  0.22613281892E+03  0.90726227553E+02 0.  0.
        254    2    1    2    0    0 -0.95547375031E+02 -0.15454704612E+03  0.28985184040E+03  0.94504325568E+03  0.88095321975E+03 0.  0.
         24    2    4    4    0    0 -0.21839306110E+02  0.14374418501E+03 -0.24904614604E+03  0.29968506355E+03  0.81534093728E+02 0.  0.
         11    1    3    3    0    0  0.57079714354E+02  0.10038064041E+03  0.10926546859E+03  0.15897581384E+03  0.00000000000E+00 0. -1.
        -11    1    3    3    0    0  0.38467660676E+02  0.54166405711E+02 -0.98134043407E+01  0.67157005072E+02  0.00000000000E+00 0.  1.
          2    1    5    5  502    0 -0.21029436913E+02  0.10647236534E+03 -0.23673095670E+03  0.26042301676E+03  0.00000000000E+00 0. -1.
          3    1    4    4  503    0 -0.96842769414E+02 -0.14382513624E+03  0.16164626616E+03  0.23705211909E+03  0.00000000000E+00 0. -1.
         -4    1    4    4    0  503  0.23134700493E+02 -0.15446609490E+03  0.37725172027E+03  0.40830607305E+03  0.00000000000E+00 0.  1.
         -1    1    5    5    0  502 -0.80986919729E+00  0.37271819668E+02 -0.12315189341E+02  0.39262046788E+02  0.00000000000E+00 0.  1.
<mgrwt>
<rscale>  0 0.11045795E+04</rscale>
<asrwt>0</asrwt>
<pdfrwt beam="1">  1        1 0.12003692E+00 0.11045795E+04</pdfrwt>
<pdfrwt beam="2">  1       -1 0.60144013E-01 0.11045795E+04</pdfrwt>
<totfact> 0.64266731E+01</totfact>
</mgrwt>
</event>
<event>
11    1  0.2502641E-008  0.1852683E+04  0.7818608E-02  0.8678774E-01
          2   -1    0    0  501    0  0.00000000000E+00  0.00000000000E+00  0.87247876060E+03  0.87247876060E+03  0.00000000000E+00 0.  1.
         -2   -1    0    0    0  501 -0.00000000000E+00 -0.00000000000E+00 -0.98352980155E+03  0.98352980155E+03  0.00000000000E+00 0. -1.
         23    2    1    2    0    0 -0.45470897533E+03  0.12754414480E+03 -0.56384952637E+03  0.74606360689E+03  0.12512735917E+03 0.  0.
        254    2    1    2    0    0  0.45470897533E+03 -0.12754414480E+03  0.45279848543E+03  0.11099449553E+04  0.89661785293E+03 0.  0.
         24    2    4    4    0    0  0.46836777850E+03  0.24832608448E+03  0.22562823389E+02  0.53653169268E+03  0.79517017523E+02 0.  0.
         11    1    3    3    0    0 -0.43982828476E+02  0.50652730527E+02 -0.11250005048E+03  0.13098263117E+03  0.00000000000E+00 0. -1.
        -11    1    3    3    0    0 -0.41072614685E+03  0.76891414277E+02 -0.45134947589E+03  0.61508097571E+03  0.00000000000E+00 0.  1.
          4    1    5    5  502    0  0.40779740255E+03  0.18310777055E+03  0.16703188249E+02  0.44733228551E+03  0.00000000000E+00 0. -1.
          1    1    4    4  503    0 -0.31334289592E+02 -0.22652682391E+03  0.25767930228E+03  0.34452120759E+03  0.00000000000E+00 0. -1.
         -2    1    4    4    0  503  0.17675486418E+02 -0.14934340538E+03  0.17255635975E+03  0.22889205500E+03  0.00000000000E+00 0.  1.
         -3    1    5    5    0  502  0.60570375947E+02  0.65218313928E+02  0.58596351406E+01  0.89199407162E+02  0.00000000000E+00 0.  1.
<mgrwt>
<rscale>  0 0.18526833E+04</rscale>
<asrwt>0</asrwt>
<pdfrwt beam="1">  1        2 0.13422750E+00 0.18526833E+04</pdfrwt>
<pdfrwt beam="2">  1       -2 0.15131228E+00 0.18526833E+04</pdfrwt>
<totfact> 0.84248272E+00</totfact>
</mgrwt>
</event>
<event>
12    1  0.2502641E-008  0.1095874E+04  0.7818608E-02  0.9209223E-01
         -2   -1    0    0    0  501 -0.00000000000E+00  0.00000000000E+00  0.24202310527E+03  0.24202310527E+03  0.00000000000E+00 0.  1.
          2   -1    0    0  501    0  0.00000000000E+00 -0.00000000000E+00 -0.12405222492E+04  0.12405222492E+04  0.00000000000E+00 0. -1.
         23    2    1    2    0    0  0.82907420086E+02 -0.83682260911E+02 -0.29035110949E+02  0.15461966304E+03  0.95853228605E+02 0.  0.
        254    2    1    2    0    0 -0.82907420086E+02  0.83682260911E+02 -0.96946403299E+03  0.13279256914E+04  0.89980540653E+03 0.  0.
        -24    2    4    4    0    0  0.37877348225E+03 -0.22722070883E+02 -0.23944622802E+03  0.45385569391E+03  0.68299717575E+02 0.  0.
         24    2    4    4    0    0 -0.46168090234E+03  0.10640433179E+03 -0.73001780497E+03  0.87406999753E+03  0.81247939015E+02 0.  0.
         13    1    3    3    0    0  0.24371727991E+02  0.17128942210E+02 -0.23452014637E+02  0.37912778546E+02  0.00000000000E+00 0. -1.
        -13    1    3    3    0    0  0.58535692095E+02 -0.10081120312E+03 -0.55830963123E+01  0.11670688449E+03  0.00000000000E+00 0.  1.
          4    1    6    6  502    0 -0.14850521426E+03  0.32506041980E+02 -0.30700085256E+03  0.34257840694E+03  0.00000000000E+00 0. -1.
          3    1    5    5  503    0  0.26888906363E+03  0.46172311581E+01 -0.14017912008E+03  0.30327023110E+03  0.00000000000E+00 0. -1.
         -4    1    5    5    0  503  0.10988441862E+03 -0.27339302041E+02 -0.99267107941E+02  0.15058546281E+03  0.00000000000E+00 0.  1.
         -3    1    6    6    0  502 -0.31317568807E+03  0.73898289814E+02 -0.42301695241E+03  0.53149159059E+03  0.00000000000E+00 0.  1.
<mgrwt>
<rscale>  0 0.10958742E+04</rscale>
<asrwt>0</asrwt>
<pdfrwt beam="1">  1        2 0.19084957E+00 0.10958742E+04</pdfrwt>
<pdfrwt beam="2">  1       -2 0.37234324E-01 0.10958742E+04</pdfrwt>
<totfact> 0.12088964E+02</totfact>
</mgrwt>
</event>
<event>
12    1  0.2502641E-008  0.2201122E+04  0.7818608E-02  0.8517961E-01
          2   -1    0    0  501    0  0.00000000000E+00  0.00000000000E+00  0.21114899079E+04  0.21114899079E+04  0.00000000000E+00 0. -1.
         -2   -1    0    0    0  501 -0.00000000000E+00 -0.00000000000E+00 -0.57363988425E+03  0.57363988425E+03  0.00000000000E+00 0.  1.
         23    2    1    2    0    0  0.40949984920E+03 -0.11305097995E+03  0.16046043613E+04  0.16625355553E+04  0.93801203411E+02 0.  0.
        254    2    1    2    0    0 -0.40949984920E+03  0.11305097995E+03 -0.66754337742E+02  0.10225942368E+04  0.92777808818E+03 0.  0.
        -24    2    4    4    0    0 -0.55151665678E+03 -0.25701333275E+03 -0.22597583493E+02  0.61601105248E+03  0.93447793331E+02 0.  0.
         24    2    4    4    0    0  0.14201680759E+03  0.37006431270E+03 -0.44156754250E+02  0.40658318429E+03  0.79017071771E+02 0.  0.
         13    1    3    3    0    0  0.12809005716E+03 -0.80495892709E+02  0.59637185591E+03  0.61526095440E+03  0.00000000000E+00 0.  1.
        -13    1    3    3    0    0  0.28140979204E+03 -0.32555087241E+02  0.10082325054E+04  0.10472746009E+04  0.00000000000E+00 0. -1.
          2    1    6    6  502    0  0.10447018197E+03  0.16433923499E+03 -0.29385506129E+02  0.19693885104E+03  0.00000000000E+00 0. -1.
          3    1    5    5  503    0 -0.12051956031E+03 -0.10038498839E+03  0.56393474139E+00  0.15685161247E+03  0.00000000000E+00 0. -1.
         -4    1    5    5    0  503 -0.43099709648E+03 -0.15662834436E+03 -0.23161518234E+02  0.45915944002E+03  0.00000000000E+00 0.  1.
         -3    1    6    6    0  502  0.37546625618E+02  0.20572507771E+03 -0.14771248121E+02  0.20964433325E+03  0.00000000000E+00 0.  1.
<mgrwt>
<rscale>  0 0.22011223E+04</rscale>
<asrwt>0</asrwt>
<pdfrwt beam="1">  1        2 0.32484460E+00 0.22011223E+04</pdfrwt>
<pdfrwt beam="2">  1       -2 0.88252291E-01 0.22011223E+04</pdfrwt>
<totfact> 0.58498072E+00</totfact>
</mgrwt>
</event>
<event>
12    1  0.2502641E-008  0.2675130E+04  0.7818608E-02  0.8343120E-01
         -2   -1    0    0    0  501 -0.00000000000E+00  0.00000000000E+00  0.71159523583E+03  0.71159523583E+03  0.00000000000E+00 0.  1.
          2   -1    0    0  501    0  0.00000000000E+00 -0.00000000000E+00 -0.25141831832E+04  0.25141831832E+04  0.00000000000E+00 0. -1.
         23    2    1    2    0    0  0.82401123234E+02 -0.99651120048E+03 -0.15565123994E+04  0.18522370362E+04  0.90700998210E+02 0.  0.
        254    2    1    2    0    0 -0.82401123234E+02  0.99651120048E+03 -0.24607554799E+03  0.13735413828E+04  0.90897647783E+03 0.  0.
        -24    2    4    4    0    0 -0.21177196591E+03  0.63760480297E+03 -0.55507515539E+03  0.87622636433E+03  0.90977816522E+02 0.  0.
         24    2    4    4    0    0  0.12937084267E+03  0.35890639751E+03  0.30899960740E+03  0.49731501851E+03  0.79314898655E+02 0.  0.
         11    1    3    3    0    0  0.83547842987E+02 -0.82321678186E+03 -0.13403500438E+04  0.15751839105E+04  0.00000000000E+00 0. -1.
        -11    1    3    3    0    0 -0.11467197524E+01 -0.17329441862E+03 -0.21616235562E+03  0.27705312573E+03  0.00000000000E+00 0.  1.
          2    1    6    6  502    0  0.62706329007E+02  0.27726237505E+03  0.22533531526E+03  0.36274303939E+03  0.00000000000E+00 0. -1.
          1    1    5    5  503    0 -0.75056439519E+02  0.31413879372E+03 -0.31254365098E+03  0.44944430645E+03  0.00000000000E+00 0. -1.
         -2    1    5    5    0  503 -0.13671552639E+03  0.32346600925E+03 -0.24253150442E+03  0.42678205788E+03  0.00000000000E+00 0.  1.
         -1    1    6    6    0  502  0.66664513665E+02  0.81644022458E+02  0.83664292141E+02  0.13457197912E+03  0.00000000000E+00 0.  1.
<mgrwt>
<rscale>  0 0.26751305E+04</rscale>
<asrwt>0</asrwt>
<pdfrwt beam="1">  1        2 0.38679741E+00 0.26751305E+04</pdfrwt>
<pdfrwt beam="2">  1       -2 0.10947619E+00 0.26751305E+04</pdfrwt>
<totfact> 0.19953017E+00</totfact>
</mgrwt>
</event>
<event>
12    1  0.2502641E-008  0.1631320E+04  0.7818608E-02  0.8801534E-01
         -2   -1    0    0    0  501 -0.00000000000E+00  0.00000000000E+00  0.63576916352E+03  0.63576916352E+03  0.00000000000E+00 0.  1.
          2   -1    0    0  501    0  0.00000000000E+00 -0.00000000000E+00 -0.10464513919E+04  0.10464513919E+04  0.00000000000E+00 0. -1.
         23    2    1    2    0    0  0.81995359166E+02 -0.37625738817E+03 -0.57088202372E+03  0.69421154537E+03  0.87923396471E+02 0.  0.
        254    2    1    2    0    0 -0.81995359166E+02  0.37625738817E+03  0.16019979532E+03  0.98800901006E+03  0.89565895767E+03 0.  0.
        -24    2    4    4    0    0 -0.31336787061E+03 -0.11308776929E+03  0.26616173960E+03  0.43049033313E+03  0.59089672490E+02 0.  0.
         24    2    4    4    0    0  0.23137251145E+03  0.48934515746E+03 -0.10596194428E+03  0.55751867693E+03  0.81284803674E+02 0.  0.
         13    1    3    3    0    0  0.93349843818E+02 -0.37070913654E+03 -0.55006812823E+03  0.66986148042E+03  0.00000000000E+00 0. -1.
        -13    1    3    3    0    0 -0.11354484652E+02 -0.55482516315E+01 -0.20813895485E+02  0.24350064951E+02  0.00000000000E+00 0.  1.
          4    1    6    6  502    0  0.20742546325E+03  0.47756355809E+03 -0.10118873895E+03  0.53040685865E+03  0.00000000000E+00 0. -1.
          1    1    5    5  503    0 -0.17002921307E+03 -0.66823860029E+02  0.18235223701E+03  0.25812341992E+03  0.00000000000E+00 0. -1.
         -2    1    5    5    0  503 -0.14333865754E+03 -0.46263909258E+02  0.83809502588E+02  0.17236691321E+03  0.00000000000E+00 0.  1.
         -3    1    6    6    0  502  0.23947048198E+02  0.11781599374E+02 -0.47732053299E+01  0.27111818278E+02  0.00000000000E+00 0.  1.
<mgrwt>
<rscale>  0 0.16313204E+04</rscale>
<asrwt>0</asrwt>
<pdfrwt beam="1">  1        2 0.16099252E+00 0.16313204E+04</pdfrwt>
<pdfrwt beam="2">  1       -2 0.97810641E-01 0.16313204E+04</pdfrwt>
<totfact> 0.19594498E+01</totfact>
</mgrwt>
</event>
<event>
12    1  0.2502641E-008  0.3295121E+04  0.7818608E-02  0.8164138E-01
          1   -1    0    0  501    0  0.00000000000E+00  0.00000000000E+00  0.17696913837E+04  0.17696913837E+04  0.00000000000E+00 0. -1.
         -1   -1    0    0    0  501 -0.00000000000E+00 -0.00000000000E+00 -0.15338578091E+04  0.15338578091E+04  0.00000000000E+00 0.  1.
         23    2    1    2    0    0 -0.98342411455E+03 -0.10759445340E+04  0.56944175051E+03  0.15676138204E+04  0.91485263980E+02 0.  0.
        254    2    1    2    0    0  0.98342411455E+03  0.10759445340E+04 -0.33360817592E+03  0.17359353724E+04  0.88170152145E+03 0.  0.
        -24    2    4    4    0    0  0.53912920736E+03  0.98489800662E+03 -0.52045873407E+03  0.12389088463E+04  0.57736036140E+02 0.  0.
         24    2    4    4    0    0  0.44429490718E+03  0.91046527351E+02  0.18685055815E+03  0.49702652613E+03  0.80217217012E+02 0.  0.
         13    1    3    3    0    0 -0.49490916635E+03 -0.60572424467E+03  0.32029466392E+03  0.84523701721E+03  0.00000000000E+00 0.  1.
        -13    1    3    3    0    0 -0.48851494819E+03 -0.47022028931E+03  0.24914708659E+03  0.72237680323E+03  0.00000000000E+00 0. -1.
          4    1    6    6  502    0  0.13758571099E+03  0.44157145719E+01  0.26238588837E+02  0.14013489911E+03  0.00000000000E+00 0. -1.
          3    1    5    5  503    0  0.22125187008E+03  0.36761082501E+03 -0.22298187320E+03  0.48354009601E+03  0.00000000000E+00 0. -1.
         -4    1    5    5    0  503  0.31787733728E+03  0.61728718161E+03 -0.29747686087E+03  0.75536875028E+03  0.00000000000E+00 0.  1.
         -3    1    6    6    0  502  0.30670919619E+03  0.86630812779E+02  0.16061196931E+03  0.35689162702E+03  0.00000000000E+00 0.  1.
<mgrwt>
<rscale>  0 0.32951206E+04</rscale>
<asrwt>0</asrwt>
<pdfrwt beam="1">  1        1 0.27226021E+00 0.32951206E+04</pdfrwt>
<pdfrwt beam="2">  1       -1 0.23597812E+00 0.32951206E+04</pdfrwt>
<totfact> 0.30556227E-01</totfact>
</mgrwt>
</event>
<event>
12    1  0.2502641E-008  0.1287429E+04  0.7818608E-02  0.9039594E-01
          2   -1    0    0  501    0  0.00000000000E+00  0.00000000000E+00  0.10069688217E+04  0.10069688217E+04  0.00000000000E+00 0. -1.
         -2   -1    0    0    0  501 -0.00000000000E+00 -0.00000000000E+00 -0.41150061075E+03  0.41150061075E+03  0.00000000000E+00 0.  1.
         23    2    1    2    0    0 -0.18323646166E+03  0.18765725729E+03  0.37247795679E+03  0.46317577029E+03  0.83672688454E+02 0.  0.
        254    2    1    2    0    0  0.18323646166E+03 -0.18765725729E+03  0.22299025418E+03  0.95529366218E+03  0.89110632387E+03 0.  0.
        -24    2    4    4    0    0  0.76249587504E+02 -0.22664472448E+03  0.54578937982E+03  0.60343967717E+03  0.95244769563E+02 0.  0.
         24    2    4    4    0    0  0.10698687416E+03  0.38987467190E+02 -0.32279912564E+03  0.35185398501E+03  0.81460035678E+02 0.  0.
         13    1    3    3    0    0 -0.98427151408E+02  0.10213413204E+03  0.12987428369E+03  0.19231904384E+03  0.00000000000E+00 0.  1.
        -13    1    3    3    0    0 -0.84809310254E+02  0.85523125251E+02  0.24260367310E+03  0.27085672645E+03  0.00000000000E+00 0. -1.
          2    1    6    6  502    0  0.49178587089E+02  0.36400864300E+02 -0.25721085641E+03  0.26438793658E+03  0.00000000000E+00 0. -1.
          1    1    5    5  503    0  0.74460982589E+02 -0.15193003965E+03  0.45739324293E+03  0.48768407146E+03  0.00000000000E+00 0. -1.
         -2    1    5    5    0  503  0.17886049141E+01 -0.74714684827E+02  0.88396136893E+02  0.11575560571E+03  0.00000000000E+00 0.  1.
         -1    1    6    6    0  502  0.57808287069E+02  0.25866028901E+01 -0.65588269228E+02  0.87466048434E+02  0.00000000000E+00 0.  1.
<mgrwt>
<rscale>  0 0.12874289E+04</rscale>
<asrwt>0</asrwt>
<pdfrwt beam="1">  1        2 0.15491828E+00 0.12874289E+04</pdfrwt>
<pdfrwt beam="2">  1       -2 0.63307787E-01 0.12874289E+04</pdfrwt>
<totfact> 0.56513062E+01</totfact>
</mgrwt>
</event>
<event>
12    1  0.2502641E-008  0.3194966E+04  0.7818608E-02  0.8190148E-01
         -2   -1    0    0    0  501 -0.00000000000E+00  0.00000000000E+00  0.11752194683E+04  0.11752194683E+04  0.00000000000E+00 0.  1.
          2   -1    0    0  501    0  0.00000000000E+00 -0.00000000000E+00 -0.21714680463E+04  0.21714680463E+04  0.00000000000E+00 0. -1.
         23    2    1    2    0    0  0.35305765495E+02 -0.80314783941E+03 -0.17476765046E+04  0.19259010179E+04  0.91807500531E+02 0.  0.
        254    2    1    2    0    0 -0.35305765495E+02  0.80314783941E+03  0.75142792656E+03  0.14207864967E+04  0.89871986254E+03 0.  0.
        -24    2    4    4    0    0  0.25399227076E+03  0.46622097149E+03 -0.63623595048E+01  0.53884230682E+03  0.91850335518E+02 0.  0.
         24    2    4    4    0    0 -0.28929803626E+03  0.33692686792E+03  0.75779028606E+03  0.88194418987E+03  0.79789524889E+02 0.  0.
         13    1    3    3    0    0  0.39989877840E+02 -0.30794610333E+03 -0.76098406002E+03  0.82190433293E+03  0.00000000000E+00 0.  1.
        -13    1    3    3    0    0 -0.46841123454E+01 -0.49520173608E+03 -0.98669244458E+03  0.11039966850E+04  0.00000000000E+00 0. -1.
          2    1    6    6  502    0 -0.20398767499E+03  0.18845105908E+03  0.42516887282E+03  0.50783200335E+03  0.00000000000E+00 0. -1.
          3    1    5    5  503    0  0.21122857662E+03  0.31979081259E+03  0.21137897290E+02  0.38383653565E+03  0.00000000000E+00 0. -1.
         -4    1    5    5    0  503  0.42763694147E+02  0.14643015890E+03 -0.27500256795E+02  0.15500577117E+03  0.00000000000E+00 0.  1.
         -1    1    6    6    0  502 -0.85310361268E+02  0.14847580884E+03  0.33262141324E+03  0.37411218651E+03  0.00000000000E+00 0.  1.
<mgrwt>
<rscale>  0 0.31949657E+04</rscale>
<asrwt>0</asrwt>
<pdfrwt beam="1">  1        2 0.33407200E+00 0.31949657E+04</pdfrwt>
<pdfrwt beam="2">  1       -2 0.18080300E+00 0.31949657E+04</pdfrwt>
<totfact> 0.80810023E-01</totfact>
</mgrwt>
</event>
<event>
12    1  0.2502641E-008  0.2332994E+04  0.7818608E-02  0.8465025E-01
          1   -1    0    0  501    0  0.00000000000E+00  0.00000000000E+00  0.10908376967E+04  0.10908376967E+04  0.00000000000E+00 0. -1.
         -1   -1    0    0    0  501 -0.00000000000E+00 -0.00000000000E+00 -0.12474036736E+04  0.12474036736E+04  0.00000000000E+00 0.  1.
         23    2    1    2    0    0 -0.12147077543E+03  0.44472820425E+03  0.81209615298E+03  0.93835600273E+03  0.92051622614E+02 0.  0.
        254    2    1    2    0    0  0.12147077543E+03 -0.44472820425E+03 -0.96866212985E+03  0.13998853676E+04  0.89935220892E+03 0.  0.
        -24    2    4    4    0    0  0.22564615435E+03  0.17196301191E+03 -0.59935745464E+03  0.66929272620E+03  0.90752027423E+02 0.  0.
         24    2    4    4    0    0 -0.10417537892E+03 -0.61669121616E+03 -0.36930467521E+03  0.73059264140E+03  0.78861263475E+02 0.  0.
         13    1    3    3    0    0 -0.30309726820E+02  0.27890980353E+03  0.46731565040E+03  0.54506263415E+03  0.00000000000E+00 0. -1.
        -13    1    3    3    0    0 -0.91161048607E+02  0.16581840073E+03  0.34478050258E+03  0.39329336857E+03  0.00000000000E+00 0.  1.
          4    1    6    6  502    0 -0.95340338652E+02 -0.49728674749E+03 -0.33079274666E+03  0.60482041190E+03  0.00000000000E+00 0. -1.
          1    1    5    5  503    0  0.13126255412E+03  0.57527835413E+02 -0.22674927553E+03  0.26824344151E+03  0.00000000000E+00 0. -1.
         -2    1    5    5    0  503  0.94383600224E+02  0.11443517649E+03 -0.37260817911E+03  0.40104928469E+03  0.00000000000E+00 0.  1.
         -3    1    6    6    0  502 -0.88350402673E+01 -0.11940446866E+03 -0.38511928558E+02  0.12577222950E+03  0.00000000000E+00 0.  1.
<mgrwt>
<rscale>  0 0.23329937E+04</rscale>
<asrwt>0</asrwt>
<pdfrwt beam="1">  1        1 0.16782118E+00 0.23329937E+04</pdfrwt>
<pdfrwt beam="2">  1       -1 0.19190826E+00 0.23329937E+04</pdfrwt>
<totfact> 0.19894469E+00</totfact>
</mgrwt>
</event>
<event>
12    1  0.2502641E-008  0.1556076E+04  0.7818608E-02  0.8847996E-01
         -1   -1    0    0    0  501 -0.00000000000E+00  0.00000000000E+00  0.26504193653E+03  0.26504193653E+03  0.00000000000E+00 0.  1.
          1   -1    0    0  501    0  0.00000000000E+00 -0.00000000000E+00 -0.22839532582E+04  0.22839532582E+04  0.00000000000E+00 0. -1.
         23    2    1    2    0    0 -0.39513767919E+03  0.32422156841E+03 -0.65259392055E+03  0.83414424384E+03  0.93082669951E+02 0.  0.
        254    2    1    2    0    0  0.39513767919E+03 -0.32422156841E+03 -0.13663174011E+04  0.17148509509E+04  0.90146388292E+03 0.  0.
        -24    2    4    4    0    0  0.88624175060E+02 -0.45999916989E+03 -0.23451026889E+03  0.53173079404E+03  0.91044441965E+02 0.  0.
         24    2    4    4    0    0  0.30651350413E+03  0.13577760148E+03 -0.11318071322E+04  0.11831201568E+04  0.79998973002E+02 0.  0.
         11    1    3    3    0    0 -0.13975739784E+03  0.13084280056E+03 -0.31610179080E+03  0.36955691153E+03  0.00000000000E+00 0. -1.
        -11    1    3    3    0    0 -0.25538028135E+03  0.19337876786E+03 -0.33649212975E+03  0.46458733231E+03  0.00000000000E+00 0.  1.
          2    1    6    6  502    0  0.28258807810E+03  0.96774318844E+02 -0.99457687131E+03  0.10384625384E+04  0.00000000000E+00 0. -1.
          3    1    5    5  503    0  0.48751711177E+02 -0.25675946153E+03 -0.18072254355E+03  0.31774642119E+03  0.00000000000E+00 0. -1.
         -4    1    5    5    0  503  0.39872463883E+02 -0.20323970836E+03 -0.53787725339E+02  0.21398437285E+03  0.00000000000E+00 0.  1.
         -1    1    6    6    0  502  0.23925426025E+02  0.39003282634E+02 -0.13723026092E+03  0.14465761846E+03  0.00000000000E+00 0.  1.
<mgrwt>
<rscale>  0 0.15560763E+04</rscale>
<asrwt>0</asrwt>
<pdfrwt beam="1">  1        1 0.35137741E+00 0.15560763E+04</pdfrwt>
<pdfrwt beam="2">  1       -1 0.40775684E-01 0.15560763E+04</pdfrwt>
<totfact> 0.10822853E+01</totfact>
</mgrwt>
</event>
<event>
11    1  0.2502641E-008  0.1195578E+04  0.7818608E-02  0.9116736E-01
          2   -1    0    0  501    0  0.00000000000E+00  0.00000000000E+00  0.93491483323E+03  0.93491483323E+03  0.00000000000E+00 0. -1.
         -2   -1    0    0    0  501 -0.00000000000E+00 -0.00000000000E+00 -0.38222910738E+03  0.38222910738E+03  0.00000000000E+00 0.  1.
         23    2    1    2    0    0  0.21216631166E+03  0.82795591126E+02  0.23407467880E+03  0.33888535157E+03  0.90458125888E+02 0.  0.
        254    2    1    2    0    0 -0.21216631166E+03 -0.82795591126E+02  0.31861104705E+03  0.97825858905E+03  0.89644141695E+03 0.  0.
         24    2    4    4    0    0  0.23986382932E+03 -0.81473668096E+02 -0.15777553894E+03  0.30867222221E+03  0.78821347789E+02 0.  0.
         13    1    3    3    0    0 -0.76335121002E+01  0.35803529860E+01  0.39395227517E+00  0.84406535815E+01  0.00000000000E+00 0.  1.
        -13    1    3    3    0    0  0.21979982376E+03  0.79215238140E+02  0.23368072653E+03  0.33044469799E+03  0.00000000000E+00 0. -1.
          2    1    5    5  502    0  0.18847527118E+03 -0.62004699233E+02 -0.81121384690E+02  0.21435528831E+03  0.00000000000E+00 0. -1.
          3    1    4    4  503    0 -0.34256050981E+03  0.31578954074E+02  0.28531637111E+03  0.44693440776E+03  0.00000000000E+00 0. -1.
         -4    1    4    4    0  503 -0.10946963117E+03 -0.32900877104E+02  0.19107021488E+03  0.22265195907E+03  0.00000000000E+00 0.  1.
         -1    1    5    5    0  502  0.51388558141E+02 -0.19468968863E+02 -0.76654154248E+02  0.94316933898E+02  0.00000000000E+00 0.  1.
<mgrwt>
<rscale>  0 0.11955780E+04</rscale>
<asrwt>0</asrwt>
<pdfrwt beam="1">  1        2 0.14383305E+00 0.11955780E+04</pdfrwt>
<pdfrwt beam="2">  1       -2 0.58804479E-01 0.11955780E+04</pdfrwt>
<totfact> 0.74115407E+01</totfact>
</mgrwt>
</event>
<event>
11    1  0.2502641E-008  0.2176405E+04  0.7818608E-02  0.8528314E-01
         -2   -1    0    0    0  501 -0.00000000000E+00  0.00000000000E+00  0.14834709827E+04  0.14834709827E+04  0.00000000000E+00 0.  1.
          2   -1    0    0  501    0  0.00000000000E+00 -0.00000000000E+00 -0.79825262654E+03  0.79825262654E+03  0.00000000000E+00 0. -1.
         23    2    1    2    0    0 -0.72600411796E+03  0.42250408066E+03 -0.55952369057E+02  0.84506643167E+03  0.73586200125E+02 0.  0.
        254    2    1    2    0    0  0.72600411796E+03 -0.42250408066E+03  0.74117072523E+03  0.14366571776E+04  0.89947658363E+03 0.  0.
         24    2    4    4    0    0  0.24036234965E+03 -0.56761939454E+03  0.66409234514E+03  0.90957538726E+03  0.79642363478E+02 0.  0.
         11    1    3    3    0    0 -0.56385276346E+02  0.13811102658E+02  0.46780641217E+01  0.58240280127E+02  0.00000000000E+00 0.  1.
        -11    1    3    3    0    0 -0.66961884162E+03  0.40869297801E+03 -0.60630433178E+02  0.78682615154E+03  0.00000000000E+00 0. -1.
          2    1    5    5  502    0  0.56580062939E+02 -0.79801005680E+02  0.13607161181E+03  0.16758576184E+03  0.00000000000E+00 0. -1.
          1    1    4    4  503    0  0.24293135177E+01  0.30872988086E+01  0.19795836217E+02  0.20181875771E+02  0.00000000000E+00 0. -1.
         -2    1    4    4    0  503  0.48321245480E+03  0.14202801507E+03  0.57282543874E+02  0.50689991455E+03  0.00000000000E+00 0.  1.
         -1    1    5    5    0  502  0.18378228671E+03 -0.48781838886E+03  0.52802073332E+03  0.74198962543E+03  0.00000000000E+00 0.  1.
<mgrwt>
<rscale>  0 0.21764049E+04</rscale>
<asrwt>0</asrwt>
<pdfrwt beam="1">  1        2 0.12280810E+00 0.21764049E+04</pdfrwt>
<pdfrwt beam="2">  1       -2 0.22822631E+00 0.21764049E+04</pdfrwt>
<totfact> 0.27741730E+00</totfact>
</mgrwt>
</event>
<event>
11    1  0.2502641E-008  0.3299291E+04  0.7818608E-02  0.8163076E-01
         -2   -1    0    0    0  501 -0.00000000000E+00  0.00000000000E+00  0.85536683648E+03  0.85536683648E+03  0.00000000000E+00 0.  1.
          2   -1    0    0  501    0  0.00000000000E+00 -0.00000000000E+00 -0.31814773664E+04  0.31814773664E+04  0.00000000000E+00 0. -1.
         23    2    1    2    0    0  0.11996877075E+04 -0.48741982535E+03 -0.20632936512E+04  0.24376262988E+04  0.89513127476E+02 0.  0.
        254    2    1    2    0    0 -0.11996877075E+04  0.48741982535E+03 -0.26281687876E+03  0.15992179041E+04  0.90088651420E+03 0.  0.
         24    2    4    4    0    0 -0.94311547828E+03  0.48377866152E+03  0.82449208897E+02  0.10662083467E+04  0.80583917531E+02 0.  0.
         13    1    3    3    0    0  0.67743529233E+03 -0.23067271566E+03 -0.11065804672E+04  0.13178197173E+04  0.00000000000E+00 0. -1.
        -13    1    3    3    0    0  0.52225241513E+03 -0.25674710970E+03 -0.95671318399E+03  0.11198065814E+04  0.00000000000E+00 0.  1.
          2    1    5    5  502    0 -0.75980606585E+03  0.40028252233E+03  0.36320248443E+02  0.85956414294E+03  0.00000000000E+00 0. -1.
          3    1    4    4  503    0  0.11197451685E+02  0.14598668007E+01 -0.24778095814E+03  0.24803813689E+03  0.00000000000E+00 0. -1.
         -4    1    4    4    0  503 -0.26776968087E+03  0.21812970311E+01 -0.97485129517E+02  0.28497142054E+03  0.00000000000E+00 0.  1.
         -1    1    5    5    0  502 -0.18330941242E+03  0.83496139193E+02  0.46128960453E+02  0.20664420373E+03  0.00000000000E+00 0.  1.
<mgrwt>
<rscale>  0 0.32992910E+04</rscale>
<asrwt>0</asrwt>
<pdfrwt beam="1">  1        2 0.48945806E+00 0.32992910E+04</pdfrwt>
<pdfrwt beam="2">  1       -2 0.13159490E+00 0.32992910E+04</pdfrwt>
<totfact> 0.46846885E-01</totfact>
</mgrwt>
</event>
<event>
12    1  0.2502641E-008  0.2062869E+04  0.7818608E-02  0.8577778E-01
          2   -1    0    0  501    0  0.00000000000E+00  0.00000000000E+00  0.12498477534E+04  0.12498477534E+04  0.00000000000E+00 0. -1.
         -2   -1    0    0    0  501 -0.00000000000E+00 -0.00000000000E+00 -0.85118966559E+03  0.85118966559E+03  0.00000000000E+00 0.  1.
         23    2    1    2    0    0 -0.21748264777E+03  0.37966072433E+03 -0.56604412378E+03  0.72138096683E+03  0.92431496573E+02 0.  0.
        254    2    1    2    0    0  0.21748264777E+03 -0.37966072433E+03  0.96470221156E+03  0.13796564521E+04  0.88394603980E+03 0.  0.
        -24    2    4    4    0    0  0.20245337423E+03 -0.63658285698E+03  0.85756550490E+03  0.10887318096E+04  0.60772161372E+02 0.  0.
         24    2    4    4    0    0  0.15029273542E+02  0.25692213265E+03  0.10713670666E+03  0.29092464250E+03  0.83210650687E+02 0.  0.
         11    1    3    3    0    0 -0.62148355156E+02  0.66732762087E+02 -0.17264397754E+03  0.19524759298E+03  0.00000000000E+00 0. -1.
        -11    1    3    3    0    0 -0.15533429262E+03  0.31292796224E+03 -0.39340014624E+03  0.52613337385E+03  0.00000000000E+00 0.  1.
          4    1    6    6  502    0 -0.33473571853E+01  0.16470705123E+02  0.35627550868E+02  0.39393036291E+02  0.00000000000E+00 0. -1.
          1    1    5    5  503    0  0.10680285056E+02 -0.77056617275E+01  0.19880698810E+02  0.23847177961E+02  0.00000000000E+00 0. -1.
         -2    1    5    5    0  503  0.19177308917E+03 -0.62887719525E+03  0.83768480609E+03  0.10648846317E+04  0.00000000000E+00 0.  1.
         -3    1    6    6    0  502  0.18376630728E+02  0.24045142753E+03  0.71509155789E+02  0.25153160621E+03  0.00000000000E+00 0.  1.
<mgrwt>
<rscale>  0 0.20628694E+04</rscale>
<asrwt>0</asrwt>
<pdfrwt beam="1">  1        2 0.19228427E+00 0.20628694E+04</pdfrwt>
<pdfrwt beam="2">  1       -2 0.13095226E+00 0.20628694E+04</pdfrwt>
<totfact> 0.69728503E+00</totfact>
</mgrwt>
</event>
<event>
12    1  0.2502641E-008  0.1490639E+04  0.7818608E-02  0.8890702E-01
          2   -1    0    0  501    0  0.00000000000E+00  0.00000000000E+00  0.40957353365E+04  0.40957353365E+04  0.00000000000E+00 0. -1.
         -2   -1    0    0    0  501 -0.00000000000E+00 -0.00000000000E+00 -0.13562921145E+03  0.13562921145E+03  0.00000000000E+00 0.  1.
         23    2    1    2    0    0  0.24122882749E+02 -0.11211977147E+03  0.25202332875E+04  0.25244994221E+04  0.91480884640E+02 0.  0.
        254    2    1    2    0    0 -0.24122882749E+02  0.11211977147E+03  0.14398728376E+04  0.17068651258E+04  0.90939651024E+03 0.  0.
        -24    2    4    4    0    0  0.25968485020E+03  0.26628640101E+03  0.21807104129E+03  0.44056680908E+03  0.90550899624E+02 0.  0.
         24    2    4    4    0    0 -0.28380773295E+03 -0.15416662954E+03  0.12218017963E+04  0.12662983168E+04  0.79985115655E+02 0.  0.
         11    1    3    3    0    0  0.40305179411E+02 -0.37440689567E+02  0.16503096513E+04  0.16512262891E+04  0.00000000000E+00 0. -1.
        -11    1    3    3    0    0 -0.16182296662E+02 -0.74679081901E+02  0.86992363622E+03  0.87327313302E+03  0.00000000000E+00 0.  1.
          4    1    6    6  502    0 -0.37025811671E+02 -0.64347730387E+01  0.25059324292E+03  0.25339552172E+03  0.00000000000E+00 0. -1.
          1    1    5    5  503    0  0.33414923320E+02  0.33537780623E+02 -0.36190955354E+01  0.47480919137E+02  0.00000000000E+00 0. -1.
         -2    1    5    5    0  503  0.22626992688E+03  0.23274862039E+03  0.22169013683E+03  0.39308588994E+03  0.00000000000E+00 0.  1.
         -3    1    6    6    0  502 -0.24678192128E+03 -0.14773185650E+03  0.97120855335E+03  0.10129027950E+04  0.00000000000E+00 0.  1.
<mgrwt>
<rscale>  0 0.14906393E+04</rscale>
<asrwt>0</asrwt>
<pdfrwt beam="1">  1        2 0.63011304E+00 0.14906393E+04</pdfrwt>
<pdfrwt beam="2">  1       -2 0.20866036E-01 0.14906393E+04</pdfrwt>
<totfact> 0.56177178E+00</totfact>
</mgrwt>
</event>
<event>
12    1  0.2502641E-008  0.2197418E+04  0.7818608E-02  0.8519503E-01
          1   -1    0    0  501    0  0.00000000000E+00  0.00000000000E+00  0.14466165596E+04  0.14466165596E+04  0.00000000000E+00 0. -1.
         -1   -1    0    0    0  501 -0.00000000000E+00 -0.00000000000E+00 -0.83447249331E+03  0.83447249331E+03  0.00000000000E+00 0.  1.
         23    2    1    2    0    0  0.50752722120E+03 -0.20624129764E+03  0.10221944853E+04  0.11634210190E+04  0.92452952840E+02 0.  0.
        254    2    1    2    0    0 -0.50752722120E+03  0.20624129764E+03 -0.41005041907E+03  0.11176680339E+04  0.88369742258E+03 0.  0.
        -24    2    4    4    0    0 -0.29629881754E+03  0.28680990687E+03  0.19460106998E+03  0.46716414896E+03  0.10158668062E+03 0.  0.
         24    2    4    4    0    0 -0.21122840366E+03 -0.80568609234E+02 -0.60465148905E+03  0.65050388492E+03  0.80269183229E+02 0.  0.
         11    1    3    3    0    0  0.14016935526E+03 -0.14746689790E+02  0.27809900557E+03  0.31177551204E+03  0.00000000000E+00 0.  1.
        -11    1    3    3    0    0  0.36735786595E+03 -0.19149460785E+03  0.74409547975E+03  0.85164550694E+03  0.00000000000E+00 0. -1.
          4    1    6    6  502    0 -0.39976716050E+01 -0.17702989493E+02 -0.19861098260E+02  0.26904282918E+02  0.00000000000E+00 0. -1.
          3    1    5    5  503    0 -0.23391636532E+03  0.16995687926E+03  0.10674757058E+03  0.30821623999E+03  0.00000000000E+00 0. -1.
         -4    1    5    5    0  503 -0.62382452227E+02  0.11685302762E+03  0.87853499407E+02  0.15894790897E+03  0.00000000000E+00 0.  1.
         -3    1    6    6    0  502 -0.20723073205E+03 -0.62865619741E+02 -0.58479039079E+03  0.62359960200E+03  0.00000000000E+00 0.  1.
<mgrwt>
<rscale>  0 0.21974182E+04</rscale>
<asrwt>0</asrwt>
<pdfrwt beam="1">  1        1 0.22255639E+00 0.21974182E+04</pdfrwt>
<pdfrwt beam="2">  1       -1 0.12838038E+00 0.21974182E+04</pdfrwt>
<totfact> 0.34016972E+00</totfact>
</mgrwt>
</event>
<event>
11    1  0.2502641E-008  0.1949886E+04  0.7818608E-02  0.8630416E-01
         -1   -1    0    0    0  501 -0.00000000000E+00  0.00000000000E+00  0.16874173993E+04  0.16874173993E+04  0.00000000000E+00 0.  1.
          1   -1    0    0  501    0  0.00000000000E+00 -0.00000000000E+00 -0.56329503609E+03  0.56329503609E+03  0.00000000000E+00 0. -1.
         23    2    1    2    0    0  0.72132903503E+02 -0.69392701902E+03  0.81336578367E+03  0.10754835910E+04  0.91450494321E+02 0.  0.
        254    2    1    2    0    0 -0.72132903503E+02  0.69392701902E+03  0.31075657955E+03  0.11752288444E+04  0.89322747468E+03 0.  0.
         24    2    4    4    0    0 -0.11735408324E+03 -0.18300142690E+03  0.12023818235E+03  0.26112029014E+03  0.80405735658E+02 0.  0.
         13    1    3    3    0    0  0.62218313205E+02 -0.67296528089E+03  0.75845586780E+03  0.10158782856E+04  0.00000000000E+00 0.  1.
        -13    1    3    3    0    0  0.99145902975E+01 -0.20961738136E+02  0.54909915871E+02  0.59605305363E+02  0.00000000000E+00 0. -1.
          4    1    5    5  502    0 -0.81690918667E+02 -0.87604148453E+02  0.26448070074E+02  0.12266781742E+03  0.00000000000E+00 0. -1.
          3    1    4    4  503    0  0.29408196833E+02  0.33171679902E+03  0.15553015080E+03  0.36754660195E+03  0.00000000000E+00 0. -1.
         -4    1    4    4    0  503  0.15812982901E+02  0.54521164691E+03  0.34988246403E+02  0.54656195233E+03  0.00000000000E+00 0.  1.
         -1    1    5    5    0  502 -0.35663164570E+02 -0.95397278451E+02  0.93790112273E+02  0.13845247272E+03  0.00000000000E+00 0.  1.
<mgrwt>
<rscale>  0 0.19498860E+04</rscale>
<asrwt>0</asrwt>
<pdfrwt beam="1">  1        1 0.86660775E-01 0.19498860E+04</pdfrwt>
<pdfrwt beam="2">  1       -1 0.25960267E+00 0.19498860E+04</pdfrwt>
<totfact> 0.21088912E+00</totfact>
</mgrwt>
</event>
<event>
12    1  0.2502641E-008  0.2687925E+04  0.7818608E-02  0.8338933E-01
         -2   -1    0    0    0  501 -0.00000000000E+00  0.00000000000E+00  0.16887691604E+04  0.16887691604E+04  0.00000000000E+00 0. -1.
          2   -1    0    0  501    0  0.00000000000E+00 -0.00000000000E+00 -0.10695574859E+04  0.10695574859E+04  0.00000000000E+00 0.  1.
         23    2    1    2    0    0  0.12664102480E+03  0.48359148363E+03  0.13927275943E+04  0.14826623076E+04  0.93266791193E+02 0.  0.
        254    2    1    2    0    0 -0.12664102480E+03 -0.48359148363E+03 -0.77351591979E+03  0.12756643388E+04  0.88266299052E+03 0.  0.
        -24    2    4    4    0    0  0.28699100288E+03 -0.11588148472E+03  0.57121692408E+01  0.31663027274E+03  0.66556340817E+02 0.  0.
         24    2    4    4    0    0 -0.41363202768E+03 -0.36770999891E+03 -0.77922808903E+03  0.95903406603E+03  0.79043199908E+02 0.  0.
         11    1    3    3    0    0  0.66782622467E+02  0.33082793456E+03  0.10454391618E+04  0.10985672861E+04  0.00000000000E+00 0. -1.
        -11    1    3    3    0    0  0.59858402337E+02  0.15276354907E+03  0.34728843245E+03  0.38409502154E+03  0.00000000000E+00 0.  1.
          4    1    6    6  502    0 -0.99130204481E+02 -0.80050350656E+02 -0.12705086963E+03  0.17993548720E+03  0.00000000000E+00 0. -1.
          3    1    5    5  503    0  0.15204584768E+03 -0.39956076554E+02  0.29569411079E+02  0.15996492716E+03  0.00000000000E+00 0. -1.
         -4    1    5    5    0  503  0.13494515520E+03 -0.75925408162E+02 -0.23857241839E+02  0.15666534558E+03  0.00000000000E+00 0.  1.
         -3    1    6    6    0  502 -0.31450182320E+03 -0.28765964825E+03 -0.65217721940E+03  0.77909857883E+03  0.00000000000E+00 0.  1.
<mgrwt>
<rscale>  0 0.26879254E+04</rscale>
<asrwt>0</asrwt>
<pdfrwt beam="1">  1        2 0.16454730E+00 0.26879254E+04</pdfrwt>
<pdfrwt beam="2">  1       -2 0.25981064E+00 0.26879254E+04</pdfrwt>
<totfact> 0.11178665E+00</totfact>
</mgrwt>
</event>
<event>
11    1  0.2502641E-008  0.2432763E+04  0.7818608E-02  0.8427338E-01
          2   -1    0    0  501    0  0.00000000000E+00  0.00000000000E+00  0.25960967659E+04  0.25960967659E+04  0.00000000000E+00 0.  1.
         -2   -1    0    0    0  501 -0.00000000000E+00 -0.00000000000E+00 -0.56992640764E+03  0.56992640764E+03  0.00000000000E+00 0. -1.
         23    2    1    2    0    0  0.70135403166E+03  0.44805414358E+03  0.41087343202E+02  0.83816783925E+03  0.90482946868E+02 0.  0.
        254    2    1    2    0    0 -0.70135403166E+03 -0.44805414358E+03  0.19850830151E+04  0.23278553343E+04  0.88640052316E+03 0.  0.
         24    2    4    4    0    0 -0.42820346250E+03 -0.33768387077E+03  0.19046015697E+04  0.19828111796E+04  0.81513389903E+02 0.  0.
         13    1    3    3    0    0  0.13713741206E+03  0.80404475346E+02 -0.27218300584E+02  0.16128355567E+03  0.00000000000E+00 0. -1.
        -13    1    3    3    0    0  0.56421661960E+03  0.36764966823E+03  0.68305643786E+02  0.67688428358E+03  0.00000000000E+00 0.  1.
          4    1    5    5  502    0 -0.18427900241E+03 -0.13815126650E+03  0.95077227069E+03  0.97827012316E+03  0.00000000000E+00 0. -1.
          3    1    4    4  503    0 -0.25493152490E+03 -0.13837452865E+03  0.40400034386E+02  0.29286473899E+03  0.00000000000E+00 0. -1.
         -4    1    4    4    0  503 -0.18219044258E+02  0.28004255840E+02  0.40081410987E+02  0.52179415726E+02  0.00000000000E+00 0.  1.
         -3    1    5    5    0  502 -0.24392446009E+03 -0.19953260427E+03  0.95382929904E+03  0.10045410565E+04  0.00000000000E+00 0.  1.
<mgrwt>
<rscale>  0 0.24327631E+04</rscale>
<asrwt>0</asrwt>
<pdfrwt beam="1">  1        2 0.39939950E+00 0.24327631E+04</pdfrwt>
<pdfrwt beam="2">  1       -2 0.87680987E-01 0.24327631E+04</pdfrwt>
<totfact> 0.30788938E+00</totfact>
</mgrwt>
</event>
<event>
12    1  0.2502641E-008  0.1532880E+04  0.7818608E-02  0.8862878E-01
          2   -1    0    0  501    0  0.00000000000E+00  0.00000000000E+00  0.80737972571E+03  0.80737972571E+03  0.00000000000E+00 0.  1.
         -2   -1    0    0    0  501 -0.00000000000E+00 -0.00000000000E+00 -0.72757638489E+03  0.72757638489E+03  0.00000000000E+00 0. -1.
         23    2    1    2    0    0  0.46341068671E+03  0.13527695522E+03 -0.10169182867E+03  0.50170570367E+03  0.91203431463E+02 0.  0.
        254    2    1    2    0    0 -0.46341068671E+03 -0.13527695522E+03  0.18149516949E+03  0.10332504069E+04  0.89533043493E+03 0.  0.
        -24    2    4    4    0    0  0.17419174815E+03  0.20213289470E+03  0.10224047034E+03  0.30309571149E+03  0.10106148774E+03 0.  0.
         24    2    4    4    0    0 -0.63760243486E+03 -0.33740984993E+03  0.79254699154E+02  0.73015469544E+03  0.80388433085E+02 0.  0.
         13    1    3    3    0    0  0.26113693947E+03  0.77700007209E+02 -0.10333748259E+03  0.29139050702E+03  0.00000000000E+00 0.  1.
        -13    1    3    3    0    0  0.20227374724E+03  0.57576948012E+02  0.16456539195E+01  0.21031519665E+03  0.00000000000E+00 0. -1.
          4    1    6    6  502    0 -0.44414975570E+03 -0.21989541230E+03  0.19202213203E+02  0.49597552644E+03  0.00000000000E+00 0. -1.
          1    1    5    5  503    0  0.43572998474E+02  0.17674479018E+01  0.31088425206E+02  0.53555767662E+02  0.00000000000E+00 0. -1.
         -2    1    5    5    0  503  0.13061874968E+03  0.20036544680E+03  0.71152045135E+02  0.24953994383E+03  0.00000000000E+00 0.  1.
         -3    1    6    6    0  502 -0.19345267916E+03 -0.11751443763E+03  0.60052485951E+02  0.23417916900E+03  0.00000000000E+00 0.  1.
<mgrwt>
<rscale>  0 0.15328802E+04</rscale>
<asrwt>0</asrwt>
<pdfrwt beam="1">  1        2 0.12421227E+00 0.15328802E+04</pdfrwt>
<pdfrwt beam="2">  1       -2 0.11193483E+00 0.15328802E+04</pdfrwt>
<totfact> 0.20655217E+01</totfact>
</mgrwt>
</event>
<event>
11    1  0.2502641E-008  0.3810320E+04  0.7818608E-02  0.8043944E-01
         -2   -1    0    0    0  501 -0.00000000000E+00  0.00000000000E+00  0.97907005343E+03  0.97907005343E+03  0.00000000000E+00 0. -1.
          2   -1    0    0  501    0  0.00000000000E+00 -0.00000000000E+00 -0.37072263826E+04  0.37072263826E+04  0.00000000000E+00 0.  1.
         23    2    1    2    0    0  0.18017359876E+02  0.11867267080E+04  0.36955634657E+03  0.12465593718E+04  0.93238775790E+02 0.  0.
        254    2    1    2    0    0 -0.18017359876E+02 -0.11867267080E+04 -0.30977126758E+04  0.34397370643E+04  0.90957261674E+03 0.  0.
         24    2    4    4    0    0 -0.30689829305E+03 -0.11226053034E+04 -0.23727940960E+04  0.26440403274E+04  0.79801012377E+02 0.  0.
         11    1    3    3    0    0 -0.27133797751E+01  0.93996477112E+02  0.56402442137E+02  0.10965370773E+03  0.00000000000E+00 0.  1.
        -11    1    3    3    0    0  0.20730739652E+02  0.10927302309E+04  0.31315390443E+03  0.11369056640E+04  0.00000000000E+00 0. -1.
          4    1    5    5  502    0 -0.22408295379E+03 -0.74241677374E+03 -0.16504695729E+04  0.18235804471E+04  0.00000000000E+00 0. -1.
          1    1    4    4  503    0  0.28284111898E+03 -0.76998414087E+02 -0.57792191734E+03  0.64801357771E+03  0.00000000000E+00 0. -1.
         -2    1    4    4    0  503  0.60398141930E+01  0.12877009503E+02 -0.14699666245E+03  0.14768315916E+03  0.00000000000E+00 0.  1.
         -3    1    5    5    0  502 -0.82815339260E+02 -0.38018852967E+03 -0.72232452307E+03  0.82045988028E+03  0.00000000000E+00 0.  1.
<mgrwt>
<rscale>  0 0.38103198E+04</rscale>
<asrwt>0</asrwt>
<pdfrwt beam="1">  1        2 0.57034253E+00 0.38103198E+04</pdfrwt>
<pdfrwt beam="2">  1       -2 0.15062616E+00 0.38103198E+04</pdfrwt>
<totfact> 0.13654578E-01</totfact>
</mgrwt>
</event>
<event>
12    1  0.2502641E-008  0.3007251E+04  0.7818608E-02  0.8241663E-01
          1   -1    0    0  501    0  0.00000000000E+00  0.00000000000E+00  0.28431932116E+04  0.28431932116E+04  0.00000000000E+00 0. -1.
         -1   -1    0    0    0  501 -0.00000000000E+00 -0.00000000000E+00 -0.79519371522E+03  0.79519371522E+03  0.00000000000E+00 0.  1.
         23    2    1    2    0    0 -0.17071122318E+03 -0.56348110796E+03  0.24235511725E+04  0.24957130990E+04  0.91270511295E+02 0.  0.
        254    2    1    2    0    0  0.17071122318E+03  0.56348110796E+03 -0.37555167609E+03  0.11426738278E+04  0.90443967992E+03 0.  0.
        -24    2    4    4    0    0  0.48991834386E+02  0.76704657315E+03 -0.11232120832E+03  0.77980549134E+03  0.68701566703E+02 0.  0.
         24    2    4    4    0    0  0.12171938880E+03 -0.20356546518E+03 -0.26323046777E+03  0.36286833648E+03  0.78285645131E+02 0.  0.
         13    1    3    3    0    0 -0.48152897366E+01 -0.51911655109E+02  0.13249903329E+03  0.14238679986E+03  0.00000000000E+00 0.  1.
        -13    1    3    3    0    0 -0.16589593345E+03 -0.51156945285E+03  0.22910521392E+04  0.23533262991E+04  0.00000000000E+00 0. -1.
          4    1    6    6  502    0  0.11497118127E+03 -0.13576519762E+03 -0.21663767335E+03  0.28032560162E+03  0.00000000000E+00 0. -1.
          1    1    5    5  503    0  0.26020120446E+02  0.56735570504E+03 -0.54030233621E+02  0.57051626519E+03  0.00000000000E+00 0. -1.
         -2    1    5    5    0  503  0.22971713940E+02  0.19969086811E+03 -0.58290974701E+02  0.20928922614E+03  0.00000000000E+00 0.  1.
         -3    1    6    6    0  502  0.67482075266E+01 -0.67800267568E+02 -0.46592794413E+02  0.82542734860E+02  0.00000000000E+00 0.  1.
<mgrwt>
<rscale>  0 0.30072508E+04</rscale>
<asrwt>0</asrwt>
<pdfrwt beam="1">  1        1 0.43741434E+00 0.30072508E+04</pdfrwt>
<pdfrwt beam="2">  1       -1 0.12233750E+00 0.30072508E+04</pdfrwt>
<totfact> 0.38946793E-01</totfact>
</mgrwt>
</event>
<event>
11    1  0.2502641E-008  0.2183271E+04  0.7818608E-02  0.8525423E-01
         -2   -1    0    0    0  501 -0.00000000000E+00  0.00000000000E+00  0.79935235257E+03  0.79935235257E+03  0.00000000000E+00 0.  1.
          2   -1    0    0  501    0  0.00000000000E+00 -0.00000000000E+00 -0.14907925756E+04  0.14907925756E+04  0.00000000000E+00 0. -1.
         23    2    1    2    0    0 -0.73400222100E+03 -0.47354591498E+03 -0.95475174386E+02  0.88095933963E+03  0.62998850144E+02 0.  0.
        254    2    1    2    0    0  0.73400222100E+03  0.47354591498E+03 -0.59596504866E+03  0.14091855886E+04  0.93146373507E+03 0.  0.
         24    2    4    4    0    0  0.46559286199E+03  0.24402152782E+03  0.98677640541E+02  0.54168493753E+03  0.85802538636E+02 0.  0.
         11    1    3    3    0    0 -0.10060115037E+03 -0.91536574119E+02 -0.19049643804E+02  0.13734054313E+03  0.00000000000E+00 0. -1.
        -11    1    3    3    0    0 -0.63340107063E+03 -0.38200934086E+03 -0.76425530581E+02  0.74361879650E+03  0.00000000000E+00 0.  1.
          2    1    5    5  502    0  0.12672664005E+03  0.48590002271E+02 -0.87957162681E+01  0.13600733159E+03  0.00000000000E+00 0. -1.
          3    1    4    4  503    0 -0.41646899469E+02  0.15671871140E+03 -0.93454000508E+02  0.18716000895E+03  0.00000000000E+00 0. -1.
         -4    1    4    4    0  503  0.31005625849E+03  0.72805675763E+02 -0.60118868870E+03  0.68034064208E+03  0.00000000000E+00 0.  1.
         -1    1    5    5    0  502  0.33886622193E+03  0.19543152555E+03  0.10747335681E+03  0.40567760595E+03  0.00000000000E+00 0.  1.
<mgrwt>
<rscale>  0 0.21832714E+04</rscale>
<asrwt>0</asrwt>
<pdfrwt beam="1">  1        2 0.22935270E+00 0.21832714E+04</pdfrwt>
<pdfrwt beam="2">  1       -2 0.12297729E+00 0.21832714E+04</pdfrwt>
<totfact> 0.58745227E+00</totfact>
</mgrwt>
</event>
<event>
12    1  0.2502641E-008  0.1849379E+04  0.7818608E-02  0.8680472E-01
         -2   -1    0    0    0  501 -0.00000000000E+00  0.00000000000E+00  0.35778730717E+03  0.35778730717E+03  0.00000000000E+00 0.  1.
          2   -1    0    0  501    0  0.00000000000E+00 -0.00000000000E+00 -0.23898286454E+04  0.23898286454E+04  0.00000000000E+00 0. -1.
         23    2    1    2    0    0 -0.34436769911E+03  0.47184473981E+03 -0.19215419065E+03  0.62169439580E+03  0.91400864941E+02 0.  0.
        254    2    1    2    0    0  0.34436769911E+03 -0.47184473981E+03 -0.18398871476E+04  0.21259215568E+04  0.89057912564E+03 0.  0.
        -24    2    4    4    0    0  0.32421675447E+03 -0.49721504173E+03 -0.19181789735E+04  0.20100975569E+04  0.93500334772E+02 0.  0.
         24    2    4    4    0    0  0.20150944642E+02  0.25370301918E+02  0.78291825892E+02  0.11582399982E+03  0.78967563865E+02 0.  0.
         11    1    3    3    0    0 -0.55168782700E+01  0.30607409127E+02 -0.27469957472E+02  0.41495156378E+02  0.00000000000E+00 0. -1.
        -11    1    3    3    0    0 -0.33885082084E+03  0.44123733068E+03 -0.16468423318E+03  0.58019923942E+03  0.00000000000E+00 0.  1.
          2    1    6    6  502    0  0.24872852610E+02  0.14711884134E+02  0.92809920424E+02  0.97204833526E+02  0.00000000000E+00 0. -1.
          3    1    5    5  503    0  0.15724190685E+03 -0.28889064606E+03 -0.11858896701E+04  0.12306571953E+04  0.00000000000E+00 0. -1.
         -4    1    5    5    0  503  0.16697484761E+03 -0.20832439567E+03 -0.73228930331E+03  0.77944036161E+03  0.00000000000E+00 0.  1.
         -1    1    6    6    0  502 -0.47219079679E+01  0.10658417784E+02 -0.14518094532E+02  0.18619166291E+02  0.00000000000E+00 0.  1.
<mgrwt>
<rscale>  0 0.18493787E+04</rscale>
<asrwt>0</asrwt>
<pdfrwt beam="1">  1        2 0.36766595E+00 0.18493787E+04</pdfrwt>
<pdfrwt beam="2">  1       -2 0.55044200E-01 0.18493787E+04</pdfrwt>
<totfact> 0.11767376E+01</totfact>
</mgrwt>
</event>
<event>
11    1  0.2502641E-008  0.1320169E+04  0.7818608E-02  0.9013722E-01
          2   -1    0    0  501    0  0.00000000000E+00  0.00000000000E+00  0.41423079223E+04  0.41423079223E+04  0.00000000000E+00 0. -1.
         -2   -1    0    0    0  501 -0.00000000000E+00 -0.00000000000E+00 -0.10518573135E+03  0.10518573135E+03  0.00000000000E+00 0.  1.
         23    2    1    2    0    0 -0.39361246005E+02  0.89913149647E+02  0.21603203573E+04  0.21644496491E+04  0.90689333877E+02 0.  0.
        254    2    1    2    0    0  0.39361246005E+02 -0.89913149647E+02  0.18768018336E+04  0.20830440045E+04  0.89836157520E+03 0.  0.
         24    2    4    4    0    0  0.36402850090E+03 -0.20420992391E+03  0.53985327669E+03  0.68737046315E+03  0.82572094352E+02 0.  0.
         13    1    3    3    0    0  0.86312900590E+01  0.25829368356E+02  0.13298795096E+04  0.13301583235E+04  0.00000000000E+00 0. -1.
        -13    1    3    3    0    0 -0.47992536064E+02  0.64083781291E+02  0.83044084769E+03  0.83429132565E+03  0.00000000000E+00 0.  1.
          2    1    5    5  502    0  0.73873280700E+02 -0.60617980079E+01  0.92922710655E+02  0.11886394387E+03  0.00000000000E+00 0. -1.
          1    1    4    4  503    0  0.22759677202E+01 -0.22142373007E+01  0.34035974624E+03  0.34037455801E+03  0.00000000000E+00 0. -1.
         -2    1    4    4    0  503 -0.32694322262E+03  0.11651101157E+03  0.99658881065E+03  0.10552989833E+04  0.00000000000E+00 0.  1.
         -1    1    5    5    0  502  0.29015522020E+03 -0.19814812591E+03  0.44693056604E+03  0.56850651928E+03  0.00000000000E+00 0.  1.
<mgrwt>
<rscale>  0 0.13201692E+04</rscale>
<asrwt>0</asrwt>
<pdfrwt beam="1">  1        2 0.63727802E+00 0.13201692E+04</pdfrwt>
<pdfrwt beam="2">  1       -2 0.16182423E-01 0.13201692E+04</pdfrwt>
<totfact> 0.81651987E+00</totfact>
</mgrwt>
</event>
<event>
12    1  0.2502641E-008  0.1348180E+04  0.7818608E-02  0.8992207E-01
         -1   -1    0    0    0  501 -0.00000000000E+00  0.00000000000E+00  0.31221933806E+03  0.31221933806E+03  0.00000000000E+00 0.  1.
          1   -1    0    0  501    0  0.00000000000E+00 -0.00000000000E+00 -0.14553786223E+04  0.14553786223E+04  0.00000000000E+00 0. -1.
         23    2    1    2    0    0  0.31933928888E+02  0.33795670906E+03 -0.52796926429E+03  0.63438747720E+03  0.91985945541E+02 0.  0.
        254    2    1    2    0    0 -0.31933928888E+02 -0.33795670906E+03 -0.61519001995E+03  0.11332104832E+04  0.88908533084E+03 0.  0.
        -24    2    4    4    0    0 -0.42109201911E+03 -0.39736811484E+02 -0.40214146906E+03  0.59289193573E+03  0.10442980214E+03 0.  0.
         24    2    4    4    0    0  0.38915809022E+03 -0.29821989758E+03 -0.21304855090E+03  0.54031854744E+03  0.78583211806E+02 0.  0.
         13    1    3    3    0    0  0.35595663100E+02  0.20004478973E+03 -0.38726682557E+03  0.43733346924E+03  0.00000000000E+00 0. -1.
        -13    1    3    3    0    0 -0.36617342119E+01  0.13791191933E+03 -0.14070243872E+03  0.19705400796E+03  0.00000000000E+00 0.  1.
          4    1    6    6  502    0  0.14975934246E+03 -0.16221962037E+03 -0.10602888851E+03  0.24491874384E+03  0.00000000000E+00 0. -1.
          1    1    5    5  503    0 -0.41389775717E+03 -0.49707283539E+02 -0.40393093148E+03  0.58046736759E+03  0.00000000000E+00 0. -1.
         -2    1    5    5    0  503 -0.71942619383E+01  0.99704720550E+01  0.17894624203E+01  0.12424568145E+02  0.00000000000E+00 0.  1.
         -3    1    6    6    0  502  0.23939874776E+03 -0.13600027721E+03 -0.10701966239E+03  0.29539980360E+03  0.00000000000E+00 0.  1.
<mgrwt>
<rscale>  0 0.13481800E+04</rscale>
<asrwt>0</asrwt>
<pdfrwt beam="1">  1        1 0.22390441E+00 0.13481800E+04</pdfrwt>
<pdfrwt beam="2">  1       -1 0.48033743E-01 0.13481800E+04</pdfrwt>
<totfact> 0.29792528E+01</totfact>
</mgrwt>
</event>
<event>
12    1  0.2502641E-008  0.1640924E+04  0.7818608E-02  0.8795794E-01
         -2   -1    0    0    0  501 -0.00000000000E+00  0.00000000000E+00  0.34634513819E+03  0.34634513819E+03  0.00000000000E+00 0.  1.
          2   -1    0    0  501    0  0.00000000000E+00 -0.00000000000E+00 -0.19436051476E+04  0.19436051476E+04  0.00000000000E+00 0. -1.
         23    2    1    2    0    0 -0.18737585141E+03  0.45256692914E+03 -0.56800825282E+03  0.75498715311E+03  0.86288417847E+02 0.  0.
        254    2    1    2    0    0  0.18737585141E+03 -0.45256692914E+03 -0.10292517566E+04  0.15349631327E+04  0.10280204790E+04 0.  0.
        -24    2    4    4    0    0  0.34046525476E+03 -0.72971479416E+03 -0.67105379032E+03  0.10502827892E+04  0.66185174139E+02 0.  0.
         24    2    4    4    0    0 -0.15308940335E+03  0.27714786502E+03 -0.35819796627E+03  0.48468034347E+03  0.79761819221E+02 0.  0.
         11    1    3    3    0    0 -0.14947032123E+03  0.35455362879E+03 -0.49532268240E+03  0.62721145742E+03  0.00000000000E+00 0. -1.
        -11    1    3    3    0    0 -0.37905530175E+02  0.98013300347E+02 -0.72685570419E+02  0.12777569569E+03  0.00000000000E+00 0.  1.
          2    1    6    6  502    0 -0.11098008752E+03  0.24511747842E+03 -0.32618321473E+03  0.42284116123E+03  0.00000000000E+00 0. -1.
          3    1    5    5  503    0  0.24888281628E+03 -0.59595330772E+03 -0.53771527825E+03  0.84038129541E+03  0.00000000000E+00 0. -1.
         -4    1    5    5    0  503  0.91582438474E+02 -0.13376148644E+03 -0.13333851207E+03  0.20990149378E+03  0.00000000000E+00 0.  1.
         -1    1    6    6    0  502 -0.42109315824E+02  0.32030386595E+02 -0.32014751542E+02  0.61839182246E+02  0.00000000000E+00 0.  1.
<mgrwt>
<rscale>  0 0.16409244E+04</rscale>
<asrwt>0</asrwt>
<pdfrwt beam="1">  1        2 0.29901617E+00 0.16409244E+04</pdfrwt>
<pdfrwt beam="2">  1       -2 0.53283868E-01 0.16409244E+04</pdfrwt>
<totfact> 0.22796267E+01</totfact>
</mgrwt>
</event>
<event>
12    1  0.2502641E-008  0.1382614E+04  0.7818608E-02  0.8966500E-01
         -1   -1    0    0    0  501 -0.00000000000E+00  0.00000000000E+00  0.76614964950E+03  0.76614964950E+03  0.00000000000E+00 0.  1.
          1   -1    0    0  501    0  0.00000000000E+00 -0.00000000000E+00 -0.62377561381E+03  0.62377561381E+03  0.00000000000E+00 0. -1.
         23    2    1    2    0    0  0.21003275576E+03 -0.17054443931E+02 -0.29884384802E+03  0.37664730759E+03  0.90282535774E+02 0.  0.
        254    2    1    2    0    0 -0.21003275576E+03  0.17054443931E+02  0.44121788371E+03  0.10132779557E+04  0.88749894765E+03 0.  0.
        -24    2    4    4    0    0 -0.33000923203E+03 -0.35973356706E+03  0.31871642935E+03  0.59188350400E+03  0.10213514320E+03 0.  0.
         24    2    4    4    0    0  0.11997647627E+03  0.37678801100E+03  0.12250145436E+03  0.42139445171E+03  0.78759872562E+02 0.  0.
         11    1    3    3    0    0  0.29778762690E+01  0.18862873340E+02 -0.25682094830E+02  0.32003839341E+02  0.00000000000E+00 0.  1.
        -11    1    3    3    0    0  0.20705487949E+03 -0.35917317271E+02 -0.27316175319E+03  0.34464346825E+03  0.00000000000E+00 0. -1.
          4    1    6    6  502    0 -0.10771100493E+02  0.40191527864E+02  0.64577466563E+01  0.42107932860E+02  0.00000000000E+00 0. -1.
          1    1    5    5  503    0 -0.76894925879E+01 -0.23368188697E+00 -0.62193416086E+01  0.98925787097E+01  0.00000000000E+00 0. -1.
         -2    1    5    5    0  503 -0.32231973944E+03 -0.35949988518E+03  0.32493577096E+03  0.58199092529E+03  0.00000000000E+00 0.  1.
         -3    1    6    6    0  502  0.13074757676E+03  0.33659648313E+03  0.11604370770E+03  0.37928651885E+03  0.00000000000E+00 0.  1.
<mgrwt>
<rscale>  0 0.13826141E+04</rscale>
<asrwt>0</asrwt>
<pdfrwt beam="1">  1        1 0.95965479E-01 0.13826141E+04</pdfrwt>
<pdfrwt beam="2">  1       -1 0.11786918E+00 0.13826141E+04</pdfrwt>
<totfact> 0.20445181E+01</totfact>
</mgrwt>
</event>
<event>
11    1  0.2502641E-008  0.3081541E+04  0.7818608E-02  0.8220822E-01
         -1   -1    0    0    0  501 -0.00000000000E+00  0.00000000000E+00  0.74965972678E+03  0.74965972678E+03  0.00000000000E+00 0.  1.
          1   -1    0    0  501    0  0.00000000000E+00 -0.00000000000E+00 -0.31667353147E+04  0.31667353147E+04  0.00000000000E+00 0. -1.
         23    2    1    2    0    0 -0.42737890680E+03 -0.43196930160E+03 -0.27182116233E+04  0.27867087388E+04  0.88436181657E+02 0.  0.
        254    2    1    2    0    0  0.42737890680E+03  0.43196930160E+03  0.30113603535E+03  0.11296863027E+04  0.90346999026E+03 0.  0.
         24    2    4    4    0    0  0.36830150009E+03 -0.13244279928E+03  0.98047218953E+02  0.41179735393E+03  0.82320796330E+02 0.  0.
         11    1    3    3    0    0 -0.96350596863E+01 -0.10521831008E+02 -0.15729176882E+03  0.15793746813E+03  0.00000000000E+00 0.  1.
        -11    1    3    3    0    0 -0.41774384711E+03 -0.42144747059E+03 -0.25609198545E+04  0.26287712706E+04  0.00000000000E+00 0. -1.
          2    1    5    5  502    0  0.58891142550E+02 -0.51750864292E+02  0.35118513146E+02  0.85904764661E+02  0.00000000000E+00 0. -1.
          3    1    4    4  503    0  0.33453941151E+02  0.50417799002E+03  0.81488719377E+00  0.50528732009E+03  0.00000000000E+00 0. -1.
         -2    1    4    4    0  503  0.25623465560E+02  0.60234110855E+02  0.20227392920E+03  0.21260162872E+03  0.00000000000E+00 0.  1.
         -1    1    5    5    0  502  0.30941035754E+03 -0.80691934986E+02  0.62928705807E+02  0.32589258927E+03  0.00000000000E+00 0.  1.
<mgrwt>
<rscale>  0 0.30815411E+04</rscale>
<asrwt>0</asrwt>
<pdfrwt beam="1">  1        1 0.48719004E+00 0.30815411E+04</pdfrwt>
<pdfrwt beam="2">  1       -1 0.11533227E+00 0.30815411E+04</pdfrwt>
<totfact> 0.25911295E-01</totfact>
</mgrwt>
</event>
<event>
11    1  0.2502641E-008  0.1265025E+04  0.7818608E-02  0.9057770E-01
         -2   -1    0    0    0  501 -0.00000000000E+00  0.00000000000E+00  0.23753154820E+03  0.23753154820E+03  0.00000000000E+00 0.  1.
          2   -1    0    0  501    0  0.00000000000E+00 -0.00000000000E+00 -0.16842906101E+04  0.16842906101E+04  0.00000000000E+00 0. -1.
         23    2    1    2    0    0  0.27909746361E+03 -0.53357513031E+02 -0.41435268858E+03  0.51062664280E+03  0.91153713154E+02 0.  0.
        254    2    1    2    0    0 -0.27909746361E+03  0.53357513031E+02 -0.10324063733E+04  0.14111955155E+04  0.91916671223E+03 0.  0.
         24    2    4    4    0    0 -0.87588764497E+02 -0.31644219016E+03 -0.60180649481E+02  0.34345504112E+03  0.80822047258E+02 0.  0.
         13    1    3    3    0    0  0.22963774360E+03 -0.19188853727E+02 -0.27450381679E+03  0.35840486997E+03  0.00000000000E+00 0. -1.
        -13    1    3    3    0    0  0.49459720010E+02 -0.34168659304E+02 -0.13984887179E+03  0.15222177283E+03  0.00000000000E+00 0.  1.
          4    1    5    5  502    0 -0.11883096249E+02 -0.12739726276E+02 -0.22114895063E+02  0.28152747392E+02  0.00000000000E+00 0. -1.
          1    1    4    4  503    0 -0.25569905383E+02  0.43872938206E+02 -0.28267101259E+03  0.28719602387E+03  0.00000000000E+00 0. -1.
         -2    1    4    4    0  503 -0.16593879373E+03  0.32592676498E+03 -0.68955471127E+03  0.78054445052E+03  0.00000000000E+00 0.  1.
         -3    1    5    5    0  502 -0.75705668248E+02 -0.30370246388E+03 -0.38065754418E+02  0.31530229373E+03  0.00000000000E+00 0.  1.
<mgrwt>
<rscale>  0 0.12650251E+04</rscale>
<asrwt>0</asrwt>
<pdfrwt beam="1">  1        2 0.25912164E+00 0.12650251E+04</pdfrwt>
<pdfrwt beam="2">  1       -2 0.36543314E-01 0.12650251E+04</pdfrwt>
<totfact> 0.69305708E+01</totfact>
</mgrwt>
</event>
<event>
12    1  0.2502641E-008  0.2430847E+04  0.7818608E-02  0.8428045E-01
         -1   -1    0    0    0  501 -0.00000000000E+00  0.00000000000E+00  0.11621476347E+04  0.11621476347E+04  0.00000000000E+00 0.  1.
          1   -1    0    0  501    0  0.00000000000E+00 -0.00000000000E+00 -0.12711412948E+04  0.12711412948E+04  0.00000000000E+00 0. -1.
         23    2    1    2    0    0  0.75636985042E+03 -0.68482001908E+03  0.18822154965E+03  0.10422833458E+04  0.99264354430E+02 0.  0.
        254    2    1    2    0    0 -0.75636985042E+03  0.68482001908E+03 -0.29721520972E+03  0.13910055836E+04  0.89748863147E+03 0.  0.
        -24    2    4    4    0    0 -0.14086499361E+03 -0.17435796847E+03 -0.21223041747E+03  0.32783423120E+03  0.11040781428E+03 0.  0.
         24    2    4    4    0    0 -0.61550485681E+03  0.85917798754E+03 -0.84984792248E+02  0.10631713524E+04  0.77960673810E+02 0.  0.
         11    1    3    3    0    0  0.50644643867E+03 -0.43121430440E+03  0.78899315810E+02  0.66982003075E+03  0.00000000000E+00 0.  1.
        -11    1    3    3    0    0  0.24992341175E+03 -0.25360571468E+03  0.10932223384E+03  0.37246331507E+03  0.00000000000E+00 0. -1.
          4    1    6    6  502    0 -0.12939033179E+03  0.13241519072E+03 -0.24153828114E+02  0.18670577952E+03  0.00000000000E+00 0. -1.
          3    1    5    5  503    0 -0.12871269556E+03 -0.75857723084E+02 -0.14313959622E+03  0.20690649134E+03  0.00000000000E+00 0. -1.
         -4    1    5    5    0  503 -0.12152298053E+02 -0.98500245382E+02 -0.69090821247E+02  0.12092773987E+03  0.00000000000E+00 0.  1.
         -3    1    6    6    0  502 -0.48611452502E+03  0.72676279682E+03 -0.60830964134E+02  0.87646557290E+03  0.00000000000E+00 0.  1.
<mgrwt>
<rscale>  0 0.24308466E+04</rscale>
<asrwt>0</asrwt>
<pdfrwt beam="1">  1        1 0.19556020E+00 0.24308466E+04</pdfrwt>
<pdfrwt beam="2">  1       -1 0.17879194E+00 0.24308466E+04</pdfrwt>
<totfact> 0.18004529E+00</totfact>
</mgrwt>
</event>
<event>
11    1  0.2502641E-008  0.1898751E+04  0.7818608E-02  0.8655479E-01
          1   -1    0    0  501    0  0.00000000000E+00  0.00000000000E+00  0.64212674242E+03  0.64212674242E+03  0.00000000000E+00 0. -1.
         -1   -1    0    0    0  501 -0.00000000000E+00 -0.00000000000E+00 -0.14036380299E+04  0.14036380299E+04  0.00000000000E+00 0.  1.
         23    2    1    2    0    0 -0.20068650706E+03 -0.56425286175E+03 -0.75163110992E+03  0.96511912203E+03  0.88595870043E+02 0.  0.
        254    2    1    2    0    0  0.20068650706E+03  0.56425286175E+03 -0.98801775577E+01  0.10806456503E+04  0.89946708527E+03 0.  0.
         24    2    4    4    0    0 -0.17283832093E+03  0.62918132349E+03 -0.14152511518E+02  0.65746196761E+03  0.79458934409E+02 0.  0.
         13    1    3    3    0    0  0.70215785318E+01 -0.54252725162E+02 -0.70011640715E+02  0.88849820417E+02  0.00000000000E+00 0. -1.
        -13    1    3    3    0    0 -0.20770808559E+03 -0.51000013659E+03 -0.68161946921E+03  0.87626930161E+03  0.00000000000E+00 0.  1.
          2    1    5    5  502    0 -0.36725338486E+02  0.27135546961E+03 -0.20213969290E+02  0.27457448157E+03  0.00000000000E+00 0. -1.
          1    1    4    4  503    0  0.30172149462E+03 -0.12426681957E+03  0.26611971561E+02  0.32739318837E+03  0.00000000000E+00 0. -1.
         -2    1    4    4    0  503  0.71803333367E+02  0.59338357832E+02 -0.22339637600E+02  0.95790494314E+02  0.00000000000E+00 0.  1.
         -1    1    5    5    0  502 -0.13611298244E+03  0.35782585388E+03  0.60614577719E+01  0.38288748603E+03  0.00000000000E+00 0.  1.
<mgrwt>
<rscale>  0 0.18987507E+04</rscale>
<asrwt>0</asrwt>
<pdfrwt beam="1">  1        1 0.98788731E-01 0.18987507E+04</pdfrwt>
<pdfrwt beam="2">  1       -1 0.21594431E+00 0.18987507E+04</pdfrwt>
<totfact> 0.33998183E+00</totfact>
</mgrwt>
</event>
<event>
11    1  0.2502641E-008  0.1478531E+04  0.7818608E-02  0.8898856E-01
          2   -1    0    0  501    0  0.00000000000E+00  0.00000000000E+00  0.14147780384E+04  0.14147780384E+04  0.00000000000E+00 0. -1.
         -2   -1    0    0    0  501 -0.00000000000E+00 -0.00000000000E+00 -0.38628917615E+03  0.38628917615E+03  0.00000000000E+00 0.  1.
         23    2    1    2    0    0  0.13266532317E+01  0.40958274862E+03  0.57576422733E+03  0.71208981079E+03  0.88360993587E+02 0.  0.
        254    2    1    2    0    0 -0.13266532317E+01 -0.40958274862E+03  0.45272463496E+03  0.10889774038E+04  0.90174963428E+03 0.  0.
         24    2    4    4    0    0 -0.24671951975E+03 -0.50782634222E+03  0.11863395357E+03  0.58221436989E+03  0.78367354738E+02 0.  0.
         13    1    3    3    0    0 -0.18861866419E+02  0.39056600665E+03  0.54348039470E+03  0.66952857667E+03  0.00000000000E+00 0. -1.
        -13    1    3    3    0    0  0.20188519651E+02  0.19016741972E+02  0.32283832631E+02  0.42561234125E+02  0.00000000000E+00 0.  1.
          4    1    5    5  502    0 -0.16276345535E+03 -0.39648762763E+03  0.68524373561E+02  0.43403913537E+03  0.00000000000E+00 0. -1.
          1    1    4    4  503    0  0.25503702804E+03  0.15012958938E+03  0.34323381488E+03  0.45320219655E+03  0.00000000000E+00 0. -1.
         -2    1    4    4    0  503 -0.96441615301E+01 -0.51885995786E+02 -0.91431334808E+01  0.53560837374E+02  0.00000000000E+00 0.  1.
         -3    1    5    5    0  502 -0.83956064399E+02 -0.11133871458E+03  0.50109580007E+02  0.14817523451E+03  0.00000000000E+00 0.  1.
<mgrwt>
<rscale>  0 0.14785310E+04</rscale>
<asrwt>0</asrwt>
<pdfrwt beam="1">  1        2 0.21765816E+00 0.14785310E+04</pdfrwt>
<pdfrwt beam="2">  1       -2 0.59429105E-01 0.14785310E+04</pdfrwt>
<totfact> 0.36291794E+01</totfact>
</mgrwt>
</event>
<event>
12    1  0.2502641E-008  0.2459553E+04  0.7818608E-02  0.8417538E-01
         -1   -1    0    0    0  501 -0.00000000000E+00  0.00000000000E+00  0.10411635462E+04  0.10411635462E+04  0.00000000000E+00 0.  1.
          1   -1    0    0  501    0  0.00000000000E+00 -0.00000000000E+00 -0.14525582435E+04  0.14525582435E+04  0.00000000000E+00 0. -1.
         23    2    1    2    0    0  0.63946984230E+03  0.59107840418E+03  0.38613085101E+03  0.95573189862E+03  0.77659956464E+02 0.  0.
        254    2    1    2    0    0 -0.63946984230E+03 -0.59107840418E+03 -0.79752554829E+03  0.15379898910E+04  0.98542911747E+03 0.  0.
        -24    2    4    4    0    0 -0.85552415227E+03 -0.27313198889E+03 -0.66874679729E+03  0.11247359141E+04  0.10623530068E+03 0.  0.
         24    2    4    4    0    0  0.21605430997E+03 -0.31794641529E+03 -0.12877875100E+03  0.41325397691E+03  0.80159184573E+02 0.  0.
         11    1    3    3    0    0  0.28455160109E+03  0.24025267438E+03  0.12737474004E+03  0.39359279164E+03  0.00000000000E+00 0. -1.
        -11    1    3    3    0    0  0.35491824121E+03  0.35082572981E+03  0.25875611096E+03  0.56213910698E+03  0.00000000000E+00 0.  1.
          4    1    6    6  502    0  0.38254216683E+02 -0.49928521987E+02  0.86533671803E+01  0.63491126667E+02  0.00000000000E+00 0. -1.
          3    1    5    5  503    0 -0.40236815433E+03 -0.16417070489E+03 -0.37345702041E+03  0.57299415185E+03  0.00000000000E+00 0. -1.
         -4    1    5    5    0  503 -0.45315599794E+03 -0.10896128400E+03 -0.29528977688E+03  0.55174176224E+03  0.00000000000E+00 0.  1.
         -3    1    6    6    0  502  0.17780009328E+03 -0.26801789331E+03 -0.13743211818E+03  0.34976285025E+03  0.00000000000E+00 0.  1.
<mgrwt>
<rscale>  0 0.24595534E+04</rscale>
<asrwt>0</asrwt>
<pdfrwt beam="1">  1        1 0.22347050E+00 0.24595534E+04</pdfrwt>
<pdfrwt beam="2">  1       -1 0.16017901E+00 0.24595534E+04</pdfrwt>
<totfact> 0.18333322E+00</totfact>
</mgrwt>
</event>
<event>
11    1  0.2502641E-008  0.1802940E+04  0.7818608E-02  0.8704738E-01
          2   -1    0    0  501    0  0.00000000000E+00  0.00000000000E+00  0.18275971410E+04  0.18275971410E+04  0.00000000000E+00 0.  1.
         -2   -1    0    0    0  501 -0.00000000000E+00 -0.00000000000E+00 -0.44465385316E+03  0.44465385316E+03  0.00000000000E+00 0. -1.
         23    2    1    2    0    0  0.45213296591E+03 -0.39424028296E+03  0.13992911017E+03  0.62273623763E+03  0.91491235755E+02 0.  0.
        254    2    1    2    0    0 -0.45213296591E+03  0.39424028296E+03  0.12430141776E+04  0.16495147565E+04  0.90330784702E+03 0.  0.
         24    2    4    4    0    0 -0.43870020037E+02 -0.26243886433E+03  0.31005846647E+03  0.41628953752E+03  0.79762085272E+02 0.  0.
         11    1    3    3    0    0  0.32765262001E+03 -0.27099202891E+03  0.13971416443E+03  0.44756336633E+03  0.00000000000E+00 0. -1.
        -11    1    3    3    0    0  0.12448034589E+03 -0.12324825405E+03  0.21494573731E+00  0.17517287131E+03  0.00000000000E+00 0.  1.
          2    1    5    5  502    0  0.70893586924E+01  0.10053433814E+01  0.13868522440E+01  0.72933587002E+01  0.00000000000E+00 0. -1.
          3    1    4    4  503    0 -0.52593811725E+01  0.16355443467E+01 -0.12974529774E+02  0.14095194872E+02  0.00000000000E+00 0. -1.
         -4    1    4    4    0  503 -0.40300356470E+03  0.65504360295E+03  0.94593024093E+03  0.12191300241E+04  0.00000000000E+00 0.  1.
         -1    1    5    5    0  502 -0.50959378729E+02 -0.26344420771E+03  0.30867161423E+03  0.40899617882E+03  0.00000000000E+00 0.  1.
<mgrwt>
<rscale>  0 0.18029399E+04</rscale>
<asrwt>0</asrwt>
<pdfrwt beam="1">  1        2 0.28116879E+00 0.18029399E+04</pdfrwt>
<pdfrwt beam="2">  1       -2 0.68408286E-01 0.18029399E+04</pdfrwt>
<totfact> 0.15365149E+01</totfact>
</mgrwt>
</event>
<event>
12    1  0.2502641E-008  0.1571390E+04  0.7818608E-02  0.8838320E-01
          4   -1    0    0  501    0  0.00000000000E+00  0.00000000000E+00  0.15174274701E+04  0.15174274701E+04  0.00000000000E+00 0. -1.
         -4   -1    0    0    0  501 -0.00000000000E+00 -0.00000000000E+00 -0.40681793131E+03  0.40681793131E+03  0.00000000000E+00 0.  1.
         23    2    1    2    0    0 -0.14213765843E+03 -0.84162081369E+02  0.98910668899E+03  0.10068769826E+04  0.90459085211E+02 0.  0.
        254    2    1    2    0    0  0.14213765843E+03  0.84162081369E+02  0.12150284979E+03  0.91736841875E+03  0.89415630811E+03 0.  0.
        -24    2    4    4    0    0 -0.10246304887E+03  0.43771763387E+03 -0.94493411482E+01  0.46213193012E+03  0.10668283555E+03 0.  0.
         24    2    4    4    0    0  0.24460070730E+03 -0.35355555250E+03  0.13095219094E+03  0.45523648863E+03  0.72531024778E+02 0.  0.
         13    1    3    3    0    0 -0.13707649464E+03 -0.60949907432E+02  0.94448747065E+03  0.95632705640E+03  0.00000000000E+00 0. -1.
        -13    1    3    3    0    0 -0.50611637819E+01 -0.23212173937E+02  0.44619218338E+02  0.50549926239E+02  0.00000000000E+00 0.  1.
          2    1    6    6  502    0  0.79494091849E+01 -0.48406529359E+02  0.23571962580E+02  0.54424467023E+02  0.00000000000E+00 0. -1.
          3    1    5    5  503    0 -0.82189088383E+02  0.26766741377E+03 -0.54037003110E+02  0.28516817555E+03  0.00000000000E+00 0. -1.
         -4    1    5    5    0  503 -0.20273960491E+02  0.17005022010E+03  0.44587661961E+02  0.17696375457E+03  0.00000000000E+00 0.  1.
         -1    1    6    6    0  502  0.23665129812E+03 -0.30514902314E+03  0.10738022836E+03  0.40081202161E+03  0.00000000000E+00 0.  1.
<mgrwt>
<rscale>  0 0.15713901E+04</rscale>
<asrwt>0</asrwt>
<pdfrwt beam="1">  1        4 0.23345038E+00 0.15713901E+04</pdfrwt>
<pdfrwt beam="2">  1       -4 0.62587375E-01 0.15713901E+04</pdfrwt>
<totfact> 0.36917381E-01</totfact>
</mgrwt>
</event>
<event>
12    1  0.2502641E-008  0.2371201E+04  0.7818608E-02  0.8450365E-01
          2   -1    0    0  501    0  0.00000000000E+00  0.00000000000E+00  0.10804465504E+04  0.10804465504E+04  0.00000000000E+00 0. -1.
         -2   -1    0    0    0  501 -0.00000000000E+00 -0.00000000000E+00 -0.13009879818E+04  0.13009879818E+04  0.00000000000E+00 0.  1.
         23    2    1    2    0    0  0.96892789657E+03 -0.22885343028E+03  0.93469507786E+02  0.10041171730E+04  0.91211770017E+02 0.  0.
        254    2    1    2    0    0 -0.96892789657E+03  0.22885343028E+03 -0.31401093917E+03  0.13773173592E+04  0.89844592306E+03 0.  0.
        -24    2    4    4    0    0 -0.88937548265E+02  0.29732706600E+03 -0.36281280160E+03  0.48958057937E+03  0.10836393784E+03 0.  0.
         24    2    4    4    0    0 -0.87999034830E+03 -0.68473635725E+02  0.48801862433E+02  0.88773677980E+03  0.81383760906E+02 0.  0.
         11    1    3    3    0    0  0.77879759800E+03 -0.19090873187E+03  0.11075687871E+03  0.80946830002E+03  0.00000000000E+00 0. -1.
        -11    1    3    3    0    0  0.19013029856E+03 -0.37944698406E+02 -0.17287370923E+02  0.19464887300E+03  0.00000000000E+00 0.  1.
          4    1    6    6  502    0 -0.83130106958E+03 -0.73073444901E+02  0.62801794153E+02  0.83686633460E+03  0.00000000000E+00 0. -1.
          3    1    5    5  503    0 -0.11395605908E+03  0.25864149938E+03 -0.31358223303E+03  0.42215545179E+03  0.00000000000E+00 0. -1.
         -4    1    5    5    0  503  0.25018510811E+02  0.38685566619E+02 -0.49230568572E+02  0.67425127584E+02  0.00000000000E+00 0.  1.
         -3    1    6    6    0  502 -0.48689278717E+02  0.45998091756E+01 -0.13999931719E+02  0.50870445197E+02  0.00000000000E+00 0.  1.
<mgrwt>
<rscale>  0 0.23712005E+04</rscale>
<asrwt>0</asrwt>
<pdfrwt beam="1">  1        2 0.16622255E+00 0.23712005E+04</pdfrwt>
<pdfrwt beam="2">  1       -2 0.20015200E+00 0.23712005E+04</pdfrwt>
<totfact> 0.26791415E+00</totfact>
</mgrwt>
</event>
<event>
12    1  0.2502641E-008  0.1638134E+04  0.7818608E-02  0.8797457E-01
          1   -1    0    0  501    0  0.00000000000E+00  0.00000000000E+00  0.88132555148E+03  0.88132555148E+03  0.00000000000E+00 0. -1.
         -1   -1    0    0    0  501 -0.00000000000E+00 -0.00000000000E+00 -0.76120659380E+03  0.76120659380E+03  0.00000000000E+00 0.  1.
         23    2    1    2    0    0  0.36238783734E+03  0.17923699906E+02 -0.30470439579E+03  0.48261939006E+03  0.91817771541E+02 0.  0.
        254    2    1    2    0    0 -0.36238783734E+03 -0.17923699906E+02  0.42482335348E+03  0.11599127552E+04  0.10165020976E+04 0.  0.
        -24    2    4    4    0    0  0.28992743265E+03  0.96323103108E+02  0.38177323758E+03  0.49166365015E+03  0.51442040659E+02 0.  0.
         24    2    4    4    0    0 -0.65231527000E+03 -0.11424680301E+03  0.43050115901E+02  0.66824910508E+03  0.78332691114E+02 0.  0.
         11    1    3    3    0    0  0.10542988893E+03 -0.44409892630E+01 -0.39505011978E+02  0.11267577307E+03  0.00000000000E+00 0. -1.
        -11    1    3    3    0    0  0.25695794841E+03  0.22364689169E+02 -0.26519938381E+03  0.36994361699E+03  0.00000000000E+00 0.  1.
          4    1    6    6  502    0 -0.30404012322E+03 -0.26034711649E+02  0.48219974741E+02  0.30893910193E+03  0.00000000000E+00 0. -1.
          3    1    5    5  503    0  0.38955666021E+02 -0.37260544164E+01  0.39478690363E+02  0.55587717973E+02  0.00000000000E+00 0. -1.
         -4    1    5    5    0  503  0.25097176663E+03  0.10004915752E+03  0.34229454721E+03  0.43607593217E+03  0.00000000000E+00 0.  1.
         -3    1    6    6    0  502 -0.34827514678E+03 -0.88212091364E+02 -0.51698588392E+01  0.35931000316E+03  0.00000000000E+00 0.  1.
<mgrwt>
<rscale>  0 0.16381341E+04</rscale>
<asrwt>0</asrwt>
<pdfrwt beam="1">  1        1 0.13558855E+00 0.16381341E+04</pdfrwt>
<pdfrwt beam="2">  1       -1 0.11710871E+00 0.16381341E+04</pdfrwt>
<totfact> 0.11851352E+01</totfact>
</mgrwt>
</event>
<event>
12    1  0.2502641E-008  0.1410955E+04  0.7818608E-02  0.8945927E-01
          2   -1    0    0  501    0  0.00000000000E+00  0.00000000000E+00  0.11142065896E+04  0.11142065896E+04  0.00000000000E+00 0. -1.
         -2   -1    0    0    0  501 -0.00000000000E+00 -0.00000000000E+00 -0.44668410105E+03  0.44668410105E+03  0.00000000000E+00 0.  1.
         23    2    1    2    0    0  0.12985725041E+03 -0.30001707568E+03  0.47607242577E+03  0.58492441427E+03  0.92835686296E+02 0.  0.
        254    2    1    2    0    0 -0.12985725041E+03  0.30001707568E+03  0.19145006273E+03  0.97596627633E+03  0.89943531998E+03 0.  0.
        -24    2    4    4    0    0 -0.17873586144E+02 -0.30838199873E+03  0.13691756367E+03  0.35011832017E+03  0.91746916328E+02 0.  0.
         24    2    4    4    0    0 -0.11198366427E+03  0.60839907441E+03  0.54532499060E+02  0.62584795616E+03  0.77602164742E+02 0.  0.
         13    1    3    3    0    0  0.11710615179E+03 -0.15996661792E+03  0.25662592429E+03  0.32428387973E+03  0.00000000000E+00 0.  1.
        -13    1    3    3    0    0  0.12751098624E+02 -0.14005045776E+03  0.21944650148E+03  0.26064053454E+03  0.00000000000E+00 0. -1.
          2    1    6    6  502    0 -0.12772170204E+02  0.24615942142E+02  0.16952568721E+02  0.32503269459E+02  0.00000000000E+00 0. -1.
          3    1    5    5  503    0  0.36496031532E+02 -0.88755356936E+02  0.42287164126E+02  0.10486981430E+03  0.00000000000E+00 0. -1.
         -4    1    5    5    0  503 -0.54369617676E+02 -0.21962664179E+03  0.94630399547E+02  0.24524850587E+03  0.00000000000E+00 0.  1.
         -1    1    6    6    0  502 -0.99211494065E+02  0.58378313227E+03  0.37579930339E+02  0.59334468670E+03  0.00000000000E+00 0.  1.
<mgrwt>
<rscale>  0 0.14109548E+04</rscale>
<asrwt>0</asrwt>
<pdfrwt beam="1">  1        2 0.17141640E+00 0.14109548E+04</pdfrwt>
<pdfrwt beam="2">  1       -2 0.68720631E-01 0.14109548E+04</pdfrwt>
<totfact> 0.40191422E+01</totfact>
</mgrwt>
</event>
<event>
11    1  0.2502641E-008  0.1412496E+04  0.7818608E-02  0.8944823E-01
         -2   -1    0    0    0  501 -0.00000000000E+00  0.00000000000E+00  0.41684858434E+03  0.41684858434E+03  0.00000000000E+00 0.  1.
          2   -1    0    0  501    0  0.00000000000E+00 -0.00000000000E+00 -0.11965644523E+04  0.11965644523E+04  0.00000000000E+00 0. -1.
         23    2    1    2    0    0 -0.25171492096E+03 -0.14522528866E+03  0.98222989335E+02  0.32109786616E+03  0.94896249247E+02 0.  0.
        254    2    1    2    0    0  0.25171492096E+03  0.14522528866E+03 -0.87793885727E+03  0.12923151704E+04  0.90269101955E+03 0.  0.
         24    2    4    4    0    0  0.40398787800E+03  0.39715488621E+03 -0.76645972855E+03  0.95651910132E+03  0.80808826739E+02 0.  0.
         13    1    3    3    0    0 -0.31477167212E+02 -0.48077295062E+01 -0.16450431245E+02  0.35840521856E+02  0.00000000000E+00 0. -1.
        -13    1    3    3    0    0 -0.22023775374E+03 -0.14041755916E+03  0.11467342058E+03  0.28525734431E+03  0.00000000000E+00 0.  1.
          4    1    5    5  502    0  0.21209982953E+02  0.41342860156E+02 -0.38232873816E+02  0.60173483387E+02  0.00000000000E+00 0. -1.
          3    1    4    4  503    0 -0.75012991042E+02 -0.85556733561E+02 -0.10086129145E+03  0.15205230546E+03  0.00000000000E+00 0. -1.
         -4    1    4    4    0  503 -0.77259966004E+02 -0.16637286399E+03 -0.10617837263E+02  0.18374376367E+03  0.00000000000E+00 0.  1.
         -3    1    5    5    0  502  0.38277789505E+03  0.35581202606E+03 -0.72822685474E+03  0.89634561793E+03  0.00000000000E+00 0.  1.
<mgrwt>
<rscale>  0 0.14124959E+04</rscale>
<asrwt>0</asrwt>
<pdfrwt beam="1">  1        2 0.18408683E+00 0.14124959E+04</pdfrwt>
<pdfrwt beam="2">  1       -2 0.64130553E-01 0.14124959E+04</pdfrwt>
<totfact> 0.41589863E+01</totfact>
</mgrwt>
</event>
<event>
11    1  0.2502641E-008  0.2821018E+04  0.7818608E-02  0.8296773E-01
          2   -1    0    0  501    0  0.00000000000E+00  0.00000000000E+00  0.17825524799E+04  0.17825524799E+04  0.00000000000E+00 0. -1.
         -2   -1    0    0    0  501 -0.00000000000E+00 -0.00000000000E+00 -0.11161161325E+04  0.11161161325E+04  0.00000000000E+00 0.  1.
         23    2    1    2    0    0  0.29471489600E+03  0.75863925691E+03  0.12973397613E+04  0.15342278815E+04  0.91511442570E+02 0.  0.
        254    2    1    2    0    0 -0.29471489600E+03 -0.75863925691E+03 -0.63090341394E+03  0.13644407308E+04  0.89513630143E+03 0.  0.
         24    2    4    4    0    0 -0.42373719475E+03 -0.24928972566E+03  0.22385065374E+00  0.49829938805E+03  0.81262860470E+02 0.  0.
         11    1    3    3    0    0  0.23660125101E+03  0.49025202149E+03  0.86910488455E+03  0.10255098717E+04  0.00000000000E+00 0. -1.
        -11    1    3    3    0    0  0.58113644985E+02  0.26838723543E+03  0.42823487677E+03  0.50871800986E+03  0.00000000000E+00 0.  1.
          4    1    5    5  502    0 -0.81718572047E+02 -0.85705203373E+02  0.11723038730E+02  0.11899889302E+03  0.00000000000E+00 0. -1.
          3    1    4    4  503    0  0.32260491933E+02  0.23599481045E+02 -0.84786046154E+01  0.40860268985E+02  0.00000000000E+00 0. -1.
         -4    1    4    4    0  503  0.96761806817E+02 -0.53294901230E+03 -0.62264865998E+03  0.82528107378E+03  0.00000000000E+00 0.  1.
         -3    1    5    5    0  502 -0.34201862270E+03 -0.16358452228E+03 -0.11499188076E+02  0.37930049503E+03  0.00000000000E+00 0.  1.
<mgrwt>
<rscale>  0 0.28210180E+04</rscale>
<asrwt>0</asrwt>
<pdfrwt beam="1">  1        2 0.27423884E+00 0.28210180E+04</pdfrwt>
<pdfrwt beam="2">  1       -2 0.17171017E+00 0.28210180E+04</pdfrwt>
<totfact> 0.15887753E+00</totfact>
</mgrwt>
</event>
<event>
11    1  0.2502641E-008  0.1295538E+04  0.7818608E-02  0.9033111E-01
         -2   -1    0    0    0  501 -0.00000000000E+00  0.00000000000E+00  0.46737582934E+03  0.46737582934E+03  0.00000000000E+00 0.  1.
          2   -1    0    0  501    0  0.00000000000E+00 -0.00000000000E+00 -0.89778873464E+03  0.89778873464E+03  0.00000000000E+00 0. -1.
         23    2    1    2    0    0 -0.14606277915E+03  0.26235724299E+03  0.38387460791E+02  0.31556749502E+03  0.89126810593E+02 0.  0.
        254    2    1    2    0    0  0.14606277915E+03 -0.26235724299E+03 -0.46880036608E+03  0.10495970690E+04  0.88978343743E+03 0.  0.
         24    2    4    4    0    0  0.48168310246E+03 -0.13159297101E+03 -0.89540852580E+02  0.51309096724E+03  0.76872980765E+02 0.  0.
         13    1    3    3    0    0 -0.27123538344E+02  0.34550822149E+02  0.38758220423E+02  0.58580246618E+02  0.00000000000E+00 0.  1.
        -13    1    3    3    0    0 -0.11893924081E+03  0.22780642084E+03 -0.37075963176E+00  0.25698724840E+03  0.00000000000E+00 0. -1.
          2    1    5    5  502    0  0.28427064490E+03 -0.63372350995E+02 -0.87874193312E+02  0.30421658119E+03  0.00000000000E+00 0. -1.
          3    1    4    4  503    0 -0.32956612954E+03 -0.14066585938E+03 -0.33424961859E+03  0.49002400478E+03  0.00000000000E+00 0. -1.
         -4    1    4    4    0  503 -0.60541937596E+01  0.99015873972E+01 -0.45009894917E+02  0.46482096935E+02  0.00000000000E+00 0.  1.
         -1    1    5    5    0  502  0.19741245756E+03 -0.68220620011E+02 -0.16666592676E+01  0.20887438605E+03  0.00000000000E+00 0.  1.
<mgrwt>
<rscale>  0 0.12955381E+04</rscale>
<asrwt>0</asrwt>
<pdfrwt beam="1">  1        2 0.13812134E+00 0.12955381E+04</pdfrwt>
<pdfrwt beam="2">  1       -2 0.71903974E-01 0.12955381E+04</pdfrwt>
<totfact> 0.50579480E+01</totfact>
</mgrwt>
</event>
<event>
12    1  0.2502641E-008  0.1860625E+04  0.7818608E-02  0.8674708E-01
          2   -1    0    0  501    0  0.00000000000E+00  0.00000000000E+00  0.17559330613E+04  0.17559330613E+04  0.00000000000E+00 0. -1.
         -2   -1    0    0    0  501 -0.00000000000E+00 -0.00000000000E+00 -0.49288950893E+03  0.49288950893E+03  0.00000000000E+00 0.  1.
         23    2    1    2    0    0 -0.53720892358E+03  0.13016722806E+03  0.10281130038E+04  0.11709126303E+04  0.92103769633E+02 0.  0.
        254    2    1    2    0    0  0.53720892358E+03 -0.13016722806E+03  0.23493054855E+03  0.10779099399E+04  0.89507571807E+03 0.  0.
        -24    2    4    4    0    0  0.27939395990E+03 -0.49489660298E+03  0.23558731798E+03  0.62427120854E+03  0.10596945295E+03 0.  0.
         24    2    4    4    0    0  0.25781496368E+03  0.36472937492E+03 -0.65676942264E+00  0.45363873137E+03  0.79319574005E+02 0.  0.
         13    1    3    3    0    0 -0.75924452472E+02 -0.13753406240E+02  0.14174607633E+03  0.16138658191E+03  0.00000000000E+00 0.  1.
        -13    1    3    3    0    0 -0.46128447111E+03  0.14392063430E+03  0.88636692747E+03  0.10095260484E+04  0.00000000000E+00 0. -1.
          2    1    6    6  502    0  0.78288158516E+02  0.75165190890E+02 -0.27256823007E+02  0.11190074211E+03  0.00000000000E+00 0. -1.
          3    1    5    5  503    0 -0.65779296402E+01 -0.34690318886E+02  0.59959236846E+01  0.35813942587E+02  0.00000000000E+00 0. -1.
         -4    1    5    5    0  503  0.28597188954E+03 -0.46020628409E+03  0.22959139429E+03  0.58845726596E+03  0.00000000000E+00 0.  1.
         -1    1    6    6    0  502  0.17952680516E+03  0.28956418403E+03  0.26600053584E+02  0.34173798925E+03  0.00000000000E+00 0.  1.
<mgrwt>
<rscale>  0 0.18606246E+04</rscale>
<asrwt>0</asrwt>
<pdfrwt beam="1">  1        2 0.27014354E+00 0.18606246E+04</pdfrwt>
<pdfrwt beam="2">  1       -2 0.75829156E-01 0.18606246E+04</pdfrwt>
<totfact> 0.13363753E+01</totfact>
</mgrwt>
</event>
<event>
12    1  0.2502641E-008  0.1707243E+04  0.7818608E-02  0.8757244E-01
         -1   -1    0    0    0  501 -0.00000000000E+00  0.00000000000E+00  0.38224748093E+03  0.38224748093E+03  0.00000000000E+00 0.  1.
          1   -1    0    0  501    0  0.00000000000E+00 -0.00000000000E+00 -0.19062767854E+04  0.19062767854E+04  0.00000000000E+00 0. -1.
         23    2    1    2    0    0 -0.50941410697E+03 -0.16320694861E+02 -0.10225772222E+04  0.11467467500E+04  0.97953233420E+02 0.  0.
        254    2    1    2    0    0  0.50941410697E+03  0.16320694861E+02 -0.50145208232E+03  0.11417775163E+04  0.89018683907E+03 0.  0.
        -24    2    4    4    0    0  0.39133261673E+03  0.36483133154E+03 -0.53643754152E+03  0.76358199064E+03  0.95126773794E+02 0.  0.
         24    2    4    4    0    0  0.11808149024E+03 -0.34851063668E+03  0.34985459197E+02  0.37819552568E+03  0.80031063160E+02 0.  0.
         13    1    3    3    0    0 -0.35900190894E+03  0.59715276231E+01 -0.80347424023E+03  0.88005050110E+03  0.00000000000E+00 0. -1.
        -13    1    3    3    0    0 -0.15041219804E+03 -0.22292222484E+02 -0.21910298195E+03  0.26669624894E+03  0.00000000000E+00 0.  1.
          2    1    6    6  502    0  0.74254889414E+01 -0.12256174518E+03  0.30711342120E+02  0.12656897646E+03  0.00000000000E+00 0. -1.
          1    1    5    5  503    0  0.33832776579E+03  0.26649675435E+03 -0.40646634202E+03  0.59220020633E+03  0.00000000000E+00 0. -1.
         -2    1    5    5    0  503  0.53004850939E+02  0.98334577190E+02 -0.12997119950E+03  0.17138178431E+03  0.00000000000E+00 0.  1.
         -1    1    6    6    0  502  0.11065600130E+03 -0.22594889150E+03  0.42741170777E+01  0.25162654921E+03  0.00000000000E+00 0.  1.
<mgrwt>
<rscale>  0 0.17072428E+04</rscale>
<asrwt>0</asrwt>
<pdfrwt beam="1">  1        1 0.29327335E+00 0.17072428E+04</pdfrwt>
<pdfrwt beam="2">  1       -1 0.58807305E-01 0.17072428E+04</pdfrwt>
<totfact> 0.96171674E+00</totfact>
</mgrwt>
</event>
<event>
12    1  0.2502641E-008  0.1664496E+04  0.7818608E-02  0.8781877E-01
          2   -1    0    0  501    0  0.00000000000E+00  0.00000000000E+00  0.10617429287E+04  0.10617429287E+04  0.00000000000E+00 0. -1.
         -2   -1    0    0    0  501 -0.00000000000E+00 -0.00000000000E+00 -0.65235788452E+03  0.65235788452E+03  0.00000000000E+00 0.  1.
         23    2    1    2    0    0 -0.43812646443E+03 -0.37945360131E+03  0.24731849108E+03  0.63697030572E+03  0.92870339471E+02 0.  0.
        254    2    1    2    0    0  0.43812646443E+03  0.37945360131E+03  0.16206655312E+03  0.10771305075E+04  0.89331110382E+03 0.  0.
        -24    2    4    4    0    0 -0.15483942037E+03  0.10377370339E+03 -0.23735648655E+03  0.30742571834E+03  0.58551199591E+02 0.  0.
         24    2    4    4    0    0  0.59296588480E+03  0.27567989792E+03  0.39942303967E+03  0.76970478918E+03  0.72792521648E+02 0.  0.
         13    1    3    3    0    0 -0.19465519486E+03 -0.15622185213E+03  0.15572569565E+03  0.29418770242E+03  0.00000000000E+00 0.  1.
        -13    1    3    3    0    0 -0.24347126958E+03 -0.22323174918E+03  0.91592795426E+02  0.34278260330E+03  0.00000000000E+00 0. -1.
          2    1    6    6  502    0  0.49323201132E+02  0.28436984589E+01  0.24166446175E+02  0.54998926458E+02  0.00000000000E+00 0. -1.
          1    1    5    5  503    0 -0.66871011724E+02  0.14336290391E+02 -0.65881502087E+02  0.94961222341E+02  0.00000000000E+00 0. -1.
         -2    1    5    5    0  503 -0.87968408646E+02  0.89437412999E+02 -0.17147498446E+03  0.21246449600E+03  0.00000000000E+00 0.  1.
         -1    1    6    6    0  502  0.54364268367E+03  0.27283619946E+03  0.37525659349E+03  0.71470586272E+03  0.00000000000E+00 0.  1.
<mgrwt>
<rscale>  0 0.16644956E+04</rscale>
<asrwt>0</asrwt>
<pdfrwt beam="1">  1        2 0.16334507E+00 0.16644956E+04</pdfrwt>
<pdfrwt beam="2">  1       -2 0.10036275E+00 0.16644956E+04</pdfrwt>
<totfact> 0.17986755E+01</totfact>
</mgrwt>
</event>
<event>
12    1  0.2502641E-008  0.1249066E+04  0.7818608E-02  0.9070961E-01
          2   -1    0    0  501    0  0.00000000000E+00  0.00000000000E+00  0.12288799081E+04  0.12288799081E+04  0.00000000000E+00 0. -1.
         -2   -1    0    0    0  501 -0.00000000000E+00 -0.00000000000E+00 -0.31739604830E+03  0.31739604830E+03  0.00000000000E+00 0.  1.
         23    2    1    2    0    0  0.10974577861E+03  0.84410701217E+02  0.53590141360E+03  0.56108455767E+03  0.91957889042E+02 0.  0.
        254    2    1    2    0    0 -0.10974577861E+03 -0.84410701217E+02  0.37558244620E+03  0.98519139873E+03  0.90020587415E+03 0.  0.
        -24    2    4    4    0    0  0.26007568505E+03  0.25279702070E+03  0.28205772501E+03  0.46983159981E+03  0.98180834756E+02 0.  0.
         24    2    4    4    0    0 -0.36982146365E+03 -0.33720772192E+03  0.93524721186E+02  0.51535979893E+03  0.79824095227E+02 0.  0.
         11    1    3    3    0    0  0.55744505789E+01 -0.92565010796E+00 -0.24408548598E+01  0.61554122385E+01  0.00000000000E+00 0.  1.
        -11    1    3    3    0    0  0.10417132803E+03  0.85336351325E+02  0.53834226846E+03  0.55492914543E+03  0.00000000000E+00 0. -1.
          2    1    6    6  502    0 -0.24186261965E+03 -0.22753308068E+03  0.23615210820E+02  0.33290615460E+03  0.00000000000E+00 0. -1.
          3    1    5    5  503    0  0.13862063037E+03  0.10428685779E+03  0.18921235355E+03  0.25669581728E+03  0.00000000000E+00 0. -1.
         -4    1    5    5    0  503  0.12145505467E+03  0.14851016291E+03  0.92845371463E+02  0.21313578253E+03  0.00000000000E+00 0.  1.
         -1    1    6    6    0  502 -0.12795884400E+03 -0.10967464123E+03  0.69909510366E+02  0.18245364432E+03  0.00000000000E+00 0.  1.
<mgrwt>
<rscale>  0 0.12490663E+04</rscale>
<asrwt>0</asrwt>
<pdfrwt beam="1">  1        2 0.18905845E+00 0.12490663E+04</pdfrwt>
<pdfrwt beam="2">  1       -2 0.48830162E-01 0.12490663E+04</pdfrwt>
<totfact> 0.71086735E+01</totfact>
</mgrwt>
</event>
<event>
12    1  0.2502641E-008  0.1325269E+04  0.7818608E-02  0.9009763E-01
          2   -1    0    0  501    0  0.00000000000E+00  0.00000000000E+00  0.10088815449E+04  0.10088815449E+04  0.00000000000E+00 0. -1.
         -2   -1    0    0    0  501 -0.00000000000E+00 -0.00000000000E+00 -0.43521902341E+03  0.43521902341E+03  0.00000000000E+00 0.  1.
         23    2    1    2    0    0 -0.25243418317E+03 -0.20848070069E+03  0.28107464417E+03  0.44107073193E+03  0.91395927578E+02 0.  0.
        254    2    1    2    0    0  0.25243418317E+03  0.20848070069E+03  0.29258787737E+03  0.10030298364E+04  0.90181703653E+03 0.  0.
        -24    2    4    4    0    0 -0.21717120137E+03  0.26189452314E+03  0.37527740710E+03  0.51697570325E+03  0.10333766746E+03 0.  0.
         24    2    4    4    0    0  0.46960538455E+03 -0.53413822447E+02 -0.82689529724E+02  0.48605413317E+03  0.77645401834E+02 0.  0.
         13    1    3    3    0    0 -0.14484107735E+03 -0.63226327242E+02  0.11340297890E+03  0.19451668763E+03  0.00000000000E+00 0.  1.
        -13    1    3    3    0    0 -0.10759310583E+03 -0.14525437345E+03  0.16767166526E+03  0.24655404430E+03  0.00000000000E+00 0. -1.
          4    1    6    6  502    0  0.10323215384E+03  0.11728200386E+02 -0.40658581545E+02  0.11156858215E+03  0.00000000000E+00 0. -1.
          3    1    5    5  503    0 -0.10015778137E+03  0.14428003567E+03  0.12071165022E+03  0.21311877524E+03  0.00000000000E+00 0. -1.
         -4    1    5    5    0  503 -0.11701342000E+03  0.11761448747E+03  0.25456575687E+03  0.30385692801E+03  0.00000000000E+00 0.  1.
         -3    1    6    6    0  502  0.36637323071E+03 -0.65142022833E+02 -0.42030948179E+02  0.37448555102E+03  0.00000000000E+00 0.  1.
<mgrwt>
<rscale>  0 0.13252689E+04</rscale>
<asrwt>0</asrwt>
<pdfrwt beam="1">  1        2 0.15521254E+00 0.13252689E+04</pdfrwt>
<pdfrwt beam="2">  1       -2 0.66956773E-01 0.13252689E+04</pdfrwt>
<totfact> 0.49819938E+01</totfact>
</mgrwt>
</event>
<event>
11    1  0.2502641E-008  0.2234097E+04  0.7818608E-02  0.8504369E-01
         -2   -1    0    0    0  501 -0.00000000000E+00  0.00000000000E+00  0.43884418350E+03  0.43884418350E+03  0.00000000000E+00 0.  1.
          2   -1    0    0  501    0  0.00000000000E+00 -0.00000000000E+00 -0.28433721509E+04  0.28433721509E+04  0.00000000000E+00 0. -1.
         23    2    1    2    0    0 -0.81866977348E+03 -0.15837202998E+03 -0.39969056816E+03  0.92928402405E+03  0.92273231199E+02 0.  0.
        254    2    1    2    0    0  0.81866977348E+03  0.15837202998E+03 -0.20048373992E+04  0.23529323103E+04  0.90643011961E+03 0.  0.
         24    2    4    4    0    0  0.43202931797E+01 -0.28141924897E+03 -0.58378689275E+03  0.65302112648E+03  0.80087432551E+02 0.  0.
         13    1    3    3    0    0 -0.15452801325E+02 -0.66834586703E+01  0.44576450093E+01  0.17416322448E+02  0.00000000000E+00 0. -1.
        -13    1    3    3    0    0 -0.80321697216E+03 -0.15168857131E+03 -0.40414821317E+03  0.91186770161E+03  0.00000000000E+00 0.  1.
          4    1    5    5  502    0  0.81712025618E+01 -0.25740833720E+03 -0.46296026729E+03  0.52977167695E+03  0.00000000000E+00 0. -1.
          3    1    4    4  503    0  0.22040603650E+03  0.92621401706E+02 -0.45420384191E+03  0.51328225664E+03  0.00000000000E+00 0. -1.
         -4    1    4    4    0  503  0.59394344380E+03  0.34716987724E+03 -0.96684666457E+03  0.11866289272E+04  0.00000000000E+00 0.  1.
         -3    1    5    5    0  502 -0.38509093821E+01 -0.24010911762E+02 -0.12082662547E+03  0.12324944952E+03  0.00000000000E+00 0.  1.
<mgrwt>
<rscale>  0 0.22340970E+04</rscale>
<asrwt>0</asrwt>
<pdfrwt beam="1">  1        2 0.43744187E+00 0.22340970E+04</pdfrwt>
<pdfrwt beam="2">  1       -2 0.67514490E-01 0.22340970E+04</pdfrwt>
<totfact> 0.39920494E+00</totfact>
</mgrwt>
</event>
<event>
12    1  0.2502641E-008  0.1412252E+04  0.7818608E-02  0.8944997E-01
          1   -1    0    0  501    0  0.00000000000E+00  0.00000000000E+00  0.21654294453E+04  0.21654294453E+04  0.00000000000E+00 0. -1.
         -1   -1    0    0    0  501 -0.00000000000E+00 -0.00000000000E+00 -0.23026114428E+03  0.23026114428E+03  0.00000000000E+00 0.  1.
         23    2    1    2    0    0  0.70542385237E+01  0.31855116532E+03  0.13846097649E+03  0.35893078287E+03  0.90195663301E+02 0.  0.
        254    2    1    2    0    0 -0.70542385237E+01 -0.31855116532E+03  0.17967073245E+04  0.20367598067E+04  0.90482522785E+03 0.  0.
        -24    2    4    4    0    0  0.28230803216E+03 -0.40573114919E+03  0.51225720807E+03  0.71485742142E+03  0.65559860314E+02 0.  0.
         24    2    4    4    0    0 -0.28936227068E+03  0.87179983873E+02  0.12844501165E+04  0.13219023853E+04  0.79265006562E+02 0.  0.
         11    1    3    3    0    0  0.23042875710E+02  0.84642170772E+02  0.76581839903E+02  0.11644762512E+03  0.00000000000E+00 0. -1.
        -11    1    3    3    0    0 -0.15988637186E+02  0.23390899455E+03  0.61879136587E+02  0.24248315775E+03  0.00000000000E+00 0.  1.
          4    1    6    6  502    0 -0.43053386125E+02  0.30940348316E+02  0.34599937722E+03  0.35003780974E+03  0.00000000000E+00 0. -1.
          1    1    5    5  503    0  0.50470522175E+02 -0.12112466556E+03  0.12393774986E+03  0.18049660400E+03  0.00000000000E+00 0. -1.
         -2    1    5    5    0  503  0.23183750998E+03 -0.28460648363E+03  0.38831945821E+03  0.53436081741E+03  0.00000000000E+00 0.  1.
         -3    1    6    6    0  502 -0.24630888456E+03  0.56239635557E+02  0.93845073924E+03  0.97186457555E+03  0.00000000000E+00 0.  1.
<mgrwt>
<rscale>  0 0.14122525E+04</rscale>
<asrwt>0</asrwt>
<pdfrwt beam="1">  1        1 0.33314298E+00 0.14122525E+04</pdfrwt>
<pdfrwt beam="2">  1       -1 0.35424793E-01 0.14122525E+04</pdfrwt>
<totfact> 0.17039476E+01</totfact>
</mgrwt>
</event>
<event>
11    1  0.2502641E-008  0.1934110E+04  0.7818608E-02  0.8638061E-01
          2   -1    0    0  501    0  0.00000000000E+00  0.00000000000E+00  0.18771905653E+04  0.18771905653E+04  0.00000000000E+00 0.  1.
         -2   -1    0    0    0  501 -0.00000000000E+00 -0.00000000000E+00 -0.49818902151E+03  0.49818902151E+03  0.00000000000E+00 0. -1.
         23    2    1    2    0    0 -0.34148896062E+03  0.41590500734E+02 -0.28424505448E+03  0.45553061507E+03  0.91479015601E+02 0.  0.
        254    2    1    2    0    0  0.34148896062E+03 -0.41590500734E+02  0.16632465982E+04  0.19198489717E+04  0.89503427174E+03 0.  0.
         24    2    4    4    0    0  0.53594695958E+03 -0.21351581730E+03  0.14199426131E+04  0.15347141561E+04  0.79261395210E+02 0.  0.
         13    1    3    3    0    0 -0.31400219421E+03  0.45929362634E+02 -0.28659808966E+03  0.42760419703E+03  0.00000000000E+00 0. -1.
        -13    1    3    3    0    0 -0.27486766413E+02 -0.43388619000E+01  0.23530351757E+01  0.27926418048E+02  0.00000000000E+00 0.  1.
          2    1    5    5  502    0  0.17957739081E+03 -0.48708772714E+02  0.37968300185E+03  0.42282356335E+03  0.00000000000E+00 0. -1.
          1    1    4    4  503    0 -0.15612433457E+02  0.22366623686E+02 -0.19720499666E+02  0.33658758751E+02  0.00000000000E+00 0. -1.
         -2    1    4    4    0  503 -0.17884556551E+03  0.14955869288E+03  0.26302448484E+03  0.35147605686E+03  0.00000000000E+00 0.  1.
         -1    1    5    5    0  502  0.35636956877E+03 -0.16480704459E+03  0.10402596112E+04  0.11118905927E+04  0.00000000000E+00 0.  1.
<mgrwt>
<rscale>  0 0.19341104E+04</rscale>
<asrwt>0</asrwt>
<pdfrwt beam="1">  1        2 0.28879855E+00 0.19341104E+04</pdfrwt>
<pdfrwt beam="2">  1       -2 0.76644466E-01 0.19341104E+04</pdfrwt>
<totfact> 0.11109869E+01</totfact>
</mgrwt>
</event>
<event>
12    1  0.2502641E-008  0.1674611E+04  0.7818608E-02  0.8775978E-01
          1   -1    0    0  501    0  0.00000000000E+00  0.00000000000E+00  0.77903561000E+03  0.77903561000E+03  0.00000000000E+00 0.  1.
         -1   -1    0    0    0  501 -0.00000000000E+00 -0.00000000000E+00 -0.89993430464E+03  0.89993430464E+03  0.00000000000E+00 0. -1.
         23    2    1    2    0    0  0.57358635147E+02  0.22313038710E+03  0.50229892732E+03  0.56027081661E+03  0.92314640735E+02 0.  0.
        254    2    1    2    0    0 -0.57358635147E+02 -0.22313038710E+03 -0.62319762195E+03  0.11186990980E+04  0.90001956270E+03 0.  0.
        -24    2    4    4    0    0 -0.36108135063E+03 -0.38243096618E+03 -0.20857832354E+03  0.57485010061E+03  0.10156050145E+03 0.  0.
         24    2    4    4    0    0  0.30372271548E+03  0.15930057908E+03 -0.41461929841E+03  0.54384899742E+03  0.78983586796E+02 0.  0.
         11    1    3    3    0    0  0.38975385634E+02  0.32555972560E+02  0.16243852782E+03  0.17019179580E+03  0.00000000000E+00 0. -1.
        -11    1    3    3    0    0  0.18383249513E+02  0.19057441454E+03  0.33986039949E+03  0.39007902082E+03  0.00000000000E+00 0.  1.
          4    1    6    6  502    0  0.11354006040E+03  0.82623319097E+02 -0.11894608772E+03  0.18402752500E+03  0.00000000000E+00 0. -1.
          3    1    5    5  503    0 -0.54812249546E+02 -0.11451505710E+03 -0.70057725891E+02  0.14500402049E+03  0.00000000000E+00 0. -1.
         -4    1    5    5    0  503 -0.30626910108E+03 -0.26791590908E+03 -0.13852059765E+03  0.42984608011E+03  0.00000000000E+00 0.  1.
         -3    1    6    6    0  502  0.19018265509E+03  0.76677259980E+02 -0.29567321069E+03  0.35982147242E+03  0.00000000000E+00 0.  1.
<mgrwt>
<rscale>  0 0.16746114E+04</rscale>
<asrwt>0</asrwt>
<pdfrwt beam="1">  1        1 0.11985163E+00 0.16746114E+04</pdfrwt>
<pdfrwt beam="2">  1       -1 0.13845143E+00 0.16746114E+04</pdfrwt>
<totfact> 0.94945662E+00</totfact>
</mgrwt>
</event>
<event>
11    1  0.2502641E-008  0.2060471E+04  0.7818608E-02  0.8578859E-01
         -1   -1    0    0    0  501 -0.00000000000E+00  0.00000000000E+00  0.97712645063E+03  0.97712645063E+03  0.00000000000E+00 0.  1.
          1   -1    0    0  501    0  0.00000000000E+00 -0.00000000000E+00 -0.10862314848E+04  0.10862314848E+04  0.00000000000E+00 0. -1.
         23    2    1    2    0    0  0.61490850916E+02 -0.68135630704E+03 -0.51494211941E+03  0.86113228290E+03  0.91410504994E+02 0.  0.
        254    2    1    2    0    0 -0.61490850916E+02  0.68135630704E+03  0.40583708524E+03  0.12022256525E+04  0.90145173912E+03 0.  0.
         24    2    4    4    0    0  0.16195932115E+03 -0.11446181789E+03  0.28741500827E+03  0.35830244932E+03  0.80255397000E+02 0.  0.
         13    1    3    3    0    0  0.20054708275E+02 -0.58437037651E+03 -0.43364382754E+03  0.72796833546E+03  0.00000000000E+00 0. -1.
        -13    1    3    3    0    0  0.41436142640E+02 -0.96985930528E+02 -0.81298291867E+02  0.13316394744E+03  0.00000000000E+00 0.  1.
          2    1    5    5  502    0  0.13167144689E+03 -0.12403966449E+03  0.25733402724E+03  0.31455366771E+03  0.00000000000E+00 0. -1.
          1    1    4    4  503    0 -0.41705152413E+02  0.30721628314E+03  0.85342874225E+02  0.32156581059E+03  0.00000000000E+00 0. -1.
         -2    1    4    4    0  503 -0.18174501965E+03  0.48860184179E+03  0.33079202747E+02  0.52235739262E+03  0.00000000000E+00 0.  1.
         -1    1    5    5    0  502  0.30287874255E+02  0.95778466050E+01  0.30080981032E+02  0.43748781609E+02  0.00000000000E+00 0.  1.
<mgrwt>
<rscale>  0 0.20604713E+04</rscale>
<asrwt>0</asrwt>
<pdfrwt beam="1">  1        1 0.16711254E+00 0.20604713E+04</pdfrwt>
<pdfrwt beam="2">  1       -1 0.15032715E+00 0.20604713E+04</pdfrwt>
<totfact> 0.41570580E+00</totfact>
</mgrwt>
</event>
<event>
12    1  0.2502641E-008  0.1986825E+04  0.7818608E-02  0.8612805E-01
         -2   -1    0    0    0  501 -0.00000000000E+00  0.00000000000E+00  0.13979894059E+04  0.13979894059E+04  0.00000000000E+00 0.  1.
          2   -1    0    0  501    0  0.00000000000E+00 -0.00000000000E+00 -0.70591981087E+03  0.70591981087E+03  0.00000000000E+00 0. -1.
         23    2    1    2    0    0  0.16665146744E+03 -0.76725298298E+03  0.30762818844E+03  0.84825868269E+03  0.91966509908E+02 0.  0.
        254    2    1    2    0    0 -0.16665146744E+03  0.76725298298E+03  0.38444140655E+03  0.12556505341E+04  0.90133967910E+03 0.  0.
        -24    2    4    4    0    0 -0.22348539861E+03 -0.54581078983E+02 -0.13052681349E+03  0.28085432764E+03  0.94430327436E+02 0.  0.
         24    2    4    4    0    0  0.56833931167E+02  0.82183406196E+03  0.51496822004E+03  0.97479620642E+03  0.79962836779E+02 0.  0.
         11    1    3    3    0    0  0.28057103583E+02 -0.85359785984E+02  0.65838499899E+01  0.90093513670E+02  0.00000000000E+00 0. -1.
        -11    1    3    3    0    0  0.13859436386E+03 -0.68189319699E+03  0.30104433845E+03  0.75816516902E+03  0.00000000000E+00 0.  1.
          2    1    6    6  502    0 -0.18113912200E+02  0.28876317798E+03  0.18357472709E+03  0.34265429692E+03  0.00000000000E+00 0. -1.
          3    1    5    5  503    0 -0.24261102903E+02 -0.42038989784E+02 -0.32936140829E+02  0.58657200316E+02  0.00000000000E+00 0. -1.
         -4    1    5    5    0  503 -0.19922429570E+03 -0.12542089199E+02 -0.97590672660E+02  0.22219712732E+03  0.00000000000E+00 0.  1.
         -1    1    6    6    0  502  0.74947843367E+02  0.53307088398E+03  0.33139349295E+03  0.63214190949E+03  0.00000000000E+00 0.  1.
<mgrwt>
<rscale>  0 0.19868250E+04</rscale>
<asrwt>0</asrwt>
<pdfrwt beam="1">  1        2 0.10860305E+00 0.19868250E+04</pdfrwt>
<pdfrwt beam="2">  1       -2 0.21507529E+00 0.19868250E+04</pdfrwt>
<totfact> 0.40028512E+00</totfact>
</mgrwt>
</event>
<event>
12    1  0.2502641E-008  0.1824882E+04  0.7818608E-02  0.8693178E-01
         -2   -1    0    0    0  501 -0.00000000000E+00  0.00000000000E+00  0.35612986497E+03  0.35612986497E+03  0.00000000000E+00 0.  1.
          2   -1    0    0  501    0  0.00000000000E+00 -0.00000000000E+00 -0.23377680511E+04  0.23377680511E+04  0.00000000000E+00 0. -1.
         23    2    1    2    0    0  0.30863038762E+03 -0.43443897629E+03 -0.14037152266E+04  0.15045112671E+04  0.95644001406E+02 0.  0.
        254    2    1    2    0    0 -0.30863038762E+03  0.43443897629E+03 -0.57792295946E+03  0.11893866489E+04  0.89255572002E+03 0.  0.
        -24    2    4    4    0    0 -0.17975051516E+03  0.16569983252E+03 -0.77888911946E+03  0.82139494699E+03  0.90855469449E+02 0.  0.
         24    2    4    4    0    0 -0.12887987246E+03  0.26873914377E+03  0.20096616000E+03  0.36799170196E+03  0.78738467896E+02 0.  0.
         13    1    3    3    0    0  0.19789411662E+03 -0.20906450971E+03 -0.82047752239E+03  0.86951332098E+03  0.00000000000E+00 0. -1.
        -13    1    3    3    0    0  0.11073627100E+03 -0.22537446658E+03 -0.58323770424E+03  0.63499794610E+03  0.00000000000E+00 0.  1.
          4    1    6    6  502    0 -0.53783393060E+02  0.19187259398E+03  0.14779799886E+03  0.24809674354E+03  0.00000000000E+00 0. -1.
          1    1    5    5  503    0 -0.14597194021E+03  0.12124312642E+03 -0.69637499337E+03  0.72176577532E+03  0.00000000000E+00 0. -1.
         -2    1    5    5    0  503 -0.33778574957E+02  0.44456706096E+02 -0.82514126084E+02  0.99629171664E+02  0.00000000000E+00 0.  1.
         -3    1    6    6    0  502 -0.75096479398E+02  0.76866549793E+02  0.53168161139E+02  0.11989495842E+03  0.00000000000E+00 0.  1.
<mgrwt>
<rscale>  0 0.18248825E+04</rscale>
<asrwt>0</asrwt>
<pdfrwt beam="1">  1        2 0.35965661E+00 0.18248825E+04</pdfrwt>
<pdfrwt beam="2">  1       -2 0.54789212E-01 0.18248825E+04</pdfrwt>
<totfact> 0.12747792E+01</totfact>
</mgrwt>
</event>
<event>
11    1  0.2502641E-008  0.2998938E+04  0.7818608E-02  0.8244034E-01
         -1   -1    0    0    0  501 -0.00000000000E+00  0.00000000000E+00  0.22738499596E+04  0.22738499596E+04  0.00000000000E+00 0.  1.
          1   -1    0    0  501    0  0.00000000000E+00 -0.00000000000E+00 -0.98881045328E+03  0.98881045328E+03  0.00000000000E+00 0. -1.
         23    2    1    2    0    0  0.20938939814E+03 -0.73570307092E+03  0.18216048032E+04  0.19779064991E+04  0.93632960534E+02 0.  0.
        254    2    1    2    0    0 -0.20938939814E+03  0.73570307092E+03 -0.53656529690E+03  0.12847539138E+04  0.88180914750E+03 0.  0.
         24    2    4    4    0    0 -0.54542052971E+03  0.41730996412E+03 -0.31175029379E+03  0.75825865368E+03  0.78337601554E+02 0.  0.
         11    1    3    3    0    0  0.19348866476E+03 -0.57175804343E+03  0.13651499239E+04  0.14926417649E+04  0.00000000000E+00 0. -1.
        -11    1    3    3    0    0  0.15900733386E+02 -0.16394502749E+03  0.45645487929E+03  0.48526473413E+03  0.00000000000E+00 0.  1.
          4    1    5    5  502    0 -0.21352436011E+03  0.18916926764E+03 -0.16538777050E+03  0.32974350458E+03  0.00000000000E+00 0. -1.
          1    1    4    4  503    0  0.75835951003E+02  0.22661221777E+02 -0.16309891287E+02  0.80812344297E+02  0.00000000000E+00 0. -1.
         -2    1    4    4    0  503  0.26019518057E+03  0.29573188503E+03 -0.20850511182E+03  0.44568291584E+03  0.00000000000E+00 0.  1.
         -3    1    5    5    0  502 -0.33189616960E+03  0.22814069647E+03 -0.14636252329E+03  0.42851514910E+03  0.00000000000E+00 0.  1.
<mgrwt>
<rscale>  0 0.29989376E+04</rscale>
<asrwt>0</asrwt>
<pdfrwt beam="1">  1        1 0.15212469E+00 0.29989376E+04</pdfrwt>
<pdfrwt beam="2">  1       -1 0.34982307E+00 0.29989376E+04</pdfrwt>
<totfact> 0.20468383E-01</totfact>
</mgrwt>
</event>
<event>
11    1  0.2502641E-008  0.2354442E+04  0.7818608E-02  0.8456760E-01
         -2   -1    0    0    0  501 -0.00000000000E+00  0.00000000000E+00  0.78681948090E+03  0.78681948090E+03  0.00000000000E+00 0.  1.
          2   -1    0    0  501    0  0.00000000000E+00 -0.00000000000E+00 -0.17613303546E+04  0.17613303546E+04  0.00000000000E+00 0. -1.
         23    2    1    2    0    0  0.76090083623E+03  0.11491171542E+03  0.26437588224E+03  0.81875116506E+03  0.91016911988E+02 0.  0.
        254    2    1    2    0    0 -0.76090083623E+03 -0.11491171542E+03 -0.12388867559E+04  0.17293986704E+04  0.92941087917E+03 0.  0.
         24    2    4    4    0    0  0.81223087836E+02  0.51554110518E+02  0.78418590816E+02  0.14658740411E+03  0.77995995725E+02 0.  0.
         13    1    3    3    0    0  0.73397895209E+03  0.98879761990E+02  0.26709277810E+03  0.78729972790E+03  0.00000000000E+00 0.  1.
        -13    1    3    3    0    0  0.26921884140E+02  0.16031953432E+02 -0.27168958579E+01  0.31451437163E+02  0.00000000000E+00 0. -1.
          4    1    5    5  502    0  0.45531755356E+02  0.65692948144E+02  0.31372521028E+02  0.85865821240E+02  0.00000000000E+00 0. -1.
          3    1    4    4  503    0 -0.72476665374E+03 -0.82616183434E+02 -0.10411958817E+04  0.12712989421E+04  0.00000000000E+00 0. -1.
         -4    1    4    4    0  503 -0.11735727033E+03 -0.83849642507E+02 -0.27610946499E+03  0.31151232416E+03  0.00000000000E+00 0.  1.
         -3    1    5    5    0  502  0.35691332481E+02 -0.14138837626E+02  0.47046069788E+02  0.60721582870E+02  0.00000000000E+00 0.  1.
<mgrwt>
<rscale>  0 0.23544418E+04</rscale>
<asrwt>0</asrwt>
<pdfrwt beam="1">  1        2 0.27097390E+00 0.23544418E+04</pdfrwt>
<pdfrwt beam="2">  1       -2 0.12104915E+00 0.23544418E+04</pdfrwt>
<totfact> 0.42524593E+00</totfact>
</mgrwt>
</event>
<event>
11    1  0.2502641E-008  0.2324706E+04  0.7818608E-02  0.8468243E-01
         -1   -1    0    0    0  501 -0.00000000000E+00  0.00000000000E+00  0.16824882838E+04  0.16824882838E+04  0.00000000000E+00 0.  1.
          1   -1    0    0  501    0  0.00000000000E+00 -0.00000000000E+00 -0.80301577832E+03  0.80301577832E+03  0.00000000000E+00 0. -1.
         23    2    1    2    0    0 -0.48704388049E+03  0.96675630757E+02  0.12841533562E+04  0.13799154749E+04  0.92514628563E+02 0.  0.
        254    2    1    2    0    0  0.48704388049E+03 -0.96675630757E+02 -0.40468085072E+03  0.11055885872E+04  0.90111132175E+03 0.  0.
         24    2    4    4    0    0  0.33941332794E+03  0.36788337730E+03 -0.10865380003E+03  0.51808293886E+03  0.77876163240E+02 0.  0.
         13    1    3    3    0    0 -0.15966710063E+03  0.28794973347E+02  0.30843150346E+03  0.34850068270E+03  0.00000000000E+00 0. -1.
        -13    1    3    3    0    0 -0.32737677986E+03  0.67880657410E+02  0.97572185271E+03  0.10314147922E+04  0.00000000000E+00 0.  1.
          4    1    5    5  502    0  0.67295634302E+02  0.79788516313E+02 -0.55578282474E+02  0.11825335181E+03  0.00000000000E+00 0. -1.
          3    1    4    4  503    0  0.12133823969E+03 -0.18920351069E+03 -0.87909271036E+02  0.24134824798E+03  0.00000000000E+00 0. -1.
         -4    1    4    4    0  503  0.26292312860E+02 -0.27535549736E+03 -0.20811777965E+03  0.34615740040E+03  0.00000000000E+00 0.  1.
         -3    1    5    5    0  502  0.27211769364E+03  0.28809486098E+03 -0.53075517559E+02  0.39982958705E+03  0.00000000000E+00 0.  1.
<mgrwt>
<rscale>  0 0.23247061E+04</rscale>
<asrwt>0</asrwt>
<pdfrwt beam="1">  1        1 0.12354089E+00 0.23247061E+04</pdfrwt>
<pdfrwt beam="2">  1       -1 0.25884435E+00 0.23247061E+04</pdfrwt>
<totfact> 0.12100564E+00</totfact>
</mgrwt>
</event>
<event>
11    1  0.2502641E-008  0.1136978E+04  0.7818608E-02  0.9169882E-01
         -2   -1    0    0    0  501 -0.00000000000E+00  0.00000000000E+00  0.21257579977E+03  0.21257579977E+03  0.00000000000E+00 0.  1.
          2   -1    0    0  501    0  0.00000000000E+00 -0.00000000000E+00 -0.15203030847E+04  0.15203030847E+04  0.00000000000E+00 0. -1.
         23    2    1    2    0    0  0.51610964472E+02  0.15839441337E+03 -0.36893518576E+03  0.41519418583E+03  0.92306873088E+02 0.  0.
        254    2    1    2    0    0 -0.51610964472E+02 -0.15839441337E+03 -0.93879209914E+03  0.13176846986E+04  0.90951079030E+03 0.  0.
         24    2    4    4    0    0 -0.36229063411E+03  0.90760873942E+02 -0.43195985452E+03  0.57599391016E+03  0.75416369770E+02 0.  0.
         13    1    3    3    0    0  0.16240268030E+02  0.79176818144E+02 -0.80818797303E+02  0.11429957495E+03  0.00000000000E+00 0. -1.
        -13    1    3    3    0    0  0.35370696442E+02  0.79217595225E+02 -0.28811638845E+03  0.30089461088E+03  0.00000000000E+00 0.  1.
          2    1    5    5  502    0 -0.36116805284E+03  0.88930428818E+02 -0.40863312801E+03  0.55256856305E+03  0.00000000000E+00 0. -1.
          3    1    4    4  503    0  0.23058206456E+03 -0.11552187941E+03 -0.52491069605E+03  0.58484581895E+03  0.00000000000E+00 0. -1.
         -4    1    4    4    0  503  0.80097605076E+02 -0.13363340791E+03  0.18078451421E+02  0.15684496949E+03  0.00000000000E+00 0.  1.
         -1    1    5    5    0  502 -0.11225812723E+01  0.18304451244E+01 -0.23326726505E+02  0.23425347116E+02  0.00000000000E+00 0.  1.
<mgrwt>
<rscale>  0 0.11369778E+04</rscale>
<asrwt>0</asrwt>
<pdfrwt beam="1">  1        2 0.23389277E+00 0.11369778E+04</pdfrwt>
<pdfrwt beam="2">  1       -2 0.32703971E-01 0.11369778E+04</pdfrwt>
<totfact> 0.10670327E+02</totfact>
</mgrwt>
</event>
<event>
11    1  0.2502641E-008  0.1487027E+04  0.7818608E-02  0.8893126E-01
          1   -1    0    0  501    0  0.00000000000E+00  0.00000000000E+00  0.47557849893E+03  0.47557849893E+03  0.00000000000E+00 0. -1.
         -1   -1    0    0    0  501 -0.00000000000E+00 -0.00000000000E+00 -0.11624004066E+04  0.11624004066E+04  0.00000000000E+00 0.  1.
         23    2    1    2    0    0  0.26956478563E+03  0.25466820074E+03 -0.56279563383E+03  0.67992726095E+03  0.89672117200E+02 0.  0.
        254    2    1    2    0    0 -0.26956478563E+03 -0.25466820074E+03 -0.12402627383E+03  0.95805164457E+03  0.87461955783E+03 0.  0.
         24    2    4    4    0    0  0.23552349780E+03 -0.30051158787E+03 -0.16703618653E+03  0.42552900931E+03  0.85996033043E+02 0.  0.
         13    1    3    3    0    0  0.12815008779E+03  0.18150658301E+03 -0.31942080363E+03  0.38909733290E+03  0.00000000000E+00 0. -1.
        -13    1    3    3    0    0  0.14141469784E+03  0.73161617720E+02 -0.24337483020E+03  0.29082992805E+03  0.00000000000E+00 0.  1.
          4    1    5    5  502    0  0.35592009561E+02 -0.25470538278E+02  0.57051509109E+01  0.44137152283E+02  0.00000000000E+00 0. -1.
          3    1    4    4  503    0 -0.44787030122E+01 -0.81740119335E+00 -0.24779057623E+02  0.25193821109E+02  0.00000000000E+00 0. -1.
         -4    1    4    4    0  503 -0.50060958041E+03  0.46660788326E+02  0.67788970322E+02  0.50732881415E+03  0.00000000000E+00 0.  1.
         -1    1    5    5    0  502  0.19993148823E+03 -0.27504104959E+03 -0.17274133744E+03  0.38139185703E+03  0.00000000000E+00 0.  1.
<mgrwt>
<rscale>  0 0.14870274E+04</rscale>
<asrwt>0</asrwt>
<pdfrwt beam="1">  1        1 0.73165924E-01 0.14870274E+04</pdfrwt>
<pdfrwt beam="2">  1       -1 0.17883083E+00 0.14870274E+04</pdfrwt>
<totfact> 0.97556427E+00</totfact>
</mgrwt>
</event>
<event>
12    1  0.2502641E-008  0.1668547E+04  0.7818608E-02  0.8779509E-01
          1   -1    0    0  501    0  0.00000000000E+00  0.00000000000E+00  0.68590851495E+03  0.68590851495E+03  0.00000000000E+00 0. -1.
         -1   -1    0    0    0  501 -0.00000000000E+00 -0.00000000000E+00 -0.10147304889E+04  0.10147304889E+04  0.00000000000E+00 0.  1.
         23    2    1    2    0    0 -0.32364046528E+03 -0.43154492057E+03  0.11660793884E+03  0.55932612583E+03  0.90962269119E+02 0.  0.
        254    2    1    2    0    0  0.32364046528E+03  0.43154492057E+03 -0.44542991275E+03  0.11413128780E+04  0.90178329383E+03 0.  0.
        -24    2    4    4    0    0 -0.23700988590E+03  0.37374881817E+03 -0.33269724318E+03  0.56116339299E+03  0.91405869133E+02 0.  0.
         24    2    4    4    0    0  0.56065035118E+03  0.57796102394E+02 -0.11273266957E+03  0.58014948499E+03  0.78711907728E+02 0.  0.
         13    1    3    3    0    0 -0.40425361027E+02 -0.85932440939E+02 -0.84002740637E+01  0.95337080007E+02  0.00000000000E+00 0.  1.
        -13    1    3    3    0    0 -0.28321510425E+03 -0.34561247963E+03  0.12500821290E+03  0.46398904583E+03  0.00000000000E+00 0. -1.
          4    1    6    6  502    0  0.55600517595E+03  0.52656986655E+02 -0.10254419304E+03  0.56782904598E+03  0.00000000000E+00 0. -1.
          3    1    5    5  503    0 -0.20211285668E+03  0.24047517557E+03 -0.22988125926E+03  0.38925995204E+03  0.00000000000E+00 0. -1.
         -4    1    5    5    0  503 -0.34897029211E+02  0.13327364260E+03 -0.10281598392E+03  0.17190344095E+03  0.00000000000E+00 0.  1.
         -3    1    6    6    0  502  0.46451752228E+01  0.51391157391E+01 -0.10188476528E+02  0.12320439010E+02  0.00000000000E+00 0.  1.
<mgrwt>
<rscale>  0 0.16685470E+04</rscale>
<asrwt>0</asrwt>
<pdfrwt beam="1">  1        1 0.10552439E+00 0.16685470E+04</pdfrwt>
<pdfrwt beam="2">  1       -1 0.15611238E+00 0.16685470E+04</pdfrwt>
<totfact> 0.83888000E+00</totfact>
</mgrwt>
</event>
<event>
11    1  0.2502641E-008  0.2625839E+04  0.7818608E-02  0.8359477E-01
         -2   -1    0    0    0  501 -0.00000000000E+00  0.00000000000E+00  0.37333455206E+03  0.37333455206E+03  0.00000000000E+00 0.  1.
          2   -1    0    0  501    0  0.00000000000E+00 -0.00000000000E+00 -0.46171928153E+04  0.46171928153E+04  0.00000000000E+00 0. -1.
         23    2    1    2    0    0  0.88573537264E+03  0.72277020579E+03 -0.15182895872E+04  0.19027137631E+04  0.90512280790E+02 0.  0.
        254    2    1    2    0    0 -0.88573537264E+03 -0.72277020579E+03 -0.27255686760E+04  0.30878136042E+04  0.89383685656E+03 0.  0.
         24    2    4    4    0    0 -0.56133632067E+03 -0.71403037212E+03 -0.11124024963E+04  0.14383424145E+04  0.80322787982E+02 0.  0.
         11    1    3    3    0    0  0.58025732571E+03  0.47924808024E+03 -0.10688498193E+04  0.13072173586E+04  0.00000000000E+00 0. -1.
        -11    1    3    3    0    0  0.30547804692E+03  0.24352212555E+03 -0.44943976797E+03  0.59549640454E+03  0.00000000000E+00 0.  1.
          4    1    5    5  502    0 -0.48216318542E+03 -0.58974232164E+03 -0.97061591340E+03  0.12338446396E+04  0.00000000000E+00 0. -1.
          3    1    4    4  503    0 -0.13647245027E+03  0.46743357188E+02 -0.56343589028E+03  0.58160955424E+03  0.00000000000E+00 0. -1.
         -4    1    4    4    0  503 -0.18792660170E+03 -0.55483190850E+02 -0.10497302894E+04  0.10678616355E+04  0.00000000000E+00 0.  1.
         -3    1    5    5    0  502 -0.79173135248E+02 -0.12428805049E+03 -0.14178658288E+03  0.20449777486E+03  0.00000000000E+00 0.  1.
<mgrwt>
<rscale>  0 0.26258390E+04</rscale>
<asrwt>0</asrwt>
<pdfrwt beam="1">  1        2 0.71033731E+00 0.26258390E+04</pdfrwt>
<pdfrwt beam="2">  1       -2 0.57436089E-01 0.26258390E+04</pdfrwt>
<totfact> 0.23620041E-01</totfact>
</mgrwt>
</event>
<event>
11    1  0.2502641E-008  0.1739765E+04  0.7818608E-02  0.8739004E-01
          2   -1    0    0  501    0  0.00000000000E+00  0.00000000000E+00  0.98820423720E+03  0.98820423720E+03  0.00000000000E+00 0. -1.
         -2   -1    0    0    0  501 -0.00000000000E+00 -0.00000000000E+00 -0.76572824063E+03  0.76572824063E+03  0.00000000000E+00 0.  1.
         23    2    1    2    0    0 -0.29386277004E+03  0.55171564934E+03  0.11751445585E+03  0.64250606832E+03  0.90878573669E+02 0.  0.
        254    2    1    2    0    0  0.29386277004E+03 -0.55171564934E+03  0.10496154071E+03  0.11114264095E+04  0.91296563647E+03 0.  0.
         24    2    4    4    0    0  0.38821646056E+03 -0.34819674882E+03  0.44085699795E+03  0.68745175308E+03  0.79259220446E+02 0.  0.
         13    1    3    3    0    0 -0.14848216565E+03  0.36994015040E+03  0.64940286293E+02  0.40388105821E+03  0.00000000000E+00 0. -1.
        -13    1    3    3    0    0 -0.14538060438E+03  0.18177549894E+03  0.52574169560E+02  0.23862501011E+03  0.00000000000E+00 0.  1.
          2    1    5    5  502    0  0.11285733289E+03 -0.11749797699E+03  0.93969480304E+02  0.18807662112E+03  0.00000000000E+00 0. -1.
          1    1    4    4  503    0 -0.18499714892E+02 -0.42631525667E+02 -0.30373651760E+01  0.46571579520E+02  0.00000000000E+00 0. -1.
         -2    1    4    4    0  503 -0.75853975633E+02 -0.16088737485E+03 -0.33285809206E+03  0.37740307691E+03  0.00000000000E+00 0.  1.
         -1    1    5    5    0  502  0.27535912767E+03 -0.23069877184E+03  0.34688751765E+03  0.49937513196E+03  0.00000000000E+00 0.  1.
<mgrwt>
<rscale>  0 0.17397654E+04</rscale>
<asrwt>0</asrwt>
<pdfrwt beam="1">  1        2 0.15203142E+00 0.17397654E+04</pdfrwt>
<pdfrwt beam="2">  1       -2 0.11780435E+00 0.17397654E+04</pdfrwt>
<totfact> 0.13517054E+01</totfact>
</mgrwt>
</event>
<event>
12    1  0.2502641E-008  0.2199982E+04  0.7818608E-02  0.8518436E-01
         -2   -1    0    0    0  501 -0.00000000000E+00  0.00000000000E+00  0.73750259821E+03  0.73750259821E+03  0.00000000000E+00 0.  1.
          2   -1    0    0  501    0  0.00000000000E+00 -0.00000000000E+00 -0.16406449923E+04  0.16406449923E+04  0.00000000000E+00 0. -1.
         23    2    1    2    0    0  0.61882456831E+03  0.21285742089E+03 -0.11115904492E+04  0.12932132713E+04  0.92277355861E+02 0.  0.
        254    2    1    2    0    0 -0.61882456831E+03 -0.21285742089E+03  0.20844805515E+03  0.10849343192E+04  0.83986889286E+03 0.  0.
        -24    2    4    4    0    0 -0.14144424589E+03 -0.15372704388E+03  0.47628867169E+03  0.52801057471E+03  0.91136104282E+02 0.  0.
         24    2    4    4    0    0 -0.47738032242E+03 -0.59130377009E+02 -0.26784061654E+03  0.55692374444E+03  0.83887350278E+02 0.  0.
         11    1    3    3    0    0  0.56241590853E+02  0.12262727160E+02 -0.55695832926E+02  0.80096921441E+02  0.00000000000E+00 0.  1.
        -11    1    3    3    0    0  0.56258297746E+03  0.20059469373E+03 -0.10558946163E+04  0.12131163499E+04  0.00000000000E+00 0. -1.
          2    1    6    6  502    0 -0.14332446623E+03 -0.16840686682E+02 -0.12588917690E+03  0.19150351487E+03  0.00000000000E+00 0. -1.
          1    1    5    5  503    0 -0.96661186081E+02 -0.10340868040E+03  0.20941805747E+03  0.25276998016E+03  0.00000000000E+00 0. -1.
         -2    1    5    5    0  503 -0.44783059811E+02 -0.50318363477E+02  0.26687061422E+03  0.27524059454E+03  0.00000000000E+00 0.  1.
         -1    1    6    6    0  502 -0.33405585619E+03 -0.42289690326E+02 -0.14195143964E+03  0.36542022957E+03  0.00000000000E+00 0.  1.
<mgrwt>
<rscale>  0 0.21999818E+04</rscale>
<asrwt>0</asrwt>
<pdfrwt beam="1">  1        2 0.25240692E+00 0.21999818E+04</pdfrwt>
<pdfrwt beam="2">  1       -2 0.11346194E+00 0.21999818E+04</pdfrwt>
<totfact> 0.58952767E+00</totfact>
</mgrwt>
</event>
<event>
12    1  0.2502641E-008  0.2938666E+04  0.7818608E-02  0.8261465E-01
          1   -1    0    0  501    0  0.00000000000E+00  0.00000000000E+00  0.80049887787E+03  0.80049887787E+03  0.00000000000E+00 0. -1.
         -1   -1    0    0    0  501 -0.00000000000E+00 -0.00000000000E+00 -0.26969915858E+04  0.26969915858E+04  0.00000000000E+00 0.  1.
         23    2    1    2    0    0 -0.12616330906E+04 -0.28617914200E+03 -0.49608724181E+03  0.13885181356E+04  0.90903821995E+02 0.  0.
        254    2    1    2    0    0  0.12616330906E+04  0.28617914200E+03 -0.14004054661E+04  0.21089723280E+04  0.90167192156E+03 0.  0.
        -24    2    4    4    0    0  0.60884402907E+03  0.53480550485E+03 -0.45824073960E+03  0.93334668657E+03  0.66659449054E+02 0.  0.
         24    2    4    4    0    0  0.65278906156E+03 -0.24862636284E+03 -0.94216472649E+03  0.11756256414E+04  0.80452779717E+02 0.  0.
         13    1    3    3    0    0 -0.68126288178E+03 -0.13625024809E+03 -0.22161873379E+03  0.72924488847E+03  0.00000000000E+00 0. -1.
        -13    1    3    3    0    0 -0.58037020885E+03 -0.14992889392E+03 -0.27446850802E+03  0.65927324718E+03  0.00000000000E+00 0.  1.
          4    1    6    6  502    0  0.37738050346E+02 -0.18454525496E+02 -0.29855643257E+02  0.51537262146E+02  0.00000000000E+00 0. -1.
          3    1    5    5  503    0  0.62912458555E+02  0.35530472642E+02 -0.54802762208E+02  0.90684809495E+02  0.00000000000E+00 0. -1.
         -4    1    5    5    0  503  0.54593157051E+03  0.49927503221E+03 -0.40343797739E+03  0.84266187707E+03  0.00000000000E+00 0.  1.
         -3    1    6    6    0  502  0.61505101121E+03 -0.23017183735E+03 -0.91230908323E+03  0.11240883793E+04  0.00000000000E+00 0.  1.
<mgrwt>
<rscale>  0 0.29386655E+04</rscale>
<asrwt>0</asrwt>
<pdfrwt beam="1">  1        1 0.12315367E+00 0.29386655E+04</pdfrwt>
<pdfrwt beam="2">  1       -1 0.41492179E+00 0.29386655E+04</pdfrwt>
<totfact> 0.10670652E-01</totfact>
</mgrwt>
</event>
<event>
12    1  0.2502641E-008  0.1554598E+04  0.7818608E-02  0.8848936E-01
          2   -1    0    0  501    0  0.00000000000E+00  0.00000000000E+00  0.74112009886E+03  0.74112009886E+03  0.00000000000E+00 0. -1.
         -2   -1    0    0    0  501 -0.00000000000E+00 -0.00000000000E+00 -0.81524364541E+03  0.81524364541E+03  0.00000000000E+00 0.  1.
         23    2    1    2    0    0 -0.37468839802E+03 -0.13001337551E+03 -0.33382232390E+03  0.52573034821E+03  0.87522463814E+02 0.  0.
        254    2    1    2    0    0  0.37468839802E+03  0.13001337551E+03  0.25969877736E+03  0.10306333961E+04  0.91513215914E+03 0.  0.
        -24    2    4    4    0    0  0.60169112640E+03  0.93154864133E+02  0.41327553778E+03  0.74189401211E+03  0.94339889618E+02 0.  0.
         24    2    4    4    0    0 -0.22700272839E+03  0.36858511377E+02 -0.15357676042E+03  0.28873938395E+03  0.83041085908E+02 0.  0.
         13    1    3    3    0    0 -0.65957759181E+02  0.82951869355E+01 -0.71632516552E+02  0.97726421965E+02  0.00000000000E+00 0. -1.
        -13    1    3    3    0    0 -0.30873063884E+03 -0.13830856245E+03 -0.26218980735E+03  0.42800392624E+03  0.00000000000E+00 0.  1.
          4    1    6    6  502    0 -0.19570713427E+03  0.93201172029E+01 -0.15027437972E+03  0.24692212576E+03  0.00000000000E+00 0. -1.
          3    1    5    5  503    0  0.43499621064E+03  0.10965833919E+03  0.30278397553E+03  0.54122526776E+03  0.00000000000E+00 0. -1.
         -4    1    5    5    0  503  0.16669491576E+03 -0.16503475056E+02  0.11049156224E+03  0.20066874435E+03  0.00000000000E+00 0.  1.
         -3    1    6    6    0  502 -0.31295594117E+02  0.27538394174E+02 -0.33023807024E+01  0.41817258197E+02  0.00000000000E+00 0.  1.
<mgrwt>
<rscale>  0 0.15545976E+04</rscale>
<asrwt>0</asrwt>
<pdfrwt beam="1">  1        2 0.11401848E+00 0.15545976E+04</pdfrwt>
<pdfrwt beam="2">  1       -2 0.12542210E+00 0.15545976E+04</pdfrwt>
<totfact> 0.17419562E+01</totfact>
</mgrwt>
</event>
<event>
12    1  0.2502641E-008  0.1734376E+04  0.7818608E-02  0.8741998E-01
          2   -1    0    0  501    0  0.00000000000E+00  0.00000000000E+00  0.12611475095E+04  0.12611475095E+04  0.00000000000E+00 0. -1.
         -2   -1    0    0    0  501 -0.00000000000E+00 -0.00000000000E+00 -0.59629413015E+03  0.59629413015E+03  0.00000000000E+00 0.  1.
         23    2    1    2    0    0 -0.34393557800E+03 -0.43412036698E+03 -0.77026282934E+02  0.56643712712E+03  0.90364793378E+02 0.  0.
        254    2    1    2    0    0  0.34393557800E+03  0.43412036698E+03  0.74187966232E+03  0.12910045126E+04  0.89975276784E+03 0.  0.
        -24    2    4    4    0    0 -0.14348738739E+03  0.51088203548E+03  0.27625500924E+03  0.60775533441E+03  0.10705434071E+03 0.  0.
         24    2    4    4    0    0  0.48742296538E+03 -0.76761668498E+02  0.46562465309E+03  0.68324917814E+03  0.80929728405E+02 0.  0.
         13    1    3    3    0    0 -0.20557630073E+03 -0.27090741196E+03 -0.90915806431E+02  0.35202006354E+03  0.00000000000E+00 0.  1.
        -13    1    3    3    0    0 -0.13835927726E+03 -0.16321295503E+03  0.13889523497E+02  0.21441706359E+03  0.00000000000E+00 0. -1.
          2    1    6    6  502    0  0.94287383821E+02  0.14551687901E+02  0.10676861999E+03  0.14318310160E+03  0.00000000000E+00 0. -1.
          3    1    5    5  503    0 -0.15284852438E+03  0.37808040270E+03  0.21824352212E+03  0.46253399579E+03  0.00000000000E+00 0. -1.
         -4    1    5    5    0  503  0.93611369977E+01  0.13280163278E+03  0.58011487118E+02  0.14522133863E+03  0.00000000000E+00 0.  1.
         -1    1    6    6    0  502  0.39313558156E+03 -0.91313356400E+02  0.35885603310E+03  0.54006607655E+03  0.00000000000E+00 0.  1.
<mgrwt>
<rscale>  0 0.17343758E+04</rscale>
<asrwt>0</asrwt>
<pdfrwt beam="1">  1        2 0.19402269E+00 0.17343758E+04</pdfrwt>
<pdfrwt beam="2">  1       -2 0.91737559E-01 0.17343758E+04</pdfrwt>
<totfact> 0.16718281E+01</totfact>
</mgrwt>
</event>
<event>
11    1  0.2502641E-008  0.1494763E+04  0.7818608E-02  0.8887943E-01
         -2   -1    0    0    0  501 -0.00000000000E+00  0.00000000000E+00  0.65639600926E+03  0.65639600926E+03  0.00000000000E+00 0.  1.
          2   -1    0    0  501    0  0.00000000000E+00 -0.00000000000E+00 -0.85097836336E+03  0.85097836336E+03  0.00000000000E+00 0. -1.
         23    2    1    2    0    0 -0.37608638179E+03 -0.31739176184E+03 -0.27743466486E+03  0.57213929601E+03  0.90525597050E+02 0.  0.
        254    2    1    2    0    0  0.37608638179E+03  0.31739176184E+03  0.82852310759E+02  0.93523507662E+03  0.79096248083E+03 0.  0.
         24    2    4    4    0    0  0.33594303326E+03  0.53424850721E+03  0.18266046176E+03  0.66177423315E+03  0.79379482992E+02 0.  0.
         11    1    3    3    0    0 -0.28940129149E+03 -0.28055545668E+03 -0.24889708047E+03  0.47372378920E+03  0.00000000000E+00 0. -1.
        -11    1    3    3    0    0 -0.86685090297E+02 -0.36836305163E+02 -0.28537584397E+02  0.98415506812E+02  0.00000000000E+00 0.  1.
          2    1    5    5  502    0  0.93699241298E+02  0.11933917850E+03  0.75694584829E+02  0.16956136800E+03  0.00000000000E+00 0. -1.
          1    1    4    4  503    0  0.43522516178E+00 -0.14994862146E+03 -0.12115930150E+03  0.19278058730E+03  0.00000000000E+00 0. -1.
         -2    1    4    4    0  503  0.39708123366E+02 -0.66908123911E+02  0.21351150500E+02  0.80680256161E+02  0.00000000000E+00 0.  1.
         -3    1    5    5    0  502  0.24224379196E+03  0.41490932871E+03  0.10696587693E+03  0.49221286516E+03  0.00000000000E+00 0.  1.
<mgrwt>
<rscale>  0 0.14947626E+04</rscale>
<asrwt>0</asrwt>
<pdfrwt beam="1">  1        2 0.13091975E+00 0.14947626E+04</pdfrwt>
<pdfrwt beam="2">  1       -2 0.10098400E+00 0.14947626E+04</pdfrwt>
<totfact> 0.24722675E+01</totfact>
</mgrwt>
</event>
<event>
12    1  0.2695079E-008  0.2820274E+04  0.7818608E-02  0.8297001E-01
          1   -1    0    0  501    0  0.00000000000E+00  0.00000000000E+00  0.17942697629E+04  0.17942697629E+04  0.00000000000E+00 0. -1.
         -1   -1    0    0    0  501 -0.00000000000E+00 -0.00000000000E+00 -0.11082430413E+04  0.11082430413E+04  0.00000000000E+00 0.  1.
         23    2    1    2    0    0  0.13606833506E+03  0.17702456816E+03 -0.97321184194E+03  0.10026661805E+04  0.91355846841E+02 0.  0.
        254    2    1    2    0    0 -0.13606833506E+03 -0.17702456816E+03  0.16592385636E+04  0.18998466237E+04  0.89804915960E+03 0.  0.
        -24    2    4    4    0    0  0.20217395143E+03 -0.32549485298E+03  0.13679126874E+04  0.14236182755E+04  0.93180834512E+02 0.  0.
         24    2    4    4    0    0 -0.33824228648E+03  0.14847028483E+03  0.29132587614E+03  0.47622834817E+03  0.73968937073E+02 0.  0.
         13    1    3    3    0    0 -0.75480622509E+01  0.45163970540E+02 -0.16136783878E+03  0.16773889493E+03  0.00000000000E+00 0. -1.
        -13    1    3    3    0    0  0.14361639731E+03  0.13186059762E+03 -0.81184400316E+03  0.83492728561E+03  0.00000000000E+00 0.  1.
          2    1    6    6  502    0 -0.33182885137E+03  0.15609143928E+03  0.28224440767E+03  0.46274920819E+03  0.00000000000E+00 0. -1.
          1    1    5    5  503    0  0.20671787897E+03 -0.27846213471E+03  0.11855879291E+04  0.12352700836E+04  0.00000000000E+00 0. -1.
         -2    1    5    5    0  503 -0.45439275452E+01 -0.47032718271E+02  0.18232475836E+03  0.18834819186E+03  0.00000000000E+00 0.  1.
         -1    1    6    6    0  502 -0.64134351107E+01 -0.76211544512E+01  0.90814684682E+01  0.13479139981E+02  0.00000000000E+00 0.  1.
<mgrwt>
<rscale>  0 0.28202744E+04</rscale>
<asrwt>0</asrwt>
<pdfrwt beam="1">  1        1 0.27604150E+00 0.28202744E+04</pdfrwt>
<pdfrwt beam="2">  1       -1 0.17049893E+00 0.28202744E+04</pdfrwt>
<totfact> 0.86682695E-01</totfact>
</mgrwt>
</event>
<event>
12    1  0.2502641E-008  0.2157470E+04  0.7818608E-02  0.8536342E-01
         -1   -1    0    0    0  501 -0.00000000000E+00  0.00000000000E+00  0.10944035039E+04  0.10944035039E+04  0.00000000000E+00 0.  1.
          1   -1    0    0  501    0  0.00000000000E+00 -0.00000000000E+00 -0.10632905499E+04  0.10632905499E+04  0.00000000000E+00 0. -1.
         23    2    1    2    0    0  0.58949000273E+03  0.27186920042E+03  0.60925702898E+03  0.89500829589E+03  0.91838972636E+02 0.  0.
        254    2    1    2    0    0 -0.58949000273E+03 -0.27186920042E+03 -0.57814407502E+03  0.12626857579E+04  0.91581298645E+03 0.  0.
        -24    2    4    4    0    0  0.11140389522E+03 -0.13124179143E+03 -0.50783804821E+03  0.54018881187E+03  0.65339372340E+02 0.  0.
         24    2    4    4    0    0 -0.70089389795E+03 -0.14062740899E+03 -0.70306026816E+02  0.72249694598E+03  0.77656778249E+02 0.  0.
         13    1    3    3    0    0  0.35783354807E+03  0.11638881627E+03  0.33547586209E+03  0.50411829834E+03  0.00000000000E+00 0. -1.
        -13    1    3    3    0    0  0.23165645466E+03  0.15548038414E+03  0.27378116689E+03  0.39088999755E+03  0.00000000000E+00 0.  1.
          4    1    6    6  502    0 -0.30276695238E+03 -0.39664277976E+02 -0.62548073129E+02  0.31169431155E+03  0.00000000000E+00 0. -1.
          1    1    5    5  503    0  0.10700489291E+03 -0.13289520619E+03 -0.50757227256E+03  0.53548183425E+03  0.00000000000E+00 0. -1.
         -2    1    5    5    0  503  0.43990023046E+01  0.16534147596E+01 -0.26577564245E+00  0.47069776222E+01  0.00000000000E+00 0.  1.
         -3    1    6    6    0  502 -0.39812694557E+03 -0.10096313101E+03 -0.77579536876E+01  0.41080263443E+03  0.00000000000E+00 0.  1.
<mgrwt>
<rscale>  0 0.21574697E+04</rscale>
<asrwt>0</asrwt>
<pdfrwt beam="1">  1        1 0.16358316E+00 0.21574697E+04</pdfrwt>
<pdfrwt beam="2">  1       -1 0.16836977E+00 0.21574697E+04</pdfrwt>
<totfact> 0.31296745E+00</totfact>
</mgrwt>
</event>
<event>
12    1  0.2502641E-008  0.1256216E+04  0.7818608E-02  0.9065026E-01
          2   -1    0    0  501    0  0.00000000000E+00  0.00000000000E+00  0.29382286366E+03  0.29382286366E+03  0.00000000000E+00 0. -1.
         -2   -1    0    0    0  501 -0.00000000000E+00 -0.00000000000E+00 -0.13427115987E+04  0.13427115987E+04  0.00000000000E+00 0.  1.
         23    2    1    2    0    0  0.12095906340E+03 -0.17876116402E+03  0.20237716714E+02  0.23543277420E+03  0.91827976200E+02 0.  0.
        254    2    1    2    0    0 -0.12095906340E+03  0.17876116402E+03 -0.10691264518E+04  0.14011016882E+04  0.87947025073E+03 0.  0.
        -24    2    4    4    0    0 -0.31755866908E+03  0.10379390687E+03 -0.40852363592E+02  0.34848913678E+03  0.90327622746E+02 0.  0.
         24    2    4    4    0    0  0.19659960568E+03  0.74967257142E+02 -0.10282740882E+04  0.10526125514E+04  0.79837887773E+02 0.  0.
         11    1    3    3    0    0  0.12835261047E+03 -0.13294451808E+03 -0.23240785589E-01  0.18479350108E+03  0.00000000000E+00 0.  1.
        -11    1    3    3    0    0 -0.73935470769E+01 -0.45816645936E+02  0.20260957499E+02  0.50639273119E+02  0.00000000000E+00 0. -1.
          4    1    6    6  502    0  0.76994221669E+02  0.52727772193E+02 -0.29784570761E+03  0.31212240175E+03  0.00000000000E+00 0. -1.
          1    1    5    5  503    0 -0.88648262441E+01 -0.10668285620E+02  0.74309496151E+01  0.15735834093E+02  0.00000000000E+00 0. -1.
         -4    1    5    5    0  503 -0.30869384283E+03  0.11446219249E+03 -0.48283313207E+02  0.33275330268E+03  0.00000000000E+00 0.  1.
         -3    1    6    6    0  502  0.11960538401E+03  0.22239484949E+02 -0.73042838057E+03  0.74049014965E+03  0.00000000000E+00 0.  1.
<mgrwt>
<rscale>  0 0.12562155E+04</rscale>
<asrwt>0</asrwt>
<pdfrwt beam="1">  1        2 0.45203517E-01 0.12562155E+04</pdfrwt>
<pdfrwt beam="2">  1       -2 0.20657102E+00 0.12562155E+04</pdfrwt>
<totfact> 0.13304677E+01</totfact>
</mgrwt>
</event>
<event>
12    1  0.2502641E-008  0.1568724E+04  0.7818608E-02  0.8839996E-01
         -1   -1    0    0    0  501 -0.00000000000E+00  0.00000000000E+00  0.48402189908E+03  0.48402189908E+03  0.00000000000E+00 0.  1.
          1   -1    0    0  501    0  0.00000000000E+00 -0.00000000000E+00 -0.12710655855E+04  0.12710655855E+04  0.00000000000E+00 0. -1.
         23    2    1    2    0    0  0.64861632673E+02 -0.37830849109E+03 -0.56602140295E+03  0.69001146816E+03  0.91712876752E+02 0.  0.
        254    2    1    2    0    0 -0.64861632673E+02  0.37830849109E+03 -0.22102228350E+03  0.10650760164E+04  0.96861330013E+03 0.  0.
        -24    2    4    4    0    0 -0.29848472475E+03  0.34250540875E+03  0.25371366869E+03  0.52880599452E+03  0.94138558651E+02 0.  0.
         24    2    4    4    0    0  0.23362309208E+03  0.35803082340E+02 -0.47473595220E+03  0.53627002193E+03  0.79685018986E+02 0.  0.
         13    1    3    3    0    0  0.44230817641E+02 -0.33731620997E+03 -0.44195752972E+03  0.55773205827E+03  0.00000000000E+00 0. -1.
        -13    1    3    3    0    0  0.20630815032E+02 -0.40992281120E+02 -0.12406387323E+03  0.13227940989E+03  0.00000000000E+00 0.  1.
          4    1    6    6  502    0  0.70018510896E+02  0.48485666997E+02 -0.15321185978E+03  0.17529211548E+03  0.00000000000E+00 0. -1.
          1    1    5    5  503    0 -0.51942949996E+02  0.25616774845E+02  0.90087541861E+01  0.58612685143E+02  0.00000000000E+00 0. -1.
         -2    1    5    5    0  503 -0.24654177476E+03  0.31688863391E+03  0.24470491451E+03  0.47019330938E+03  0.00000000000E+00 0.  1.
         -3    1    6    6    0  502  0.16360458119E+03 -0.12682584657E+02 -0.32152409242E+03  0.36097790645E+03  0.00000000000E+00 0.  1.
<mgrwt>
<rscale>  0 0.15687238E+04</rscale>
<asrwt>0</asrwt>
<pdfrwt beam="1">  1        1 0.19554855E+00 0.15687238E+04</pdfrwt>
<pdfrwt beam="2">  1       -1 0.74464908E-01 0.15687238E+04</pdfrwt>
<totfact> 0.16567075E+01</totfact>
</mgrwt>
</event>
<event>
12    1  0.2502641E-008  0.1016294E+04  0.7818608E-02  0.9290852E-01
         -2   -1    0    0    0  501 -0.00000000000E+00  0.00000000000E+00  0.16972345165E+03  0.16972345165E+03  0.00000000000E+00 0.  1.
          2   -1    0    0  501    0  0.00000000000E+00 -0.00000000000E+00 -0.15213779112E+04  0.15213779112E+04  0.00000000000E+00 0. -1.
         23    2    1    2    0    0 -0.50828157047E+02  0.14973005749E+01 -0.22488322278E+03  0.24834856702E+03  0.92297363982E+02 0.  0.
        254    2    1    2    0    0  0.50828157047E+02 -0.14973005749E+01 -0.11267712368E+04  0.14427527959E+04  0.89963129469E+03 0.  0.
        -24    2    4    4    0    0  0.22549474442E+03 -0.18989652962E+03 -0.27388437192E+02  0.31106121616E+03  0.95395922248E+02 0.  0.
         24    2    4    4    0    0 -0.17466658738E+03  0.18839922905E+03 -0.10993827996E+04  0.11316915797E+04  0.77978235509E+02 0.  0.
         13    1    3    3    0    0 -0.43161639522E+02  0.44006639606E+02 -0.14441464646E+03  0.15701943055E+03  0.00000000000E+00 0. -1.
        -13    1    3    3    0    0 -0.76665175247E+01 -0.42509339031E+02 -0.80468576315E+02  0.91329136479E+02  0.00000000000E+00 0.  1.
          4    1    6    6  502    0 -0.16893802663E+02  0.24374434507E+02 -0.27086630793E+03  0.27248499115E+03  0.00000000000E+00 0. -1.
          1    1    5    5  503    0  0.76781416427E+02 -0.45888869212E+02  0.33125641463E+02  0.95385965155E+02  0.00000000000E+00 0. -1.
         -2    1    5    5    0  503  0.14871332799E+03 -0.14400766041E+03 -0.60514078655E+02  0.21567525100E+03  0.00000000000E+00 0.  1.
         -3    1    6    6    0  502 -0.15777278471E+03  0.16402479454E+03 -0.82851649169E+03  0.85920658856E+03  0.00000000000E+00 0.  1.
<mgrwt>
<rscale>  0 0.10162943E+04</rscale>
<asrwt>0</asrwt>
<pdfrwt beam="1">  1        2 0.23405815E+00 0.10162943E+04</pdfrwt>
<pdfrwt beam="2">  1       -2 0.26111299E-01 0.10162943E+04</pdfrwt>
<totfact> 0.16309733E+02</totfact>
</mgrwt>
</event>
<event>
11    1  0.2502641E-008  0.1501675E+04  0.7818608E-02  0.8883340E-01
         -2   -1    0    0    0  501 -0.00000000000E+00  0.00000000000E+00  0.26862243059E+03  0.26862243059E+03  0.00000000000E+00 0.  1.
          2   -1    0    0  501    0  0.00000000000E+00 -0.00000000000E+00 -0.20986968310E+04  0.20986968310E+04  0.00000000000E+00 0. -1.
         23    2    1    2    0    0 -0.26762500432E+03 -0.23371407894E+03 -0.11640018329E+03  0.38484411721E+03  0.91162372977E+02 0.  0.
        254    2    1    2    0    0  0.26762500432E+03  0.23371407894E+03 -0.17136742171E+04  0.19824751444E+04  0.93128028115E+03 0.  0.
         24    2    4    4    0    0 -0.31677942736E+03  0.57646944965E+02 -0.35315460580E+03  0.48454541980E+03  0.79960692752E+02 0.  0.
         11    1    3    3    0    0 -0.11455307346E+03 -0.10012171746E+03 -0.30017347178E+01  0.15217021836E+03  0.00000000000E+00 0.  1.
        -11    1    3    3    0    0 -0.15307193087E+03 -0.13359236148E+03 -0.11339844858E+03  0.23267389884E+03  0.00000000000E+00 0. -1.
          2    1    5    5  502    0 -0.27278256128E+03  0.54098118203E+02 -0.33839205617E+03  0.43800241530E+03  0.00000000000E+00 0. -1.
          1    1    4    4  503    0  0.47535951077E+03  0.14387184954E+03 -0.95045947108E+03  0.10723987037E+04  0.00000000000E+00 0. -1.
         -2    1    4    4    0  503  0.10904492091E+03  0.32195284431E+02 -0.41006014025E+03  0.42553102088E+03  0.00000000000E+00 0.  1.
         -1    1    5    5    0  502 -0.43996866071E+02  0.35488267614E+01 -0.14762549636E+02  0.46543004493E+02  0.00000000000E+00 0.  1.
<mgrwt>
<rscale>  0 0.15016751E+04</rscale>
<asrwt>0</asrwt>
<pdfrwt beam="1">  1        2 0.32287644E+00 0.15016751E+04</pdfrwt>
<pdfrwt beam="2">  1       -2 0.41326528E-01 0.15016751E+04</pdfrwt>
<totfact> 0.31560732E+01</totfact>
</mgrwt>
</event>
<event>
11    1  0.2502641E-008  0.1813682E+04  0.7818608E-02  0.8699057E-01
          2   -1    0    0  501    0  0.00000000000E+00  0.00000000000E+00  0.14056032572E+04  0.14056032572E+04  0.00000000000E+00 0. -1.
         -2   -1    0    0    0  501 -0.00000000000E+00 -0.00000000000E+00 -0.58505896970E+03  0.58505896970E+03  0.00000000000E+00 0.  1.
         23    2    1    2    0    0 -0.59343247076E+02 -0.60258600936E+03  0.47726156206E+02  0.61418928057E+03  0.91209466264E+02 0.  0.
        254    2    1    2    0    0  0.59343247076E+02  0.60258600936E+03  0.77281813134E+03  0.13764729464E+04  0.96477893235E+03 0.  0.
         24    2    4    4    0    0  0.47321815285E+02 -0.22466858050E+03  0.34778064783E+03  0.42406183737E+03  0.78496736500E+02 0.  0.
         11    1    3    3    0    0  0.28947820161E+01 -0.25885762469E+03 -0.14899943068E+02  0.25930225207E+03  0.00000000000E+00 0.  1.
        -11    1    3    3    0    0 -0.62238029092E+02 -0.34372838466E+03  0.62626099273E+02  0.35488702850E+03  0.00000000000E+00 0. -1.
          2    1    5    5  502    0 -0.18732263315E+02 -0.66367704448E+02  0.12659720134E+03  0.14416109485E+03  0.00000000000E+00 0. -1.
          1    1    4    4  503    0  0.67031899735E+02  0.55780625050E+03  0.19764926121E+03  0.59557226189E+03  0.00000000000E+00 0. -1.
         -2    1    4    4    0  503 -0.55010467943E+02  0.26944833936E+03  0.22738822230E+03  0.35683884711E+03  0.00000000000E+00 0.  1.
         -1    1    5    5    0  502  0.66054078600E+02 -0.15830087605E+03  0.22118344650E+03  0.27990074252E+03  0.00000000000E+00 0.  1.
<mgrwt>
<rscale>  0 0.18136822E+04</rscale>
<asrwt>0</asrwt>
<pdfrwt beam="1">  1        2 0.21624665E+00 0.18136822E+04</pdfrwt>
<pdfrwt beam="2">  1       -2 0.90009072E-01 0.18136822E+04</pdfrwt>
<totfact> 0.14313302E+01</totfact>
</mgrwt>
</event>
<event>
12    1  0.2502641E-008  0.1921192E+04  0.7818608E-02  0.8644379E-01
         -2   -1    0    0    0  501 -0.00000000000E+00  0.00000000000E+00  0.76086059188E+03  0.76086059188E+03  0.00000000000E+00 0.  1.
          2   -1    0    0  501    0  0.00000000000E+00 -0.00000000000E+00 -0.12127645176E+04  0.12127645176E+04  0.00000000000E+00 0. -1.
         23    2    1    2    0    0 -0.15804732443E+03  0.85777941080E+01 -0.93247498122E+03  0.95024839397E+03  0.91705421450E+02 0.  0.
        254    2    1    2    0    0  0.15804732443E+03 -0.85777941080E+01  0.48057105552E+03  0.10233767155E+04  0.88954978900E+03 0.  0.
        -24    2    4    4    0    0 -0.14109482584E+03 -0.37643823871E+03  0.12434753133E+03  0.42449049594E+03  0.55824503173E+02 0.  0.
         24    2    4    4    0    0  0.29914215027E+03  0.36786044460E+03  0.35622352419E+03  0.59888621956E+03  0.83439631025E+02 0.  0.
         11    1    3    3    0    0 -0.43150183945E+02  0.44515460227E+02 -0.28314207713E+03  0.28984996190E+03  0.00000000000E+00 0. -1.
        -11    1    3    3    0    0 -0.11489714049E+03 -0.35937666119E+02 -0.64933290410E+03  0.66039843207E+03  0.00000000000E+00 0.  1.
          2    1    6    6  502    0  0.50203020019E+02  0.20897199446E+02  0.41808856313E+02  0.68593123780E+02  0.00000000000E+00 0. -1.
          1    1    5    5  503    0 -0.22914277825E+02 -0.20536201078E+02  0.11801888656E+02  0.32955792492E+02  0.00000000000E+00 0. -1.
         -2    1    5    5    0  503 -0.11818054801E+03 -0.35590203763E+03  0.11254564267E+03  0.39153470344E+03  0.00000000000E+00 0.  1.
         -1    1    6    6    0  502  0.24893913025E+03  0.34696324515E+03  0.31441466788E+03  0.53029309578E+03  0.00000000000E+00 0.  1.
<mgrwt>
<rscale>  0 0.19211921E+04</rscale>
<asrwt>0</asrwt>
<pdfrwt beam="1">  1        2 0.18657915E+00 0.19211921E+04</pdfrwt>
<pdfrwt beam="2">  1       -2 0.11705548E+00 0.19211921E+04</pdfrwt>
<totfact> 0.98265896E+00</totfact>
</mgrwt>
</event>
<event>
12    1  0.2502641E-008  0.3064711E+04  0.7818608E-02  0.8225490E-01
         -1   -1    0    0    0  501 -0.00000000000E+00  0.00000000000E+00  0.89646060894E+03  0.89646060894E+03  0.00000000000E+00 0.  1.
          1   -1    0    0  501    0  0.00000000000E+00 -0.00000000000E+00 -0.26193163118E+04  0.26193163118E+04  0.00000000000E+00 0. -1.
         23    2    1    2    0    0  0.12471543209E+04  0.60124303613E+03 -0.58067064567E+03  0.15041099772E+04  0.91001846620E+02 0.  0.
        254    2    1    2    0    0 -0.12471543209E+04 -0.60124303613E+03 -0.11421850572E+04  0.20116669435E+04  0.90847680106E+03 0.  0.
        -24    2    4    4    0    0 -0.11962542304E+04 -0.65100306770E+03 -0.12561590471E+04  0.18556430266E+04  0.10318097156E+03 0.  0.
         24    2    4    4    0    0 -0.50900090540E+02  0.49760031569E+02  0.11397398987E+03  0.15602391688E+03  0.79287529375E+02 0.  0.
         13    1    3    3    0    0  0.64133127811E+03  0.29772771773E+03 -0.34451786155E+03  0.78653681358E+03  0.00000000000E+00 0.  1.
        -13    1    3    3    0    0  0.60582304283E+03  0.30351531840E+03 -0.23615278412E+03  0.71757316364E+03  0.00000000000E+00 0. -1.
          2    1    6    6  502    0 -0.45392662054E+02  0.42433933713E+01  0.96918067792E+02  0.10710561152E+03  0.00000000000E+00 0. -1.
          3    1    5    5  503    0 -0.82073366394E+03 -0.46555579659E+03 -0.80814449467E+03  0.12423540039E+04  0.00000000000E+00 0. -1.
         -4    1    5    5    0  503 -0.37552056647E+03 -0.18544727111E+03 -0.44801455240E+03  0.61328902271E+03  0.00000000000E+00 0.  1.
         -1    1    6    6    0  502 -0.55074284853E+01  0.45516638197E+02  0.17055922079E+02  0.48918305360E+02  0.00000000000E+00 0.  1.
<mgrwt>
<rscale>  0 0.30647113E+04</rscale>
<asrwt>0</asrwt>
<pdfrwt beam="1">  1        1 0.40297174E+00 0.30647113E+04</pdfrwt>
<pdfrwt beam="2">  1       -1 0.13791702E+00 0.30647113E+04</pdfrwt>
<totfact> 0.41242488E-01</totfact>
</mgrwt>
</event>
<event>
11    1  0.2502641E-008  0.1756689E+04  0.7818608E-02  0.8729677E-01
          1   -1    0    0  501    0  0.00000000000E+00  0.00000000000E+00  0.19875210375E+04  0.19875210375E+04  0.00000000000E+00 0. -1.
         -1   -1    0    0    0  501 -0.00000000000E+00 -0.00000000000E+00 -0.38816630644E+03  0.38816630644E+03  0.00000000000E+00 0.  1.
         23    2    1    2    0    0 -0.17001954506E+03  0.61435865761E+03  0.65544106784E+03  0.91887290969E+03  0.91549029890E+02 0.  0.
        254    2    1    2    0    0  0.17001954506E+03 -0.61435865761E+03  0.94391366323E+03  0.14568144343E+04  0.90829074989E+03 0.  0.
         24    2    4    4    0    0  0.42811006723E+03 -0.89067168097E+02  0.43406750484E+03  0.62109844634E+03  0.78342141874E+02 0.  0.
         13    1    3    3    0    0 -0.14673985862E+03  0.58564972004E+03  0.59271482792E+03  0.84606681055E+03  0.00000000000E+00 0. -1.
        -13    1    3    3    0    0 -0.23279686441E+02  0.28708937578E+02  0.62726239921E+02  0.72806099142E+02  0.00000000000E+00 0.  1.
          2    1    5    5  502    0  0.35854015999E+03 -0.62954504385E+02  0.31843561423E+03  0.48364817415E+03  0.00000000000E+00 0. -1.
          3    1    4    4  503    0 -0.31795801086E+03 -0.36047798151E+03  0.32091649581E+03  0.57795247997E+03  0.00000000000E+00 0. -1.
         -4    1    4    4    0  503  0.59867488693E+02 -0.16481350801E+03  0.18892966258E+03  0.25776350794E+03  0.00000000000E+00 0.  1.
         -3    1    5    5    0  502  0.69569907241E+02 -0.26112663712E+02  0.11563189062E+03  0.13745027220E+03  0.00000000000E+00 0.  1.
<mgrwt>
<rscale>  0 0.17566886E+04</rscale>
<asrwt>0</asrwt>
<pdfrwt beam="1">  1        1 0.30577246E+00 0.17566886E+04</pdfrwt>
<pdfrwt beam="2">  1       -1 0.59717894E-01 0.17566886E+04</pdfrwt>
<totfact> 0.81830600E+00</totfact>
</mgrwt>
</event>
<event>
11    1  0.2502641E-008  0.1972548E+04  0.7818608E-02  0.8619564E-01
         -2   -1    0    0    0  501 -0.00000000000E+00  0.00000000000E+00  0.48970781241E+03  0.48970781241E+03  0.00000000000E+00 0.  1.
          2   -1    0    0  501    0  0.00000000000E+00 -0.00000000000E+00 -0.19863598845E+04  0.19863598845E+04  0.00000000000E+00 0. -1.
         23    2    1    2    0    0  0.12132618146E+03  0.76828623095E+03 -0.51577280755E+03  0.93770351772E+03  0.91008368622E+02 0.  0.
        254    2    1    2    0    0 -0.12132618146E+03 -0.76828623095E+03 -0.98087926457E+03  0.15383641792E+04  0.89412328079E+03 0.  0.
         24    2    4    4    0    0 -0.41309725123E+01 -0.71767959994E+03 -0.10465863183E+04  0.12715365917E+04  0.79883097600E+02 0.  0.
         11    1    3    3    0    0  0.20532931209E+02  0.25419530511E+02 -0.13680002742E+02  0.35424515105E+02  0.00000000000E+00 0. -1.
        -11    1    3    3    0    0  0.10079325025E+03  0.74286670044E+03 -0.50209280481E+03  0.90227900261E+03  0.00000000000E+00 0.  1.
          2    1    5    5  502    0 -0.28507009757E+02 -0.55322498488E+03 -0.76448680300E+03  0.94409247718E+03  0.00000000000E+00 0. -1.
          1    1    4    4  503    0 -0.15506198507E+03 -0.95863536048E+02  0.52960396122E+01  0.18237895930E+03  0.00000000000E+00 0. -1.
         -2    1    4    4    0  503  0.37866776129E+02  0.45256905040E+02  0.60411014087E+02  0.84448628238E+02  0.00000000000E+00 0.  1.
         -1    1    5    5    0  502  0.24376037244E+02 -0.16445461506E+03 -0.28209951526E+03  0.32744411450E+03  0.00000000000E+00 0.  1.
<mgrwt>
<rscale>  0 0.19725475E+04</rscale>
<asrwt>0</asrwt>
<pdfrwt beam="1">  1        2 0.30559383E+00 0.19725475E+04</pdfrwt>
<pdfrwt beam="2">  1       -2 0.75339664E-01 0.19725475E+04</pdfrwt>
<totfact> 0.10007192E+01</totfact>
</mgrwt>
</event>
<event>
12    1  0.2502641E-008  0.1325673E+04  0.7818608E-02  0.9009450E-01
          2   -1    0    0  501    0  0.00000000000E+00  0.00000000000E+00  0.17437075666E+04  0.17437075666E+04  0.00000000000E+00 0. -1.
         -2   -1    0    0    0  501 -0.00000000000E+00 -0.00000000000E+00 -0.25196436958E+03  0.25196436958E+03  0.00000000000E+00 0.  1.
         23    2    1    2    0    0 -0.11102497566E+03 -0.19565454348E+02  0.76320654627E+03  0.77714436170E+03  0.93593666586E+02 0.  0.
        254    2    1    2    0    0  0.11102497566E+03  0.19565454348E+02  0.72853665079E+03  0.12185275745E+04  0.97022391545E+03 0.  0.
        -24    2    4    4    0    0  0.21435583590E+03  0.32273494354E+03 -0.18902384289E+02  0.40165179449E+03  0.10421418194E+03 0.  0.
         24    2    4    4    0    0 -0.10333086024E+03 -0.30316948919E+03  0.74743903508E+03  0.81687578004E+03  0.77665455646E+02 0.  0.
         13    1    3    3    0    0 -0.20563495315E+02 -0.46056584967E+02  0.32722069452E+03  0.33108525984E+03  0.00000000000E+00 0.  1.
        -13    1    3    3    0    0 -0.90461480345E+02  0.26491130618E+02  0.43598585175E+03  0.44605910186E+03  0.00000000000E+00 0. -1.
          4    1    6    6  502    0 -0.10923725658E+03 -0.22887297873E+03  0.60791710049E+03  0.65869478493E+03  0.00000000000E+00 0. -1.
          3    1    5    5  503    0  0.17704904734E+03  0.28332549863E+03 -0.51955708276E+02  0.33811107488E+03  0.00000000000E+00 0. -1.
         -4    1    5    5    0  503  0.37306788564E+02  0.39409444909E+02  0.33053323987E+02  0.63540719602E+02  0.00000000000E+00 0.  1.
         -3    1    6    6    0  502  0.59063963362E+01 -0.74296510461E+02  0.13952193458E+03  0.15818099511E+03  0.00000000000E+00 0.  1.
<mgrwt>
<rscale>  0 0.13256729E+04</rscale>
<asrwt>0</asrwt>
<pdfrwt beam="1">  1        2 0.26826269E+00 0.13256729E+04</pdfrwt>
<pdfrwt beam="2">  1       -2 0.38763750E-01 0.13256729E+04</pdfrwt>
<totfact> 0.57053569E+01</totfact>
</mgrwt>
</event>
<event>
11    1  0.2502641E-008  0.1723554E+04  0.7818608E-02  0.8748044E-01
         -1   -1    0    0    0  501 -0.00000000000E+00  0.00000000000E+00  0.24431304951E+03  0.24431304951E+03  0.00000000000E+00 0.  1.
          1   -1    0    0  501    0  0.00000000000E+00 -0.00000000000E+00 -0.30397866091E+04  0.30397866091E+04  0.00000000000E+00 0. -1.
         23    2    1    2    0    0  0.40705844818E+03 -0.13073530724E+03 -0.18736084554E+04  0.19239135100E+04  0.90808859503E+02 0.  0.
        254    2    1    2    0    0 -0.40705844818E+03  0.13073530724E+03 -0.92186510416E+03  0.13601861486E+04  0.90414754756E+03 0.  0.
         24    2    4    4    0    0  0.35320705485E+01  0.42505215786E+03 -0.21293193077E+03  0.48214698528E+03  0.80273880270E+02 0.  0.
         13    1    3    3    0    0  0.10028218233E+03 -0.57368628027E+02 -0.37175056882E+03  0.38928930244E+03  0.00000000000E+00 0.  1.
        -13    1    3    3    0    0  0.30677626584E+03 -0.73366679211E+02 -0.15018578866E+04  0.15346242076E+04  0.00000000000E+00 0. -1.
          4    1    5    5  502    0 -0.66423203037E+01  0.22577755439E+03 -0.15647333231E+03  0.27477905344E+03  0.00000000000E+00 0. -1.
          1    1    4    4  503    0 -0.23863242270E+03 -0.18003589107E+03 -0.32133636362E+03  0.43887972591E+03  0.00000000000E+00 0. -1.
         -2    1    4    4    0  503 -0.17195809603E+03 -0.11428095956E+03 -0.38759680977E+03  0.43915943740E+03  0.00000000000E+00 0.  1.
         -3    1    5    5    0  502  0.10174390852E+02  0.19927460347E+03 -0.56458598461E+02  0.20736793184E+03  0.00000000000E+00 0.  1.
<mgrwt>
<rscale>  0 0.17235539E+04</rscale>
<asrwt>0</asrwt>
<pdfrwt beam="1">  1        1 0.46765947E+00 0.17235539E+04</pdfrwt>
<pdfrwt beam="2">  1       -1 0.37586623E-01 0.17235539E+04</pdfrwt>
<totfact> 0.36366975E+00</totfact>
</mgrwt>
</event>
<event>
12    1  0.2502641E-008  0.1799670E+04  0.7818608E-02  0.8706475E-01
         -2   -1    0    0    0  501 -0.00000000000E+00  0.00000000000E+00  0.78034682477E+03  0.78034682477E+03  0.00000000000E+00 0.  1.
          2   -1    0    0  501    0  0.00000000000E+00 -0.00000000000E+00 -0.10376191541E+04  0.10376191541E+04  0.00000000000E+00 0. -1.
         23    2    1    2    0    0 -0.27528445329E+03  0.56072045125E+03  0.17052588588E+03  0.65394029547E+03  0.91487035213E+02 0.  0.
        254    2    1    2    0    0  0.27528445329E+03 -0.56072045125E+03 -0.42779821525E+03  0.11640256834E+04  0.88416939784E+03 0.  0.
        -24    2    4    4    0    0 -0.22683171458E+03 -0.16603368124E+03  0.12565597631E+03  0.31534070163E+03  0.68047951315E+02 0.  0.
         24    2    4    4    0    0  0.50211616786E+03 -0.39468677001E+03 -0.55345419156E+03  0.84868498182E+03  0.77822643002E+02 0.  0.
         11    1    3    3    0    0 -0.69729558644E+02  0.86090746917E+02  0.51148353231E+01  0.11090531815E+03  0.00000000000E+00 0. -1.
        -11    1    3    3    0    0 -0.20555489464E+03  0.47462970433E+03  0.16541105056E+03  0.54303497732E+03  0.00000000000E+00 0.  1.
          4    1    6    6  502    0  0.23702983104E+03 -0.22791477010E+03 -0.31122474713E+03  0.45275724893E+03  0.00000000000E+00 0. -1.
          3    1    5    5  503    0 -0.21990186232E+03 -0.14659807875E+03  0.12956741217E+03  0.29433915818E+03  0.00000000000E+00 0. -1.
         -4    1    5    5    0  503 -0.69298522574E+01 -0.19435602488E+02 -0.39114358658E+01  0.21001543442E+02  0.00000000000E+00 0.  1.
         -3    1    6    6    0  502  0.26508633682E+03 -0.16677199991E+03 -0.24222944443E+03  0.39592773289E+03  0.00000000000E+00 0.  1.
<mgrwt>
<rscale>  0 0.17996698E+04</rscale>
<asrwt>0</asrwt>
<pdfrwt beam="1">  1        2 0.15963371E+00 0.17996698E+04</pdfrwt>
<pdfrwt beam="2">  1       -2 0.12005336E+00 0.17996698E+04</pdfrwt>
<totfact> 0.11935994E+01</totfact>
</mgrwt>
</event>
<event>
12    1  0.2502641E-008  0.1095509E+04  0.7818608E-02  0.9209580E-01
          1   -1    0    0  501    0  0.00000000000E+00  0.00000000000E+00  0.34986650955E+03  0.34986650955E+03  0.00000000000E+00 0. -1.
         -1   -1    0    0    0  501 -0.00000000000E+00 -0.00000000000E+00 -0.85756940269E+03  0.85756940269E+03  0.00000000000E+00 0.  1.
         23    2    1    2    0    0 -0.18659622341E+02 -0.12497933971E+03  0.23995232321E+02  0.15744039478E+03  0.90794767880E+02 0.  0.
        254    2    1    2    0    0  0.18659622341E+02  0.12497933971E+03 -0.53169812546E+03  0.10499955175E+04  0.89655991056E+03 0.  0.
        -24    2    4    4    0    0  0.13278428280E+03 -0.32154645711E+03 -0.44724567303E+03  0.57430441023E+03  0.93664687752E+02 0.  0.
         24    2    4    4    0    0 -0.11412466046E+03  0.44652579681E+03 -0.84452452428E+02  0.47569110723E+03  0.82098035532E+02 0.  0.
         11    1    3    3    0    0  0.14252287559E+02 -0.10458217382E+03  0.43408233071E+02  0.11412639257E+03  0.00000000000E+00 0. -1.
        -11    1    3    3    0    0 -0.32911909901E+02 -0.20397165884E+02 -0.19413000750E+02  0.43314002211E+02  0.00000000000E+00 0.  1.
          2    1    6    6  502    0 -0.82749722321E+02  0.20123768614E+03 -0.11598524276E+02  0.21789595827E+03  0.00000000000E+00 0. -1.
          1    1    5    5  503    0  0.12262047616E+03 -0.32524766850E+03 -0.44193892745E+03  0.56225602943E+03  0.00000000000E+00 0. -1.
         -4    1    5    5    0  503  0.10163806636E+02  0.37012113980E+01 -0.53067455808E+01  0.12048380796E+02  0.00000000000E+00 0.  1.
         -1    1    6    6    0  502 -0.31374938136E+02  0.24528811067E+03 -0.72853928152E+02  0.25779514896E+03  0.00000000000E+00 0.  1.
<mgrwt>
<rscale>  0 0.10955087E+04</rscale>
<asrwt>0</asrwt>
<pdfrwt beam="1">  1        1 0.53825617E-01 0.10955087E+04</pdfrwt>
<pdfrwt beam="2">  1       -1 0.13193375E+00 0.10955087E+04</pdfrwt>
<totfact> 0.34899197E+01</totfact>
</mgrwt>
</event>
<event>
11    1  0.2502641E-008  0.1699304E+04  0.7818608E-02  0.8761762E-01
          2   -1    0    0  501    0  0.00000000000E+00  0.00000000000E+00  0.22098027180E+04  0.22098027180E+04  0.00000000000E+00 0. -1.
         -2   -1    0    0    0  501 -0.00000000000E+00 -0.00000000000E+00 -0.32668441134E+03  0.32668441134E+03  0.00000000000E+00 0.  1.
         23    2    1    2    0    0 -0.45711484566E+03 -0.33429627827E+03  0.39047578990E+03  0.69317253575E+03  0.85491742496E+02 0.  0.
        254    2    1    2    0    0  0.45711484566E+03  0.33429627827E+03  0.14926425168E+04  0.18433145936E+04  0.92147654570E+03 0.  0.
         24    2    4    4    0    0  0.11257736682E+03  0.32475716763E+03  0.79914398311E+03  0.87334572580E+03  0.77206020364E+02 0.  0.
         11    1    3    3    0    0 -0.33400502309E+03 -0.28034583808E+03  0.27157760914E+03  0.51371932236E+03  0.00000000000E+00 0.  1.
        -11    1    3    3    0    0 -0.12310982257E+03 -0.53950440193E+02  0.11889818075E+03  0.17945321339E+03  0.00000000000E+00 0. -1.
          2    1    5    5  502    0  0.55615731973E+02  0.23675493066E+03  0.61683258197E+03  0.66304482579E+03  0.00000000000E+00 0. -1.
          3    1    4    4  503    0  0.34289263206E+03 -0.22262886394E+03  0.58499243427E+03  0.71369119116E+03  0.00000000000E+00 0. -1.
         -4    1    4    4    0  503  0.16448467839E+01  0.23216797458E+03  0.10850609941E+03  0.25627767665E+03  0.00000000000E+00 0.  1.
         -1    1    5    5    0  502  0.56961634845E+02  0.88002236966E+02  0.18231140114E+03  0.21030090000E+03  0.00000000000E+00 0.  1.
<mgrwt>
<rscale>  0 0.16993035E+04</rscale>
<asrwt>0</asrwt>
<pdfrwt beam="1">  1        2 0.33996964E+00 0.16993035E+04</pdfrwt>
<pdfrwt beam="2">  1       -2 0.50259142E-01 0.16993035E+04</pdfrwt>
<totfact> 0.18177439E+01</totfact>
</mgrwt>
</event>
<event>
12    1  0.2502641E-008  0.1562954E+04  0.7818608E-02  0.8843636E-01
         -2   -1    0    0    0  501 -0.00000000000E+00  0.00000000000E+00  0.96431438206E+03  0.96431438206E+03  0.00000000000E+00 0.  1.
          2   -1    0    0  501    0  0.00000000000E+00 -0.00000000000E+00 -0.63330627549E+03  0.63330627549E+03  0.00000000000E+00 0. -1.
         23    2    1    2    0    0  0.57174181672E+02  0.33060690522E+03  0.50944018931E+03  0.61675048650E+03  0.91005732131E+02 0.  0.
        254    2    1    2    0    0 -0.57174181672E+02 -0.33060690522E+03 -0.17843208275E+03  0.98087017105E+03  0.90426681431E+03 0.  0.
        -24    2    4    4    0    0  0.23869198936E+03 -0.43853529518E+03 -0.35181324270E+03  0.61331200677E+03  0.55605656199E+02 0.  0.
         24    2    4    4    0    0 -0.29586617103E+03  0.10792838996E+03  0.17338115996E+03  0.36755816428E+03  0.76502607691E+02 0.  0.
         11    1    3    3    0    0 -0.17985626387E+02  0.48656863947E+02  0.11454908411E+03  0.12574762756E+03  0.00000000000E+00 0. -1.
        -11    1    3    3    0    0  0.75159808059E+02  0.28195004127E+03  0.39489110520E+03  0.49100285894E+03  0.00000000000E+00 0.  1.
          4    1    6    6  502    0 -0.24464825285E+03  0.68315398717E+02  0.16344824632E+03  0.30205147004E+03  0.00000000000E+00 0. -1.
          1    1    5    5  503    0  0.23378486193E+03 -0.40829697876E+03 -0.31910199554E+03  0.56849614606E+03  0.00000000000E+00 0. -1.
         -2    1    5    5    0  503  0.49071274241E+01 -0.30238316425E+02 -0.32711247163E+02  0.44815860705E+02  0.00000000000E+00 0.  1.
         -3    1    6    6    0  502 -0.51217918177E+02  0.39612991244E+02  0.99329136336E+01  0.65506694245E+02  0.00000000000E+00 0.  1.
<mgrwt>
<rscale>  0 0.15629541E+04</rscale>
<asrwt>0</asrwt>
<pdfrwt beam="1">  1        2 0.97431735E-01 0.15629541E+04</pdfrwt>
<pdfrwt beam="2">  1       -2 0.14835606E+00 0.15629541E+04</pdfrwt>
<totfact> 0.13765054E+01</totfact>
</mgrwt>
</event>
<event>
12    1  0.2703181E-008  0.1515437E+04  0.7818608E-02  0.8874252E-01
         -2   -1    0    0    0  501 -0.00000000000E+00  0.00000000000E+00  0.84924909266E+03  0.84924909266E+03  0.00000000000E+00 0.  1.
          2   -1    0    0  501    0  0.00000000000E+00 -0.00000000000E+00 -0.67605310769E+03  0.67605310769E+03  0.00000000000E+00 0. -1.
         23    2    1    2    0    0  0.11372413175E+03 -0.32465555971E+03 -0.28716313862E+03  0.45709046337E+03  0.90192089102E+02 0.  0.
        254    2    1    2    0    0 -0.11372413175E+03  0.32465555971E+03  0.46035912358E+03  0.10682117370E+04  0.90045065481E+03 0.  0.
        -24    2    4    4    0    0  0.33170867357E+03 -0.76472120707E+02  0.11371879176E+03  0.37121310459E+03  0.94808101203E+02 0.  0.
         24    2    4    4    0    0 -0.44543280531E+03  0.40112768041E+03  0.34664033182E+03  0.69699863238E+03  0.79585010244E+02 0.  0.
         13    1    3    3    0    0  0.33886365272E+02 -0.84900624122E+02 -0.29162801610E+02  0.95952439914E+02  0.00000000000E+00 0.  1.
        -13    1    3    3    0    0  0.79837766474E+02 -0.23975493558E+03 -0.25800033701E+03  0.36113802346E+03  0.00000000000E+00 0. -1.
          2    1    6    6  502    0 -0.41408044470E+03  0.33979130961E+03  0.31206272433E+03  0.61992248925E+03  0.00000000000E+00 0. -1.
          3    1    5    5  503    0  0.30289893551E+03 -0.92075190105E+02  0.85383361122E+02  0.32789620937E+03  0.00000000000E+00 0. -1.
         -4    1    5    5    0  503  0.28809738058E+02  0.15603069398E+02  0.28335430637E+02  0.43316895214E+02  0.00000000000E+00 0.  1.
         -1    1    6    6    0  502 -0.31352360614E+02  0.61336370808E+02  0.34577607495E+02  0.77076143132E+02  0.00000000000E+00 0.  1.
<mgrwt>
<rscale>  0 0.15154372E+04</rscale>
<asrwt>0</asrwt>
<pdfrwt beam="1">  1        2 0.10400817E+00 0.15154372E+04</pdfrwt>
<pdfrwt beam="2">  1       -2 0.13065371E+00 0.15154372E+04</pdfrwt>
<totfact> 0.17711435E+01</totfact>
</mgrwt>
</event>
<event>
12    1  0.2502641E-008  0.2340012E+04  0.7818608E-02  0.8462310E-01
          1   -1    0    0  501    0  0.00000000000E+00  0.00000000000E+00  0.25143036061E+04  0.25143036061E+04  0.00000000000E+00 0. -1.
         -1   -1    0    0    0  501 -0.00000000000E+00 -0.00000000000E+00 -0.54445046870E+03  0.54445046870E+03  0.00000000000E+00 0.  1.
         23    2    1    2    0    0  0.59195099232E+02 -0.91687111679E+03  0.35327198534E+03  0.98856779789E+03  0.91150923369E+02 0.  0.
        254    2    1    2    0    0 -0.59195099232E+02  0.91687111679E+03  0.16165811521E+04  0.20701862769E+04  0.91004389751E+03 0.  0.
        -24    2    4    4    0    0  0.33694387215E+03  0.11471520867E+03  0.69303138468E+03  0.78197198436E+03  0.67059168536E+02 0.  0.
         24    2    4    4    0    0 -0.39613897138E+03  0.80215590812E+03  0.92354976738E+03  0.12882142926E+04  0.78560200881E+02 0.  0.
         13    1    3    3    0    0  0.52165540695E+02 -0.88625845266E+03  0.32238028144E+03  0.94451274973E+03  0.00000000000E+00 0. -1.
        -13    1    3    3    0    0  0.70295585362E+01 -0.30612664125E+02  0.30891703906E+02  0.44055048159E+02  0.00000000000E+00 0.  1.
          4    1    6    6  502    0 -0.24381125739E+03  0.50345905933E+03  0.52235403098E+03  0.76535526871E+03  0.00000000000E+00 0. -1.
          3    1    5    5  503    0  0.18198180954E+03  0.72124386066E+02  0.44849883739E+03  0.48935724498E+03  0.00000000000E+00 0. -1.
         -4    1    5    5    0  503  0.15496206261E+03  0.42590822600E+02  0.24453254729E+03  0.29261473938E+03  0.00000000000E+00 0.  1.
         -3    1    6    6    0  502 -0.15232771399E+03  0.29869684879E+03  0.40119573641E+03  0.52285902386E+03  0.00000000000E+00 0.  1.
<mgrwt>
<rscale>  0 0.23400118E+04</rscale>
<asrwt>0</asrwt>
<pdfrwt beam="1">  1        1 0.38681593E+00 0.23400118E+04</pdfrwt>
<pdfrwt beam="2">  1       -1 0.83761612E-01 0.23400118E+04</pdfrwt>
<totfact> 0.16854413E+00</totfact>
</mgrwt>
</event>
<event>
12    1  0.4235307E-008  0.2260156E+04  0.7818608E-02  0.8493799E-01
         -2   -1    0    0    0  501 -0.00000000000E+00  0.00000000000E+00  0.69579738571E+03  0.69579738571E+03  0.00000000000E+00 0.  1.
          2   -1    0    0  501    0  0.00000000000E+00 -0.00000000000E+00 -0.18354132739E+04  0.18354132739E+04  0.00000000000E+00 0. -1.
         23    2    1    2    0    0  0.13417887242E+03  0.73156047155E+03  0.17637762673E+03  0.76962408912E+03  0.89596194082E+02 0.  0.
        254    2    1    2    0    0 -0.13417887242E+03 -0.73156047155E+03 -0.13159935149E+04  0.17615865704E+04  0.90452397462E+03 0.  0.
        -24    2    4    4    0    0 -0.48987402961E+03 -0.43847007427E+03 -0.54202264088E+03  0.85727019702E+03  0.94292505338E+02 0.  0.
         24    2    4    4    0    0  0.35569515718E+03 -0.29309039728E+03 -0.77397087399E+03  0.90431637343E+03  0.79600022836E+02 0.  0.
         11    1    3    3    0    0 -0.72501570461E+01  0.49386780335E+01  0.66230633631E+00  0.87973841336E+01  0.00000000000E+00 0.  1.
        -11    1    3    3    0    0  0.14142902947E+03  0.72662179352E+03  0.17571532039E+03  0.76082670498E+03  0.00000000000E+00 0. -1.
          2    1    6    6  502    0  0.24876522381E+03 -0.24622602630E+03 -0.60456152277E+03  0.69857428196E+03  0.00000000000E+00 0. -1.
          3    1    5    5  503    0 -0.41308614464E+03 -0.31994942900E+03 -0.41359120999E+03  0.66638238947E+03  0.00000000000E+00 0. -1.
         -4    1    5    5    0  503 -0.76787884968E+02 -0.11852064527E+03 -0.12843143089E+03  0.19088780756E+03  0.00000000000E+00 0.  1.
         -1    1    6    6    0  502  0.10692993337E+03 -0.46864370982E+02 -0.16940935123E+03  0.20574209147E+03  0.00000000000E+00 0.  1.
<mgrwt>
<rscale>  0 0.22601555E+04</rscale>
<asrwt>0</asrwt>
<pdfrwt beam="1">  1        2 0.28237127E+00 0.22601555E+04</pdfrwt>
<pdfrwt beam="2">  1       -2 0.10704575E+00 0.22601555E+04</pdfrwt>
<totfact> 0.52637440E+00</totfact>
</mgrwt>
</event>
<event>
12    1  0.2502641E-008  0.1619439E+04  0.7818608E-02  0.8808694E-01
          1   -1    0    0  501    0  0.00000000000E+00  0.00000000000E+00  0.85923021130E+03  0.85923021130E+03  0.00000000000E+00 0.  1.
         -1   -1    0    0    0  501 -0.00000000000E+00 -0.00000000000E+00 -0.76306175733E+03  0.76306175733E+03  0.00000000000E+00 0. -1.
         23    2    1    2    0    0  0.15265393484E+03  0.46390081627E+03 -0.20455117247E+03  0.53734498702E+03  0.91603830486E+02 0.  0.
        254    2    1    2    0    0 -0.15265393484E+03 -0.46390081627E+03  0.30071962645E+03  0.10849469816E+04  0.92096170822E+03 0.  0.
        -24    2    4    4    0    0 -0.13886293507E+02  0.23784151729E+03  0.25461668124E+03  0.36473545338E+03  0.10696204976E+03 0.  0.
         24    2    4    4    0    0 -0.13876764134E+03 -0.70174233356E+03  0.46102945211E+02  0.72021152823E+03  0.69859880145E+02 0.  0.
         11    1    3    3    0    0  0.11684860662E+03  0.41779598313E+03 -0.15471715759E+03  0.46059144503E+03  0.00000000000E+00 0. -1.
        -11    1    3    3    0    0  0.35805328223E+02  0.46104833139E+02 -0.49834014883E+02  0.76753541986E+02  0.00000000000E+00 0.  1.
          4    1    6    6  502    0 -0.74446727981E+02 -0.25959944040E+03 -0.77925864696E+01  0.27017570055E+03  0.00000000000E+00 0. -1.
          1    1    5    5  503    0 -0.27269566052E+02  0.19097124508E+03  0.13467612396E+03  0.23526857854E+03  0.00000000000E+00 0. -1.
         -2    1    5    5    0  503  0.13383272545E+02  0.46870272208E+02  0.11994055727E+03  0.12946687484E+03  0.00000000000E+00 0.  1.
         -1    1    6    6    0  502 -0.64320913355E+02 -0.44214289316E+03  0.53895531680E+02  0.45003582768E+03  0.00000000000E+00 0.  1.
<mgrwt>
<rscale>  0 0.16194391E+04</rscale>
<asrwt>0</asrwt>
<pdfrwt beam="1">  1        1 0.13218926E+00 0.16194391E+04</pdfrwt>
<pdfrwt beam="2">  1       -1 0.11739412E+00 0.16194391E+04</pdfrwt>
<totfact> 0.12312117E+01</totfact>
</mgrwt>
</event>
<event>
12    1  0.2502641E-008  0.1497973E+04  0.7818608E-02  0.8885802E-01
         -2   -1    0    0    0  501 -0.00000000000E+00  0.00000000000E+00  0.20806086800E+03  0.20806086800E+03  0.00000000000E+00 0.  1.
          2   -1    0    0  501    0  0.00000000000E+00 -0.00000000000E+00 -0.26962350872E+04  0.26962350872E+04  0.00000000000E+00 0. -1.
         23    2    1    2    0    0 -0.55641260150E+02  0.33847896404E+03 -0.17200650390E+03  0.39430670206E+03  0.90706002983E+02 0.  0.
        254    2    1    2    0    0  0.55641260150E+02 -0.33847896404E+03 -0.23161677153E+04  0.25099892531E+04  0.90429486706E+03 0.  0.
        -24    2    4    4    0    0 -0.20581384679E+03 -0.42203111034E+03 -0.59516455459E+03  0.76548104851E+03  0.10616398150E+03 0.  0.
         24    2    4    4    0    0  0.26145510694E+03  0.83552146300E+02 -0.17210031607E+04  0.17445082046E+04  0.78212932317E+02 0.  0.
         11    1    3    3    0    0  0.24643525256E+02  0.95970281555E+02 -0.55102097512E+02  0.11337477422E+03  0.00000000000E+00 0. -1.
        -11    1    3    3    0    0 -0.80284785405E+02  0.24250868248E+03 -0.11690440639E+03  0.28093192784E+03  0.00000000000E+00 0.  1.
          2    1    6    6  502    0  0.24186599604E+02  0.27290591522E+02 -0.13369608759E+03  0.13857998349E+03  0.00000000000E+00 0. -1.
          3    1    5    5  503    0 -0.26841984642E+02 -0.14432574933E+03 -0.13838358516E+03  0.20174347746E+03  0.00000000000E+00 0. -1.
         -4    1    5    5    0  503 -0.17897186215E+03 -0.27770536101E+03 -0.45678096943E+03  0.56373757104E+03  0.00000000000E+00 0.  1.
         -1    1    6    6    0  502  0.23726850734E+03  0.56261554777E+02 -0.15873070731E+04  0.16059282211E+04  0.00000000000E+00 0.  1.
<mgrwt>
<rscale>  0 0.14979733E+04</rscale>
<asrwt>0</asrwt>
<pdfrwt beam="1">  1        2 0.41480539E+00 0.14979733E+04</pdfrwt>
<pdfrwt beam="2">  1       -2 0.32009365E-01 0.14979733E+04</pdfrwt>
<totfact> 0.23520561E+01</totfact>
</mgrwt>
</event>
<event>
11    1  0.2502641E-008  0.1032928E+04  0.7818608E-02  0.9273150E-01
         -2   -1    0    0    0  501 -0.00000000000E+00  0.00000000000E+00  0.27925548685E+03  0.27925548685E+03  0.00000000000E+00 0.  1.
          2   -1    0    0  501    0  0.00000000000E+00 -0.00000000000E+00 -0.95516452391E+03  0.95516452391E+03  0.00000000000E+00 0. -1.
         23    2    1    2    0    0 -0.98955308630E+01 -0.28772230419E+02  0.38555902935E+02  0.10438127358E+03  0.92103907889E+02 0.  0.
        254    2    1    2    0    0  0.98955308630E+01  0.28772230419E+02 -0.71446494000E+03  0.11300387372E+04  0.87498664805E+03 0.  0.
         24    2    4    4    0    0 -0.16079104836E+03  0.32374623801E+03 -0.64608640030E+03  0.74458949952E+03  0.79501561528E+02 0.  0.
         11    1    3    3    0    0  0.19239122170E+01  0.23813573106E+02 -0.15153331153E+02  0.28291538440E+02  0.00000000000E+00 0. -1.
        -11    1    3    3    0    0 -0.11819443080E+02 -0.52585803525E+02  0.53709234088E+02  0.76089735138E+02  0.00000000000E+00 0.  1.
          4    1    5    5  502    0 -0.85901389646E+02  0.14610038199E+03 -0.22702965528E+03  0.28331402143E+03  0.00000000000E+00 0. -1.
          3    1    4    4  503    0  0.14157400541E+03 -0.27320372226E+03 -0.11308473363E+03  0.32782865928E+03  0.00000000000E+00 0. -1.
         -4    1    4    4    0  503  0.29112573811E+02 -0.21770285328E+02  0.44706193929E+02  0.57620578380E+02  0.00000000000E+00 0.  1.
         -3    1    5    5    0  502 -0.74889658714E+02  0.17764585602E+03 -0.41905674502E+03  0.46127547809E+03  0.00000000000E+00 0.  1.
<mgrwt>
<rscale>  0 0.10329277E+04</rscale>
<asrwt>0</asrwt>
<pdfrwt beam="1">  1        2 0.14694839E+00 0.10329277E+04</pdfrwt>
<pdfrwt beam="2">  1       -2 0.42962382E-01 0.10329277E+04</pdfrwt>
<totfact> 0.13782346E+02</totfact>
</mgrwt>
</event>
<event>
11    1  0.2502641E-008  0.1249529E+04  0.7818608E-02  0.9070575E-01
          1   -1    0    0  501    0  0.00000000000E+00  0.00000000000E+00  0.84944155096E+03  0.84944155096E+03  0.00000000000E+00 0. -1.
         -1   -1    0    0    0  501 -0.00000000000E+00 -0.00000000000E+00 -0.45951453193E+03  0.45951453193E+03  0.00000000000E+00 0.  1.
         23    2    1    2    0    0 -0.14714069658E+03 -0.15300245982E+03 -0.12128303828E+03  0.26131616516E+03  0.92284481341E+02 0.  0.
        254    2    1    2    0    0  0.14714069658E+03  0.15300245982E+03  0.51121005731E+03  0.10476399177E+04  0.88946812041E+03 0.  0.
         24    2    4    4    0    0 -0.59166482773E+02 -0.29899222922E+03 -0.25009534658E+02  0.31562378202E+03  0.78076047132E+02 0.  0.
         13    1    3    3    0    0 -0.75027939310E+02 -0.90849302237E+02 -0.15236916202E+02  0.11880635930E+03  0.00000000000E+00 0. -1.
        -13    1    3    3    0    0 -0.72112757273E+02 -0.62153157586E+02 -0.10604612208E+03  0.14250980586E+03  0.00000000000E+00 0.  1.
          4    1    5    5  502    0 -0.54255279182E+02 -0.16578299727E+03  0.18474525233E+02  0.17541079096E+03  0.00000000000E+00 0. -1.
          1    1    4    4  503    0  0.16320337797E+03  0.38791174912E+03  0.44471821112E+03  0.61227865796E+03  0.00000000000E+00 0. -1.
         -2    1    4    4    0  503  0.43103801382E+02  0.64082939919E+02  0.91501380844E+02  0.11973747775E+03  0.00000000000E+00 0.  1.
         -3    1    5    5    0  502 -0.49112035912E+01 -0.13320923195E+03 -0.43484059891E+02  0.14021299106E+03  0.00000000000E+00 0.  1.
<mgrwt>
<rscale>  0 0.12495291E+04</rscale>
<asrwt>0</asrwt>
<pdfrwt beam="1">  1        1 0.13068332E+00 0.12495291E+04</pdfrwt>
<pdfrwt beam="2">  1       -1 0.70694543E-01 0.12495291E+04</pdfrwt>
<totfact> 0.39985705E+01</totfact>
</mgrwt>
</event>
<event>
11    1  0.2502641E-008  0.1782419E+04  0.7818608E-02  0.8715705E-01
         -1   -1    0    0    0  501 -0.00000000000E+00  0.00000000000E+00  0.71206773909E+03  0.71206773909E+03  0.00000000000E+00 0.  1.
          1   -1    0    0  501    0  0.00000000000E+00 -0.00000000000E+00 -0.11154198038E+04  0.11154198038E+04  0.00000000000E+00 0. -1.
         23    2    1    2    0    0  0.47958630242E+03  0.21824347108E+03 -0.47111460548E+03  0.71287236730E+03  0.92762095861E+02 0.  0.
        254    2    1    2    0    0 -0.47958630242E+03 -0.21824347108E+03  0.67762540798E+02  0.11146151755E+04  0.97986835518E+03 0.  0.
         24    2    4    4    0    0  0.19917621213E+03 -0.23687748849E+03 -0.75334760023E+02  0.32838797627E+03  0.79882594236E+02 0.  0.
         13    1    3    3    0    0  0.14524507474E+03  0.55128153848E+02 -0.19644007984E+03  0.25044749959E+03  0.00000000000E+00 0.  1.
        -13    1    3    3    0    0  0.33434122768E+03  0.16311531723E+03 -0.27467452563E+03  0.46242486771E+03  0.00000000000E+00 0. -1.
          4    1    5    5  502    0 -0.45915293379E+01 -0.75568661728E+00 -0.80889129289E+01  0.93318656385E+01  0.00000000000E+00 0. -1.
          3    1    4    4  503    0 -0.11115288337E+03  0.67487281197E+02  0.17219194137E+03  0.21577664673E+03  0.00000000000E+00 0. -1.
         -4    1    4    4    0  503 -0.56760963118E+03 -0.48853263790E+02 -0.29094640544E+02  0.57045055254E+03  0.00000000000E+00 0.  1.
         -3    1    5    5    0  502  0.20376774147E+03 -0.23612180187E+03 -0.67245847094E+02  0.31905611063E+03  0.00000000000E+00 0.  1.
<mgrwt>
<rscale>  0 0.17824191E+04</rscale>
<asrwt>0</asrwt>
<pdfrwt beam="1">  1        1 0.17160305E+00 0.17824191E+04</pdfrwt>
<pdfrwt beam="2">  1       -1 0.10954888E+00 0.17824191E+04</pdfrwt>
<totfact> 0.89915136E+00</totfact>
</mgrwt>
</event>
<event>
12    1  0.2502641E-008  0.1124447E+04  0.7818608E-02  0.9181686E-01
         -2   -1    0    0    0  501 -0.00000000000E+00  0.00000000000E+00  0.16942236654E+03  0.16942236654E+03  0.00000000000E+00 0.  1.
          2   -1    0    0  501    0  0.00000000000E+00 -0.00000000000E+00 -0.18657233668E+04  0.18657233668E+04  0.00000000000E+00 0. -1.
         23    2    1    2    0    0 -0.12406097401E+03  0.46065440787E+02 -0.55724602889E+03  0.57948657531E+03  0.88138550848E+02 0.  0.
        254    2    1    2    0    0  0.12406097401E+03 -0.46065440787E+02 -0.11390549714E+04  0.14556591580E+04  0.89665166395E+03 0.  0.
        -24    2    4    4    0    0  0.92446222623E+02  0.39097174353E+03 -0.31484263884E+03  0.51906566425E+03  0.94329572529E+02 0.  0.
         24    2    4    4    0    0  0.31614751389E+02 -0.43703718432E+03 -0.82421233254E+03  0.93659349379E+03  0.76683834778E+02 0.  0.
         13    1    3    3    0    0 -0.12598761432E+03  0.43957894807E+02 -0.38961643269E+03  0.41183266031E+03  0.00000000000E+00 0. -1.
        -13    1    3    3    0    0  0.19266403044E+01  0.21075459801E+01 -0.16762959620E+03  0.16765391500E+03  0.00000000000E+00 0.  1.
          2    1    6    6  502    0  0.34031327842E+02 -0.29202342677E+03 -0.61936366241E+03  0.68559985368E+03  0.00000000000E+00 0. -1.
          3    1    5    5  503    0  0.85664278951E+02  0.37943806508E+03 -0.27324109859E+03  0.47536545087E+03  0.00000000000E+00 0. -1.
         -4    1    5    5    0  503  0.67819436718E+01  0.11533678455E+02 -0.41601540250E+02  0.43700213385E+02  0.00000000000E+00 0.  1.
         -1    1    6    6    0  502 -0.24165764527E+01 -0.14501375755E+03 -0.20484867013E+03  0.25099364011E+03  0.00000000000E+00 0.  1.
<mgrwt>
<rscale>  0 0.11244470E+04</rscale>
<asrwt>0</asrwt>
<pdfrwt beam="1">  1        2 0.28703437E+00 0.11244470E+04</pdfrwt>
<pdfrwt beam="2">  1       -2 0.26064979E-01 0.11244470E+04</pdfrwt>
<totfact> 0.10467445E+02</totfact>
</mgrwt>
</event>
<event>
12    1  0.2502641E-008  0.2131814E+04  0.7818608E-02  0.8547357E-01
          2   -1    0    0  501    0  0.00000000000E+00  0.00000000000E+00  0.34086079639E+04  0.34086079639E+04  0.00000000000E+00 0.  1.
         -2   -1    0    0    0  501 -0.00000000000E+00 -0.00000000000E+00 -0.33332015551E+03  0.33332015551E+03  0.00000000000E+00 0. -1.
         23    2    1    2    0    0 -0.43701316625E+03  0.36474845303E+03  0.24432751702E+04  0.25103690319E+04  0.91308147320E+02 0.  0.
        254    2    1    2    0    0  0.43701316625E+03 -0.36474845303E+03  0.63201263822E+03  0.12315590875E+04  0.89066035595E+03 0.  0.
        -24    2    4    4    0    0  0.35255670077E+03  0.78169103947E+02 -0.82918094094E+02  0.38280235668E+03  0.96206017902E+02 0.  0.
         24    2    4    4    0    0  0.84456465481E+02 -0.44291755698E+03  0.71493073231E+03  0.84875673082E+03  0.77156848485E+02 0.  0.
         13    1    3    3    0    0 -0.34784849516E+03  0.27549356818E+03  0.17286067086E+04  0.17846502276E+04  0.00000000000E+00 0. -1.
        -13    1    3    3    0    0 -0.89164671089E+02  0.89254884856E+02  0.71466846158E+03  0.72571880437E+03  0.00000000000E+00 0.  1.
          4    1    6    6  502    0  0.89094614261E+02 -0.39689973996E+03  0.67270637018E+03  0.78613046904E+03  0.00000000000E+00 0. -1.
          1    1    5    5  503    0  0.11478988743E+03  0.34974457725E+02 -0.73994517839E+02  0.14097914605E+03  0.00000000000E+00 0. -1.
         -2    1    5    5    0  503  0.23776681334E+03  0.43194646222E+02 -0.89235762555E+01  0.24182321063E+03  0.00000000000E+00 0.  1.
         -3    1    6    6    0  502 -0.46381487803E+01 -0.46017817016E+02  0.42224362126E+02  0.62626261775E+02  0.00000000000E+00 0.  1.
<mgrwt>
<rscale>  0 0.21318140E+04</rscale>
<asrwt>0</asrwt>
<pdfrwt beam="1">  1        2 0.52440120E+00 0.21318140E+04</pdfrwt>
<pdfrwt beam="2">  1       -2 0.51280026E-01 0.21318140E+04</pdfrwt>
<totfact> 0.31177942E+00</totfact>
</mgrwt>
</event>
<event>
11    1  0.2502641E-008  0.2126820E+04  0.7818608E-02  0.8549520E-01
          2   -1    0    0  501    0  0.00000000000E+00  0.00000000000E+00  0.22424653012E+04  0.22424653012E+04  0.00000000000E+00 0. -1.
         -2   -1    0    0    0  501 -0.00000000000E+00 -0.00000000000E+00 -0.50428456721E+03  0.50428456721E+03  0.00000000000E+00 0.  1.
         23    2    1    2    0    0  0.36135981211E+03 -0.68629781373E+03  0.21585160000E+03  0.81023605140E+03  0.91131459098E+02 0.  0.
        254    2    1    2    0    0 -0.36135981211E+03  0.68629781373E+03  0.15223291340E+04  0.19365138170E+04  0.91159978515E+03 0.  0.
         24    2    4    4    0    0  0.21560341444E+03  0.36787520407E+03  0.54078214103E+03  0.69340150372E+03  0.80890810419E+02 0.  0.
         13    1    3    3    0    0  0.20191765210E+03 -0.33222990083E+03  0.67727221331E+02  0.39463200801E+03  0.00000000000E+00 0. -1.
        -13    1    3    3    0    0  0.15944216001E+03 -0.35406791290E+03  0.14812437866E+03  0.41560404340E+03  0.00000000000E+00 0.  1.
          2    1    5    5  502    0 -0.61319068150E+01  0.42958497567E+01  0.15211369215E+02  0.16954066170E+02  0.00000000000E+00 0. -1.
          3    1    4    4  503    0 -0.28486055029E+03  0.35437690275E+03  0.70729801286E+03  0.84083232651E+03  0.00000000000E+00 0. -1.
         -2    1    4    4    0  503 -0.29210267626E+03 -0.35954293087E+02  0.27424898009E+03  0.40227998676E+03  0.00000000000E+00 0.  1.
         -3    1    5    5    0  502  0.22173532126E+03  0.36357935431E+03  0.52557077182E+03  0.67644743755E+03  0.00000000000E+00 0.  1.
<mgrwt>
<rscale>  0 0.21268198E+04</rscale>
<asrwt>0</asrwt>
<pdfrwt beam="1">  1        2 0.34499466E+00 0.21268198E+04</pdfrwt>
<pdfrwt beam="2">  1       -2 0.77582242E-01 0.21268198E+04</pdfrwt>
<totfact> 0.66538508E+00</totfact>
</mgrwt>
</event>
<event>
11    1  0.2502641E-008  0.1167416E+04  0.7818608E-02  0.9141865E-01
          1   -1    0    0  501    0  0.00000000000E+00  0.00000000000E+00  0.17976621588E+04  0.17976621588E+04  0.00000000000E+00 0. -1.
         -1   -1    0    0    0  501 -0.00000000000E+00 -0.00000000000E+00 -0.18953228969E+03  0.18953228969E+03  0.00000000000E+00 0.  1.
         23    2    1    2    0    0 -0.23212917669E+02 -0.17590063488E+03  0.13152973868E+03  0.24737694538E+03  0.11142444997E+03 0.  0.
        254    2    1    2    0    0  0.23212917669E+02  0.17590063488E+03  0.14766001304E+04  0.17398175031E+04  0.90284944815E+03 0.  0.
         24    2    4    4    0    0  0.16007014408E+02  0.39114056131E+03  0.44190786836E+03  0.59567114585E+03  0.79337170792E+02 0.  0.
         11    1    3    3    0    0 -0.93557758603E+00 -0.37700554771E+01 -0.17918978655E+02  0.18335168932E+02  0.00000000000E+00 0. -1.
        -11    1    3    3    0    0 -0.22277340083E+02 -0.17213057940E+03  0.14944871734E+03  0.22904177645E+03  0.00000000000E+00 0.  1.
          2    1    5    5  502    0  0.12467344289E+01  0.24300865510E+03  0.21604133815E+03  0.32515937721E+03  0.00000000000E+00 0. -1.
          1    1    4    4  503    0  0.20698189235E+03 -0.19891466866E+03  0.64189313833E+03  0.70316097033E+03  0.00000000000E+00 0. -1.
         -2    1    4    4    0  503 -0.19977598909E+03 -0.16325257777E+02  0.39279912373E+03  0.44098538690E+03  0.00000000000E+00 0.  1.
         -1    1    5    5    0  502  0.14760279979E+02  0.14813190621E+03  0.22586653021E+03  0.27051176864E+03  0.00000000000E+00 0.  1.
<mgrwt>
<rscale>  0 0.11674160E+04</rscale>
<asrwt>0</asrwt>
<pdfrwt beam="1">  1        1 0.27656340E+00 0.11674160E+04</pdfrwt>
<pdfrwt beam="2">  1       -1 0.29158815E-01 0.11674160E+04</pdfrwt>
<totfact> 0.43545506E+01</totfact>
</mgrwt>
</event>
<event>
12    1  0.2502641E-008  0.1811449E+04  0.7818608E-02  0.8700235E-01
          2   -1    0    0  501    0  0.00000000000E+00  0.00000000000E+00  0.18625883451E+04  0.18625883451E+04  0.00000000000E+00 0. -1.
         -2   -1    0    0    0  501 -0.00000000000E+00 -0.00000000000E+00 -0.44042820290E+03  0.44042820290E+03  0.00000000000E+00 0.  1.
         23    2    1    2    0    0 -0.23426704106E+03  0.52130246023E+03  0.71365350069E+02  0.58333621248E+03  0.92470655022E+02 0.  0.
        254    2    1    2    0    0  0.23426704106E+03 -0.52130246023E+03  0.13507947922E+04  0.17196803355E+04  0.89778426383E+03 0.  0.
        -24    2    4    4    0    0  0.20330630675E+03 -0.69761159001E+03  0.60962648258E+03  0.95302527956E+03  0.92829684543E+02 0.  0.
         24    2    4    4    0    0  0.30960734308E+02  0.17630912979E+03  0.74116830958E+03  0.76665505599E+03  0.79912673772E+02 0.  0.
         13    1    3    3    0    0 -0.22691071667E+03  0.51043582596E+03  0.84283621562E+02  0.56492206067E+03  0.00000000000E+00 0.  1.
        -13    1    3    3    0    0 -0.73563243861E+01  0.10866634265E+02 -0.12918271494E+02  0.18414151816E+02  0.00000000000E+00 0. -1.
          4    1    6    6  502    0  0.96514884828E+01  0.17242071955E+03  0.68559174039E+03  0.70700642872E+03  0.00000000000E+00 0. -1.
          1    1    5    5  503    0  0.19556034625E+03 -0.53365570279E+03  0.47718235826E+03  0.74211539614E+03  0.00000000000E+00 0. -1.
         -2    1    5    5    0  503  0.77459604965E+01 -0.16395588722E+03  0.13244412432E+03  0.21090988342E+03  0.00000000000E+00 0.  1.
         -3    1    6    6    0  502  0.21309245825E+02  0.38884102322E+01  0.55576569188E+02  0.59648627264E+02  0.00000000000E+00 0.  1.
<mgrwt>
<rscale>  0 0.18114485E+04</rscale>
<asrwt>0</asrwt>
<pdfrwt beam="1">  1        2 0.28655205E+00 0.18114485E+04</pdfrwt>
<pdfrwt beam="2">  1       -2 0.67758186E-01 0.18114485E+04</pdfrwt>
<totfact> 0.14991213E+01</totfact>
</mgrwt>
</event>
<event>
11    1  0.2502641E-008  0.2449493E+04  0.7818608E-02  0.8421203E-01
          4   -1    0    0  501    0  0.00000000000E+00  0.00000000000E+00  0.12349152699E+04  0.12349152699E+04  0.00000000000E+00 0. -1.
         -4   -1    0    0    0  501 -0.00000000000E+00 -0.00000000000E+00 -0.12146611139E+04  0.12146611139E+04  0.00000000000E+00 0.  1.
         23    2    1    2    0    0 -0.91705955650E+03  0.45633549633E+02 -0.51404381099E+03  0.10565919931E+04  0.95210027551E+02 0.  0.
        254    2    1    2    0    0  0.91705955650E+03 -0.45633549633E+02  0.53429796699E+03  0.13929843907E+04  0.90102749360E+03 0.  0.
         24    2    4    4    0    0  0.10765731494E+04 -0.33761966651E+02  0.40596628450E+03  0.11538456619E+04  0.80009817802E+02 0.  0.
         11    1    3    3    0    0 -0.27157302130E+03 -0.16568333336E+02 -0.18843233030E+03  0.33095794094E+03  0.00000000000E+00 0. -1.
        -11    1    3    3    0    0 -0.64548653520E+03  0.62201882970E+02 -0.32561148069E+03  0.72563405221E+03  0.00000000000E+00 0.  1.
          2    1    5    5  502    0  0.10343040768E+04 -0.38272107979E+02  0.40469391285E+03  0.11113176146E+04  0.00000000000E+00 0. -1.
          1    1    4    4  503    0 -0.16799120803E+03 -0.39648579945E+02  0.11290695895E+03  0.20625478721E+03  0.00000000000E+00 0. -1.
         -2    1    4    4    0  503  0.84776151223E+01  0.27776996963E+02  0.15424723546E+02  0.32883941596E+02  0.00000000000E+00 0.  1.
         -1    1    5    5    0  502  0.42269072652E+02  0.45101413287E+01  0.12723716458E+01  0.42528047301E+02  0.00000000000E+00 0.  1.
<mgrwt>
<rscale>  0 0.24494926E+04</rscale>
<asrwt>0</asrwt>
<pdfrwt beam="1">  1        4 0.18998696E+00 0.24494926E+04</pdfrwt>
<pdfrwt beam="2">  1       -4 0.18687094E+00 0.24494926E+04</pdfrwt>
<totfact> 0.44227875E-02</totfact>
</mgrwt>
</event>
<event>
11    1  0.2502641E-008  0.2586200E+04  0.7818608E-02  0.8372904E-01
         -1   -1    0    0    0  501 -0.00000000000E+00  0.00000000000E+00  0.10173017267E+04  0.10173017267E+04  0.00000000000E+00 0.  1.
          1   -1    0    0  501    0  0.00000000000E+00 -0.00000000000E+00 -0.16436696260E+04  0.16436696260E+04  0.00000000000E+00 0. -1.
         23    2    1    2    0    0 -0.10327694938E+04  0.39008089438E+03 -0.52776657770E+03  0.12269560805E+04  0.90042942288E+02 0.  0.
        254    2    1    2    0    0  0.10327694938E+04 -0.39008089438E+03 -0.98601321610E+02  0.14340152721E+04  0.90989100923E+03 0.  0.
         24    2    4    4    0    0  0.61960561797E+03 -0.50324981896E+03  0.27995716970E+03  0.84983198582E+03  0.81650996020E+02 0.  0.
         13    1    3    3    0    0 -0.54306635407E+02  0.14386100215E+02 -0.70451495776E+01  0.56619825690E+02  0.00000000000E+00 0. -1.
        -13    1    3    3    0    0 -0.97846285837E+03  0.37569479417E+03 -0.52072142812E+03  0.11703362548E+04  0.00000000000E+00 0.  1.
          4    1    5    5  502    0  0.40292897298E+03 -0.36713083508E+03  0.21381284485E+03  0.58553628406E+03  0.00000000000E+00 0. -1.
          1    1    4    4  503    0  0.21617253009E+03  0.13618551762E+02 -0.13375779756E+03  0.25457253608E+03  0.00000000000E+00 0. -1.
         -2    1    4    4    0  503  0.19699134572E+03  0.99550372814E+02 -0.24480069375E+03  0.32961075025E+03  0.00000000000E+00 0.  1.
         -3    1    5    5    0  502  0.21667664498E+03 -0.13611898388E+03  0.66144324852E+02  0.26429570175E+03  0.00000000000E+00 0.  1.
<mgrwt>
<rscale>  0 0.25862003E+04</rscale>
<asrwt>0</asrwt>
<pdfrwt beam="1">  1        1 0.25287225E+00 0.25862003E+04</pdfrwt>
<pdfrwt beam="2">  1       -1 0.15650796E+00 0.25862003E+04</pdfrwt>
<totfact> 0.14270082E+00</totfact>
</mgrwt>
</event>
<event>
12    1  0.2502641E-008  0.1965013E+04  0.7818608E-02  0.8623155E-01
          2   -1    0    0  501    0  0.00000000000E+00  0.00000000000E+00  0.53795256501E+03  0.53795256501E+03  0.00000000000E+00 0. -1.
         -2   -1    0    0    0  501 -0.00000000000E+00 -0.00000000000E+00 -0.17944319318E+04  0.17944319318E+04  0.00000000000E+00 0.  1.
         23    2    1    2    0    0  0.37679996768E+03  0.44528035950E+03 -0.11006966402E+04  0.12489575905E+04  0.90050845525E+02 0.  0.
        254    2    1    2    0    0 -0.37679996768E+03 -0.44528035950E+03 -0.15578272653E+03  0.10834269063E+04  0.89960701934E+03 0.  0.
        -24    2    4    4    0    0  0.18205971285E+03  0.15389593373E+03 -0.75257952952E+02  0.25656182921E+03  0.57710616574E+02 0.  0.
         24    2    4    4    0    0 -0.55885968052E+03 -0.59917629323E+03 -0.80524773577E+02  0.82686507711E+03  0.76715342026E+02 0.  0.
         11    1    3    3    0    0  0.35098755604E+03  0.43676191951E+03 -0.10194528437E+04  0.11632872987E+04  0.00000000000E+00 0.  1.
        -11    1    3    3    0    0  0.25812411634E+02  0.85184399923E+01 -0.81243796532E+02  0.85670291754E+02  0.00000000000E+00 0. -1.
          4    1    6    6  502    0 -0.18809980205E+03 -0.21004737694E+03  0.83687050738E+01  0.28208415644E+03  0.00000000000E+00 0. -1.
          3    1    5    5  503    0  0.76948613475E+02  0.73710911555E+02 -0.63006675363E+02  0.12379106890E+03  0.00000000000E+00 0. -1.
         -4    1    5    5    0  503  0.10511109937E+03  0.80185022172E+02 -0.12251277589E+02  0.13277076031E+03  0.00000000000E+00 0.  1.
         -3    1    6    6    0  502 -0.37075987848E+03 -0.38912891629E+03 -0.88893478651E+02  0.54478092067E+03  0.00000000000E+00 0.  1.
<mgrwt>
<rscale>  0 0.19650132E+04</rscale>
<asrwt>0</asrwt>
<pdfrwt beam="1">  1        2 0.82761934E-01 0.19650132E+04</pdfrwt>
<pdfrwt beam="2">  1       -2 0.27606645E+00 0.19650132E+04</pdfrwt>
<totfact> 0.23444044E+00</totfact>
</mgrwt>
</event>
<event>
12    1  0.2502641E-008  0.1172735E+04  0.7818608E-02  0.9137062E-01
         -2   -1    0    0    0  501 -0.00000000000E+00  0.00000000000E+00  0.29290420980E+03  0.29290420980E+03  0.00000000000E+00 0.  1.
          2   -1    0    0  501    0  0.00000000000E+00 -0.00000000000E+00 -0.11738549050E+04  0.11738549050E+04  0.00000000000E+00 0. -1.
         23    2    1    2    0    0  0.21205349961E+03  0.65826387648E+02 -0.22438270266E+03  0.32853039778E+03  0.91021014071E+02 0.  0.
        254    2    1    2    0    0 -0.21205349961E+03 -0.65826387648E+02 -0.65656799256E+03  0.11382287171E+04  0.90287500987E+03 0.  0.
        -24    2    4    4    0    0 -0.46918728118E+03  0.22836542520E+03 -0.39906070496E+03  0.66342717714E+03  0.92729180289E+02 0.  0.
         24    2    4    4    0    0  0.25713378157E+03 -0.29419181285E+03 -0.25750728760E+03  0.47480153991E+03  0.80373470489E+02 0.  0.
         13    1    3    3    0    0  0.12595464546E+03  0.60743028549E+02 -0.82125106145E+02  0.16216911324E+03  0.00000000000E+00 0.  1.
        -13    1    3    3    0    0  0.86098854147E+02  0.50833590988E+01 -0.14225759652E+03  0.16636128453E+03  0.00000000000E+00 0. -1.
          4    1    6    6  502    0  0.18892912046E+03 -0.16213214566E+03 -0.17966468018E+03  0.30701863546E+03  0.00000000000E+00 0. -1.
          1    1    5    5  503    0 -0.30412464628E+03  0.97915919895E+02 -0.24694615785E+03  0.40380903002E+03  0.00000000000E+00 0. -1.
         -4    1    5    5    0  503 -0.16506263490E+03  0.13044950531E+03 -0.15211454710E+03  0.25961814712E+03  0.00000000000E+00 0.  1.
         -3    1    6    6    0  502  0.68204661110E+02 -0.13205966719E+03 -0.77842607420E+02  0.16778290445E+03  0.00000000000E+00 0.  1.
<mgrwt>
<rscale>  0 0.11727353E+04</rscale>
<asrwt>0</asrwt>
<pdfrwt beam="1">  1        2 0.18059306E+00 0.11727353E+04</pdfrwt>
<pdfrwt beam="2">  1       -2 0.45062187E-01 0.11727353E+04</pdfrwt>
<totfact> 0.90615127E+01</totfact>
</mgrwt>
</event>
<event>
12    1  0.2502641E-008  0.1669815E+04  0.7818608E-02  0.8778770E-01
         -1   -1    0    0    0  501 -0.00000000000E+00  0.00000000000E+00  0.71982787734E+03  0.71982787734E+03  0.00000000000E+00 0.  1.
          1   -1    0    0  501    0  0.00000000000E+00 -0.00000000000E+00 -0.96838530292E+03  0.96838530292E+03  0.00000000000E+00 0. -1.
         23    2    1    2    0    0 -0.46679675514E+03 -0.37734968242E+03  0.49347536038E+01  0.60722710270E+03  0.91697377466E+02 0.  0.
        254    2    1    2    0    0  0.46679675514E+03  0.37734968242E+03 -0.25349217919E+03  0.10809860776E+04  0.86254311285E+03 0.  0.
        -24    2    4    4    0    0  0.66956863614E+03  0.10796999892E+03 -0.25979631540E+03  0.73384885740E+03  0.10516815514E+03 0.  0.
         24    2    4    4    0    0 -0.20277188099E+03  0.26937968349E+03  0.63041362076E+01  0.34713722015E+03  0.82356893330E+02 0.  0.
         13    1    3    3    0    0 -0.92715238910E+02 -0.58551000902E+02 -0.32321526781E+02  0.11431979849E+03  0.00000000000E+00 0. -1.
        -13    1    3    3    0    0 -0.37408151623E+03 -0.31879868151E+03  0.37256280385E+02  0.49290730422E+03  0.00000000000E+00 0.  1.
          4    1    6    6  502    0 -0.12679810305E+03  0.12545715055E+03 -0.28708001357E+02  0.18066932475E+03  0.00000000000E+00 0. -1.
          3    1    5    5  503    0  0.93634140930E+02  0.53391459028E+02 -0.38672953753E+02  0.11451461739E+03  0.00000000000E+00 0. -1.
         -4    1    5    5    0  503  0.57593449521E+03  0.54578539895E+02 -0.22112336164E+03  0.61933424001E+03  0.00000000000E+00 0.  1.
         -3    1    6    6    0  502 -0.75973777940E+02  0.14392253294E+03  0.35012137565E+02  0.16646789540E+03  0.00000000000E+00 0.  1.
<mgrwt>
<rscale>  0 0.16698152E+04</rscale>
<asrwt>0</asrwt>
<pdfrwt beam="1">  1        1 0.14898235E+00 0.16698152E+04</pdfrwt>
<pdfrwt beam="2">  1       -1 0.11074275E+00 0.16698152E+04</pdfrwt>
<totfact> 0.11485254E+01</totfact>
</mgrwt>
</event>
<event>
12    1  0.2502641E-008  0.3339606E+04  0.7818608E-02  0.8152890E-01
         -2   -1    0    0    0  501 -0.00000000000E+00  0.00000000000E+00  0.11377320292E+04  0.11377320292E+04  0.00000000000E+00 0.  1.
          2   -1    0    0  501    0  0.00000000000E+00 -0.00000000000E+00 -0.24507025546E+04  0.24507025546E+04  0.00000000000E+00 0. -1.
         23    2    1    2    0    0 -0.79597838512E+02 -0.89308351934E+03  0.74791875373E+03  0.11711495032E+04  0.90965423008E+02 0.  0.
        254    2    1    2    0    0  0.79597838512E+02  0.89308351934E+03 -0.20608892791E+04  0.24172850806E+04  0.88998233243E+03 0.  0.
        -24    2    4    4    0    0 -0.38278937226E+03  0.56410247080E+03 -0.11209110524E+04  0.13163551641E+04  0.10774984663E+03 0.  0.
         24    2    4    4    0    0  0.46238721077E+03  0.32898104854E+03 -0.93997822662E+03  0.11009299165E+04  0.80356403746E+02 0.  0.
         13    1    3    3    0    0 -0.51331188038E+02 -0.42764601341E+03  0.30273784824E+03  0.52646577135E+03  0.00000000000E+00 0. -1.
        -13    1    3    3    0    0 -0.28266650474E+02 -0.46543750593E+03  0.44518090549E+03  0.64468373182E+03  0.00000000000E+00 0.  1.
          4    1    6    6  502    0  0.21261210867E+03  0.10765515392E+03 -0.35830380942E+03  0.43031983543E+03  0.00000000000E+00 0. -1.
          3    1    5    5  503    0 -0.31589177292E+03  0.38029907230E+03 -0.78879433131E+03  0.93091970314E+03  0.00000000000E+00 0. -1.
         -4    1    5    5    0  503 -0.66897599341E+02  0.18380339850E+03 -0.33211672114E+03  0.38543546094E+03  0.00000000000E+00 0.  1.
         -3    1    6    6    0  502  0.24977510211E+03  0.22132589463E+03 -0.58167441720E+03  0.67061008111E+03  0.00000000000E+00 0.  1.
<mgrwt>
<rscale>  0 0.33396064E+04</rscale>
<asrwt>0</asrwt>
<pdfrwt beam="1">  1        2 0.37703115E+00 0.33396064E+04</pdfrwt>
<pdfrwt beam="2">  1       -2 0.17503570E+00 0.33396064E+04</pdfrwt>
<totfact> 0.60763179E-01</totfact>
</mgrwt>
</event>
<event>
11    1  0.2502641E-008  0.2196395E+04  0.7818608E-02  0.8519930E-01
         -2   -1    0    0    0  501 -0.00000000000E+00  0.00000000000E+00  0.12514593754E+04  0.12514593754E+04  0.00000000000E+00 0.  1.
          2   -1    0    0  501    0  0.00000000000E+00 -0.00000000000E+00 -0.96370511557E+03  0.96370511557E+03  0.00000000000E+00 0. -1.
         23    2    1    2    0    0 -0.32997727250E+03  0.78860757912E+03  0.47687069216E+03  0.98363112883E+03  0.96631394153E+02 0.  0.
        254    2    1    2    0    0  0.32997727250E+03 -0.78860757912E+03 -0.18911643237E+03  0.12315333621E+04  0.86609611636E+03 0.  0.
         24    2    4    4    0    0  0.15902206087E+03 -0.93818389268E+03 -0.40136414406E+02  0.95567999181E+03  0.78970137772E+02 0.  0.
         11    1    3    3    0    0 -0.10572034222E+03  0.31180974530E+03  0.23091431431E+03  0.40214863990E+03  0.00000000000E+00 0. -1.
        -11    1    3    3    0    0 -0.22425693028E+03  0.47679783382E+03  0.24595637785E+03  0.58148248892E+03  0.00000000000E+00 0.  1.
          4    1    5    5  502    0  0.28077238341E+02 -0.38042333375E+03 -0.30471742719E+02  0.38267319122E+03  0.00000000000E+00 0. -1.
          3    1    4    4  503    0  0.16811412830E+03  0.14639535849E+03 -0.13359391661E+03  0.25988708255E+03  0.00000000000E+00 0. -1.
         -4    1    4    4    0  503  0.28410833331E+01  0.31809550637E+01 -0.15386101355E+02  0.15966287751E+02  0.00000000000E+00 0.  1.
         -3    1    5    5    0  502  0.13094482253E+03 -0.55776055893E+03 -0.96646716869E+01  0.57300680059E+03  0.00000000000E+00 0.  1.
<mgrwt>
<rscale>  0 0.21963950E+04</rscale>
<asrwt>0</asrwt>
<pdfrwt beam="1">  1        2 0.14826233E+00 0.21963950E+04</pdfrwt>
<pdfrwt beam="2">  1       -2 0.19253221E+00 0.21963950E+04</pdfrwt>
<totfact> 0.36233326E+00</totfact>
</mgrwt>
</event>
<event>
12    1  0.2502641E-008  0.1264949E+04  0.7818608E-02  0.9057832E-01
          2   -1    0    0  501    0  0.00000000000E+00  0.00000000000E+00  0.64622324743E+03  0.64622324743E+03  0.00000000000E+00 0. -1.
         -2   -1    0    0    0  501 -0.00000000000E+00 -0.00000000000E+00 -0.61901858097E+03  0.61901858097E+03  0.00000000000E+00 0.  1.
         23    2    1    2    0    0 -0.21357368858E+03  0.19367957421E+03 -0.26853865955E+02  0.30312053862E+03  0.89640576164E+02 0.  0.
        254    2    1    2    0    0  0.21357368858E+03 -0.19367957421E+03  0.54058532412E+02  0.96212128978E+03  0.91631302152E+03 0.  0.
        -24    2    4    4    0    0  0.32950351846E+03  0.69184774698E+02  0.38217451526E+03  0.51846521620E+03  0.96900560216E+02 0.  0.
         24    2    4    4    0    0 -0.11592982988E+03 -0.26286434891E+03 -0.32811598285E+03  0.44365607358E+03  0.81444594920E+02 0.  0.
         13    1    3    3    0    0 -0.17241386846E+03  0.13634308450E+03  0.16267107134E+02  0.22041006670E+03  0.00000000000E+00 0. -1.
        -13    1    3    3    0    0 -0.41159820120E+02  0.57336489707E+02 -0.43120973089E+02  0.82710471915E+02  0.00000000000E+00 0.  1.
          2    1    6    6  502    0 -0.95239880523E+02 -0.13849622890E+03 -0.22458339877E+03  0.28051656505E+03  0.00000000000E+00 0. -1.
          1    1    5    5  503    0  0.70361567770E+02  0.42420773742E+02  0.49492100262E+02  0.95915276428E+02  0.00000000000E+00 0. -1.
         -2    1    5    5    0  503  0.25914195069E+03  0.26764000957E+02  0.33268241500E+03  0.42254993977E+03  0.00000000000E+00 0.  1.
         -1    1    6    6    0  502 -0.20689949355E+02 -0.12436812001E+03 -0.10353258407E+03  0.16313950853E+03  0.00000000000E+00 0.  1.
<mgrwt>
<rscale>  0 0.12649493E+04</rscale>
<asrwt>0</asrwt>
<pdfrwt beam="1">  1        2 0.99418961E-01 0.12649493E+04</pdfrwt>
<pdfrwt beam="2">  1       -2 0.95233628E-01 0.12649493E+04</pdfrwt>
<totfact> 0.41246811E+01</totfact>
</mgrwt>
</event>
<event>
11    1  0.2502641E-008  0.1422901E+04  0.7818608E-02  0.8937407E-01
          1   -1    0    0  501    0  0.00000000000E+00  0.00000000000E+00  0.21216647623E+04  0.21216647623E+04  0.00000000000E+00 0. -1.
         -1   -1    0    0    0  501 -0.00000000000E+00 -0.00000000000E+00 -0.23856807438E+03  0.23856807438E+03  0.00000000000E+00 0.  1.
         23    2    1    2    0    0 -0.34098740798E+02  0.40249168754E+03  0.35395691297E+03  0.54497596601E+03  0.92471750390E+02 0.  0.
        254    2    1    2    0    0  0.34098740798E+02 -0.40249168754E+03  0.15291397750E+04  0.18152568707E+04  0.89091344842E+03 0.  0.
         24    2    4    4    0    0 -0.34205752801E+03 -0.70283785849E+02  0.97354336725E+03  0.10374384684E+04  0.80924191592E+02 0.  0.
         11    1    3    3    0    0 -0.10181050620E+02 -0.90939845512E+00  0.74341642882E+01  0.12639129556E+02  0.00000000000E+00 0. -1.
        -11    1    3    3    0    0 -0.23917690178E+02  0.40340108600E+03  0.34652274868E+03  0.53233683645E+03  0.00000000000E+00 0.  1.
          2    1    5    5  502    0 -0.33810511026E+03 -0.70311440086E+02  0.97404738035E+03  0.10334539484E+04  0.00000000000E+00 0. -1.
          3    1    4    4  503    0  0.83444606335E+02 -0.14084710099E+03  0.66827830844E+02  0.17682439639E+03  0.00000000000E+00 0. -1.
         -4    1    4    4    0  503  0.29271166248E+03 -0.19136080070E+03  0.48876857690E+03  0.60099400593E+03  0.00000000000E+00 0.  1.
         -1    1    5    5    0  502 -0.39524177506E+01  0.27654236769E-01 -0.50401310347E+00  0.39845200514E+01  0.00000000000E+00 0.  1.
<mgrwt>
<rscale>  0 0.14229005E+04</rscale>
<asrwt>0</asrwt>
<pdfrwt beam="1">  1        1 0.32640995E+00 0.14229005E+04</pdfrwt>
<pdfrwt beam="2">  1       -1 0.36702782E-01 0.14229005E+04</pdfrwt>
<totfact> 0.17101675E+01</totfact>
</mgrwt>
</event>
<event>
12    1  0.2502641E-008  0.1924202E+04  0.7818608E-02  0.8642902E-01
          1   -1    0    0  501    0  0.00000000000E+00  0.00000000000E+00  0.19107321925E+04  0.19107321925E+04  0.00000000000E+00 0. -1.
         -1   -1    0    0    0  501 -0.00000000000E+00 -0.00000000000E+00 -0.48444188921E+03  0.48444188921E+03  0.00000000000E+00 0.  1.
         23    2    1    2    0    0  0.28205849236E+03  0.49870755070E+03 -0.43651793601E+02  0.58150684788E+03  0.89322566034E+02 0.  0.
        254    2    1    2    0    0 -0.28205849236E+03 -0.49870755070E+03  0.14699420969E+04  0.18136672339E+04  0.89464677537E+03 0.  0.
        -24    2    4    4    0    0  0.10719663753E+03  0.97287342132E+02 -0.55257698884E+01  0.17346332857E+03  0.95409885172E+02 0.  0.
         24    2    4    4    0    0 -0.38925512989E+03 -0.59599489284E+03  0.14754678668E+04  0.16402039053E+04  0.80832892656E+02 0.  0.
         13    1    3    3    0    0 -0.31105803760E+01  0.20984745249E+02  0.81746743822E+01  0.22734567176E+02  0.00000000000E+00 0. -1.
        -13    1    3    3    0    0  0.28516907274E+03  0.47772280546E+03 -0.51826467983E+02  0.55877228070E+03  0.00000000000E+00 0.  1.
          4    1    6    6  502    0 -0.25405414438E+03 -0.32932563654E+03  0.80543475662E+03  0.90648995048E+03  0.00000000000E+00 0. -1.
          3    1    5    5  503    0  0.77066521312E+02  0.10087502470E+03 -0.34457037761E+02  0.13153823310E+03  0.00000000000E+00 0. -1.
         -4    1    5    5    0  503  0.30130116221E+02 -0.35876825674E+01  0.28931267873E+02  0.41925095473E+02  0.00000000000E+00 0.  1.
         -3    1    6    6    0  502 -0.13520098551E+03 -0.26666925630E+03  0.67003311020E+03  0.73371395482E+03  0.00000000000E+00 0.  1.
<mgrwt>
<rscale>  0 0.19242024E+04</rscale>
<asrwt>0</asrwt>
<pdfrwt beam="1">  1        1 0.29395880E+00 0.19242024E+04</pdfrwt>
<pdfrwt beam="2">  1       -1 0.74529522E-01 0.19242024E+04</pdfrwt>
<totfact> 0.57949108E+00</totfact>
</mgrwt>
</event>
<event>
11    1  0.2502641E-008  0.1658120E+04  0.7818608E-02  0.8785618E-01
         -2   -1    0    0    0  501 -0.00000000000E+00  0.00000000000E+00  0.47187629873E+03  0.47187629873E+03  0.00000000000E+00 0.  1.
          2   -1    0    0  501    0  0.00000000000E+00 -0.00000000000E+00 -0.14566107427E+04  0.14566107427E+04  0.00000000000E+00 0. -1.
         23    2    1    2    0    0  0.38468753620E+03 -0.36840303400E+03 -0.61006527760E+03  0.81505070390E+03  0.91775329056E+02 0.  0.
        254    2    1    2    0    0 -0.38468753620E+03  0.36840303400E+03 -0.37466916641E+03  0.11134363376E+04  0.90313797262E+03 0.  0.
         24    2    4    4    0    0 -0.39480474703E+03  0.11645167549E+02 -0.57446972570E+03  0.70180542682E+03  0.80678331397E+02 0.  0.
         11    1    3    3    0    0  0.15829043427E+02 -0.37876316693E+02 -0.23316687519E+02  0.47210612143E+02  0.00000000000E+00 0.  1.
        -11    1    3    3    0    0  0.36885849277E+03 -0.33052671731E+03 -0.58674859008E+03  0.76784009176E+03  0.00000000000E+00 0. -1.
          4    1    5    5  502    0 -0.10964407579E+03  0.13931796591E+02 -0.22556126832E+03  0.25118480065E+03  0.00000000000E+00 0. -1.
          1    1    4    4  503    0 -0.44965053629E+01  0.87824047746E+02  0.71320630448E+02  0.11322506017E+03  0.00000000000E+00 0. -1.
         -2    1    4    4    0  503  0.14613716194E+02  0.26893381871E+03  0.12847992885E+03  0.29840585058E+03  0.00000000000E+00 0.  1.
         -3    1    5    5    0  502 -0.28516067123E+03 -0.22866290425E+01 -0.34890845738E+03  0.45062062617E+03  0.00000000000E+00 0.  1.
<mgrwt>
<rscale>  0 0.16581195E+04</rscale>
<asrwt>0</asrwt>
<pdfrwt beam="1">  1        2 0.22409395E+00 0.16581195E+04</pdfrwt>
<pdfrwt beam="2">  1       -2 0.72596356E-01 0.16581195E+04</pdfrwt>
<totfact> 0.22006694E+01</totfact>
</mgrwt>
</event>
<event>
11    1  0.2502641E-008  0.2178261E+04  0.7818608E-02  0.8527531E-01
         -2   -1    0    0    0  501 -0.00000000000E+00  0.00000000000E+00  0.13383380053E+04  0.13383380053E+04  0.00000000000E+00 0.  1.
          2   -1    0    0  501    0  0.00000000000E+00 -0.00000000000E+00 -0.88632701858E+03  0.88632701858E+03  0.00000000000E+00 0. -1.
         23    2    1    2    0    0  0.89727760904E+03  0.85505581099E+02  0.66495092129E+02  0.90859292664E+03  0.93280206878E+02 0.  0.
        254    2    1    2    0    0 -0.89727760904E+03 -0.85505581099E+02  0.38551589463E+03  0.13160720973E+04  0.87806887438E+03 0.  0.
         24    2    4    4    0    0 -0.64177148242E+02  0.27721558690E+03  0.13564526138E+03  0.32536653389E+03  0.80601218739E+02 0.  0.
         11    1    3    3    0    0  0.83666459139E+03  0.96202812819E+02  0.78694041072E+02  0.84584595039E+03  0.00000000000E+00 0. -1.
        -11    1    3    3    0    0  0.60613017642E+02 -0.10697231720E+02 -0.12198948943E+02  0.62746976258E+02  0.00000000000E+00 0.  1.
          2    1    5    5  502    0 -0.59546066900E+02  0.26782490818E+03  0.14587033753E+03  0.31073150934E+03  0.00000000000E+00 0. -1.
          1    1    4    4  503    0 -0.74844482804E+03 -0.37841753622E+03  0.13865209154E+03  0.85005523046E+03  0.00000000000E+00 0. -1.
         -2    1    4    4    0  503 -0.84655632749E+02  0.15696368223E+02  0.11121854171E+03  0.14065033293E+03  0.00000000000E+00 0.  1.
         -1    1    5    5    0  502 -0.46310813419E+01  0.93906787239E+01 -0.10225076152E+02  0.14635024551E+02  0.00000000000E+00 0.  1.
<mgrwt>
<rscale>  0 0.21782609E+04</rscale>
<asrwt>0</asrwt>
<pdfrwt beam="1">  1        2 0.13635800E+00 0.21782609E+04</pdfrwt>
<pdfrwt beam="2">  1       -2 0.20589815E+00 0.21782609E+04</pdfrwt>
<totfact> 0.33374548E+00</totfact>
</mgrwt>
</event>
<event>
11    1  0.2502641E-008  0.1112751E+04  0.7818608E-02  0.9192853E-01
         -1   -1    0    0    0  501 -0.00000000000E+00  0.00000000000E+00  0.16225533799E+03  0.16225533799E+03  0.00000000000E+00 0.  1.
          1   -1    0    0  501    0  0.00000000000E+00 -0.00000000000E+00 -0.19078170176E+04  0.19078170176E+04  0.00000000000E+00 0. -1.
         23    2    1    2    0    0  0.10281681461E+03 -0.11759230482E+03 -0.13043586766E+03  0.22166552073E+03  0.87879690408E+02 0.  0.
        254    2    1    2    0    0 -0.10281681461E+03  0.11759230482E+03 -0.16151258119E+04  0.18484068348E+04  0.88519895573E+03 0.  0.
         24    2    4    4    0    0 -0.90730757589E+02  0.46107116086E+03 -0.11299906472E+04  0.12262940504E+04  0.78099613031E+02 0.  0.
         13    1    3    3    0    0  0.50662088381E+02 -0.62139943548E+00 -0.29749013887E+02  0.58754039552E+02  0.00000000000E+00 0. -1.
        -13    1    3    3    0    0  0.52154726224E+02 -0.11697090539E+03 -0.10068685378E+03  0.16291148117E+03  0.00000000000E+00 0.  1.
          4    1    5    5  502    0 -0.27743351525E+01  0.76768665157E+02 -0.12468537739E+03  0.14644988296E+03  0.00000000000E+00 0. -1.
          3    1    4    4  503    0 -0.15577962587E+02  0.20239337416E+02 -0.27446642357E+02  0.37491624052E+02  0.00000000000E+00 0. -1.
         -4    1    4    4    0  503  0.34919055704E+01 -0.36371819346E+03 -0.45768852236E+03  0.58462116037E+03  0.00000000000E+00 0.  1.
         -3    1    5    5    0  502 -0.87956422436E+02  0.38430249571E+03 -0.10053052698E+04  0.10798441675E+04  0.00000000000E+00 0.  1.
<mgrwt>
<rscale>  0 0.11127506E+04</rscale>
<asrwt>0</asrwt>
<pdfrwt beam="1">  1        1 0.29351031E+00 0.11127506E+04</pdfrwt>
<pdfrwt beam="2">  1       -1 0.24962360E-01 0.11127506E+04</pdfrwt>
<totfact> 0.48220869E+01</totfact>
</mgrwt>
</event>
<event>
12    1  0.2502641E-008  0.1931077E+04  0.7818608E-02  0.8639540E-01
         -2   -1    0    0    0  501 -0.00000000000E+00  0.00000000000E+00  0.44916760873E+03  0.44916760873E+03  0.00000000000E+00 0.  1.
          2   -1    0    0  501    0  0.00000000000E+00 -0.00000000000E+00 -0.20755393536E+04  0.20755393536E+04  0.00000000000E+00 0. -1.
         23    2    1    2    0    0 -0.22576403034E+03 -0.69531312603E+03 -0.91580676413E+03  0.11757569467E+04  0.96294485407E+02 0.  0.
        254    2    1    2    0    0  0.22576403034E+03  0.69531312603E+03 -0.71056498077E+03  0.13489500156E+04  0.88336505035E+03 0.  0.
        -24    2    4    4    0    0  0.29062003408E+03  0.87056139426E+03 -0.67124039416E+03  0.11419439760E+04  0.10552361006E+03 0.  0.
         24    2    4    4    0    0 -0.64856003745E+02 -0.17524826823E+03 -0.39324586614E+02  0.20700603960E+03  0.79917586183E+02 0.  0.
         13    1    3    3    0    0 -0.28195463864E+02 -0.21692593899E+03 -0.30102132333E+03  0.37210977451E+03  0.00000000000E+00 0.  1.
        -13    1    3    3    0    0 -0.19756856647E+03 -0.47838718704E+03 -0.61478544080E+03  0.80364717221E+03  0.00000000000E+00 0. -1.
          4    1    6    6  502    0 -0.45454078063E+01  0.53764647267E+01  0.81299501223E+01  0.10754682426E+02  0.00000000000E+00 0. -1.
          3    1    5    5  503    0 -0.61988201668E+01  0.40016328860E+02 -0.17617114153E+02  0.44159876109E+02  0.00000000000E+00 0. -1.
         -4    1    5    5    0  503  0.29681885425E+03  0.83054506540E+03 -0.65362328000E+03  0.10977840999E+04  0.00000000000E+00 0.  1.
         -3    1    6    6    0  502 -0.60310595938E+02 -0.18062473295E+03 -0.47454536737E+02  0.19625135718E+03  0.00000000000E+00 0.  1.
<mgrwt>
<rscale>  0 0.19310775E+04</rscale>
<asrwt>0</asrwt>
<pdfrwt beam="1">  1        2 0.31931374E+00 0.19310775E+04</pdfrwt>
<pdfrwt beam="2">  1       -2 0.69102710E-01 0.19310775E+04</pdfrwt>
<totfact> 0.10831304E+01</totfact>
</mgrwt>
</event>
<event>
11    1  0.2502641E-008  0.2223383E+04  0.7818608E-02  0.8508758E-01
          1   -1    0    0  501    0  0.00000000000E+00  0.00000000000E+00  0.12856762755E+04  0.12856762755E+04  0.00000000000E+00 0. -1.
         -1   -1    0    0    0  501 -0.00000000000E+00 -0.00000000000E+00 -0.96125121089E+03  0.96125121089E+03  0.00000000000E+00 0.  1.
         23    2    1    2    0    0  0.81619998204E+03 -0.35930711126E+02 -0.30022388135E+03  0.87542750133E+03  0.93624272886E+02 0.  0.
        254    2    1    2    0    0 -0.81619998204E+03  0.35930711126E+02  0.62464894600E+03  0.13714999851E+04  0.90738772127E+03 0.  0.
         24    2    4    4    0    0 -0.44969379500E+02 -0.30868716187E+03  0.34953762434E+03  0.47478985295E+03  0.77063899763E+02 0.  0.
         13    1    3    3    0    0  0.47789454649E+03 -0.22106153769E+02 -0.12637325616E+03  0.49481519729E+03  0.00000000000E+00 0. -1.
        -13    1    3    3    0    0  0.33830543555E+03 -0.13824557357E+02 -0.17385062518E+03  0.38061230404E+03  0.00000000000E+00 0.  1.
          4    1    5    5  502    0 -0.63567281186E+02 -0.26288690742E+03  0.27822600735E+03  0.38802066504E+03  0.00000000000E+00 0. -1.
          1    1    4    4  503    0 -0.77420195123E+03  0.34166536465E+03  0.26663138422E+03  0.88725203733E+03  0.00000000000E+00 0. -1.
         -2    1    4    4    0  503  0.29713486897E+01  0.29525083377E+01  0.84799374479E+01  0.94580948208E+01  0.00000000000E+00 0.  1.
         -3    1    5    5    0  502  0.18597901686E+02 -0.45800254450E+02  0.71311616982E+02  0.86769187915E+02  0.00000000000E+00 0.  1.
<mgrwt>
<rscale>  0 0.22233829E+04</rscale>
<asrwt>0</asrwt>
<pdfrwt beam="1">  1        1 0.19779635E+00 0.22233829E+04</pdfrwt>
<pdfrwt beam="2">  1       -1 0.14788480E+00 0.22233829E+04</pdfrwt>
<totfact> 0.30550458E+00</totfact>
</mgrwt>
</event>
<event>
12    1  0.2502641E-008  0.3176239E+04  0.7818608E-02  0.8195121E-01
          2   -1    0    0  501    0  0.00000000000E+00  0.00000000000E+00  0.38131933437E+04  0.38131933437E+04  0.00000000000E+00 0. -1.
         -2   -1    0    0    0  501 -0.00000000000E+00 -0.00000000000E+00 -0.66142045091E+03  0.66142045091E+03  0.00000000000E+00 0.  1.
         23    2    1    2    0    0  0.14098008356E+04  0.29181917295E+03  0.17664831872E+04  0.22806376940E+04  0.90269679813E+02 0.  0.
        254    2    1    2    0    0 -0.14098008356E+04 -0.29181917295E+03  0.13852897056E+04  0.21939761006E+04  0.90653556780E+03 0.  0.
        -24    2    4    4    0    0 -0.47518799422E+03 -0.42388586245E+03  0.19370387485E+03  0.67175684961E+03  0.90847232378E+02 0.  0.
         24    2    4    4    0    0 -0.93461284138E+03  0.13206668950E+03  0.11915858308E+04  0.15222192510E+04  0.79573124796E+02 0.  0.
         13    1    3    3    0    0  0.12162455137E+04  0.22049029647E+03  0.15016823858E+04  0.19449727783E+04  0.00000000000E+00 0.  1.
        -13    1    3    3    0    0  0.19355532192E+03  0.71328876480E+02  0.26480080138E+03  0.33566491576E+03  0.00000000000E+00 0. -1.
          2    1    6    6  502    0 -0.82395532190E+03  0.10871349682E+03  0.10061036140E+04  0.13049771948E+04  0.00000000000E+00 0. -1.
          1    1    5    5  503    0 -0.43176021915E+03 -0.40092765185E+03  0.20002332022E+03  0.62222921620E+03  0.00000000000E+00 0. -1.
         -2    1    5    5    0  503 -0.43427775070E+02 -0.22958210599E+02 -0.63194453735E+01  0.49527633411E+02  0.00000000000E+00 0.  1.
         -1    1    6    6    0  502 -0.11065751948E+03  0.23353192676E+02  0.18548221679E+03  0.21724205617E+03  0.00000000000E+00 0.  1.
<mgrwt>
<rscale>  0 0.31762393E+04</rscale>
<asrwt>0</asrwt>
<pdfrwt beam="1">  1        2 0.58664511E+00 0.31762393E+04</pdfrwt>
<pdfrwt beam="2">  1       -2 0.10175700E+00 0.31762393E+04</pdfrwt>
<totfact> 0.32037611E-01</totfact>
</mgrwt>
</event>
<event>
12    1  0.2502641E-008  0.1470663E+04  0.7818608E-02  0.8904200E-01
          2   -1    0    0  501    0  0.00000000000E+00  0.00000000000E+00  0.15573123840E+04  0.15573123840E+04  0.00000000000E+00 0. -1.
         -2   -1    0    0    0  501 -0.00000000000E+00 -0.00000000000E+00 -0.34720865920E+03  0.34720865920E+03  0.00000000000E+00 0.  1.
         23    2    1    2    0    0 -0.43129227532E+03 -0.11139125130E+02  0.57938495592E+03  0.72802102013E+03  0.90501777612E+02 0.  0.
        254    2    1    2    0    0  0.43129227532E+03  0.11139125130E+02  0.63071876889E+03  0.11765000231E+04  0.89454403580E+03 0.  0.
        -24    2    4    4    0    0  0.38037669784E+03  0.30800301043E+03  0.32938271352E+02  0.50276940513E+03  0.11018102522E+03 0.  0.
         24    2    4    4    0    0  0.50915577486E+02 -0.29686388530E+03  0.59778049754E+03  0.67373061794E+03  0.76490913761E+02 0.  0.
         13    1    3    3    0    0 -0.21122263775E+03 -0.23295276389E+02  0.35326272146E+03  0.41225262034E+03  0.00000000000E+00 0.  1.
        -13    1    3    3    0    0 -0.22006963757E+03  0.12156151259E+02  0.22612223445E+03  0.31576839979E+03  0.00000000000E+00 0. -1.
          4    1    6    6  502    0 -0.46464120193E+01 -0.47423287647E+02  0.15866233487E+03  0.16566319405E+03  0.00000000000E+00 0. -1.
          1    1    5    5  503    0  0.15244700862E+03  0.12119996340E+03  0.67342546689E+02  0.20606926059E+03  0.00000000000E+00 0. -1.
         -2    1    5    5    0  503  0.22792968922E+03  0.18680304703E+03 -0.34404275337E+02  0.29670014454E+03  0.00000000000E+00 0.  1.
         -3    1    6    6    0  502  0.55561989505E+02 -0.24944059766E+03  0.43911816266E+03  0.50806742389E+03  0.00000000000E+00 0.  1.
<mgrwt>
<rscale>  0 0.14706629E+04</rscale>
<asrwt>0</asrwt>
<pdfrwt beam="1">  1        2 0.23958652E+00 0.14706629E+04</pdfrwt>
<pdfrwt beam="2">  1       -2 0.53416718E-01 0.14706629E+04</pdfrwt>
<totfact> 0.37685692E+01</totfact>
</mgrwt>
</event>
<event>
11    1  0.2502641E-008  0.1733531E+04  0.7818608E-02  0.8742468E-01
         -2   -1    0    0    0  501 -0.00000000000E+00  0.00000000000E+00  0.20442980086E+03  0.20442980086E+03  0.00000000000E+00 0.  1.
          2   -1    0    0  501    0  0.00000000000E+00 -0.00000000000E+00 -0.36750140855E+04  0.36750140855E+04  0.00000000000E+00 0. -1.
         23    2    1    2    0    0  0.33953692692E+03  0.37018997455E+02 -0.25453472864E+04  0.25704678416E+04  0.10888703238E+03 0.  0.
        254    2    1    2    0    0 -0.33953692692E+03 -0.37018997455E+02 -0.92523699829E+03  0.13089760447E+04  0.86063874637E+03 0.  0.
         24    2    4    4    0    0  0.77404523646E+02  0.14671101520E+03  0.76085765297E+02  0.19940912266E+03  0.80370219961E+02 0.  0.
         13    1    3    3    0    0  0.30788243428E+03  0.10300739316E+02 -0.23868435957E+04  0.24066408226E+04  0.00000000000E+00 0. -1.
        -13    1    3    3    0    0  0.31654492643E+02  0.26718258139E+02 -0.15850369067E+03  0.16382701908E+03  0.00000000000E+00 0.  1.
          4    1    5    5  502    0 -0.99064855770E+01  0.16606387168E+02  0.30700471336E+02  0.36282633470E+02  0.00000000000E+00 0. -1.
          1    1    4    4  503    0 -0.86424929976E+02 -0.31131669486E+02 -0.91682724966E+02  0.12978509708E+03  0.00000000000E+00 0. -1.
         -2    1    4    4    0  503 -0.33051652059E+03 -0.15259834317E+03 -0.90964003862E+03  0.97978182499E+03  0.00000000000E+00 0.  1.
         -3    1    5    5    0  502  0.87311009223E+02  0.13010462803E+03  0.45385293961E+02  0.16312648919E+03  0.00000000000E+00 0.  1.
<mgrwt>
<rscale>  0 0.17335310E+04</rscale>
<asrwt>0</asrwt>
<pdfrwt beam="1">  1        2 0.56538674E+00 0.17335310E+04</pdfrwt>
<pdfrwt beam="2">  1       -2 0.31450741E-01 0.17335310E+04</pdfrwt>
<totfact> 0.54872527E+00</totfact>
</mgrwt>
</event>
<event>
11    1  0.2502641E-008  0.3619796E+04  0.7818608E-02  0.8085972E-01
          2   -1    0    0  501    0  0.00000000000E+00  0.00000000000E+00  0.21473669261E+04  0.21473669261E+04  0.00000000000E+00 0. -1.
         -2   -1    0    0    0  501 -0.00000000000E+00 -0.00000000000E+00 -0.15254641568E+04  0.15254641568E+04  0.00000000000E+00 0.  1.
         23    2    1    2    0    0 -0.74165494680E+03 -0.12808966658E+04  0.11289329897E+04  0.18637716266E+04  0.91687798554E+02 0.  0.
        254    2    1    2    0    0  0.74165494680E+03  0.12808966658E+04 -0.50703022042E+03  0.18090594563E+04  0.90822251860E+03 0.  0.
         24    2    4    4    0    0  0.26383831145E+03  0.68636842347E+02 -0.40798416399E+03  0.49736669530E+03  0.81245804888E+02 0.  0.
         11    1    3    3    0    0  0.75255715615E+00 -0.53760266395E+01 -0.34824525715E+00  0.54396028772E+01  0.00000000000E+00 0.  1.
        -11    1    3    3    0    0 -0.74240750395E+03 -0.12755206392E+04  0.11292812350E+04  0.18583320238E+04  0.00000000000E+00 0. -1.
          2    1    5    5  502    0  0.18644057963E+02 -0.35762334641E+01 -0.76261573321E+02  0.78588917212E+02  0.00000000000E+00 0. -1.
          3    1    4    4  503    0  0.19985352264E+03  0.38387694854E+03 -0.61285894527E+02  0.43710285174E+03  0.00000000000E+00 0. -1.
         -2    1    4    4    0  503  0.27796311271E+03  0.82838287491E+03 -0.37760161903E+02  0.87458990922E+03  0.00000000000E+00 0.  1.
         -1    1    5    5    0  502  0.24519425349E+03  0.72213075811E+02 -0.33172259067E+03  0.41877777809E+03  0.00000000000E+00 0.  1.
<mgrwt>
<rscale>  0 0.36197963E+04</rscale>
<asrwt>0</asrwt>
<pdfrwt beam="1">  1        2 0.33036414E+00 0.36197963E+04</pdfrwt>
<pdfrwt beam="2">  1       -2 0.23468679E+00 0.36197963E+04</pdfrwt>
<totfact> 0.35952285E-01</totfact>
</mgrwt>
</event>
<event>
12    1  0.2502641E-008  0.2478385E+04  0.7818608E-02  0.8410727E-01
          1   -1    0    0  501    0  0.00000000000E+00  0.00000000000E+00  0.17831158672E+04  0.17831158672E+04  0.00000000000E+00 0. -1.
         -1   -1    0    0    0  501 -0.00000000000E+00 -0.00000000000E+00 -0.86118777659E+03  0.86118777659E+03  0.00000000000E+00 0.  1.
         23    2    1    2    0    0  0.29589411115E+03  0.88725727078E+03 -0.15645669115E+03  0.95289096606E+03  0.93507793355E+02 0.  0.
        254    2    1    2    0    0 -0.29589411115E+03 -0.88725727078E+03  0.10783847818E+04  0.16914126777E+04  0.90729505637E+03 0.  0.
        -24    2    4    4    0    0 -0.43278578669E+02  0.14589054601E+03  0.69260753671E+01  0.17954739359E+03  0.95037935781E+02 0.  0.
         24    2    4    4    0    0 -0.25261553248E+03 -0.10331478168E+04  0.10714587064E+04  0.15118652842E+04  0.80646508287E+02 0.  0.
         11    1    3    3    0    0  0.14019199060E+03  0.47066501726E+03 -0.37562890027E+02  0.49253459108E+03  0.00000000000E+00 0.  1.
        -11    1    3    3    0    0  0.15570212055E+03  0.41659225352E+03 -0.11889380112E+03  0.46035637498E+03  0.00000000000E+00 0. -1.
          4    1    6    6  502    0 -0.81267519597E+02 -0.28816221132E+03  0.35200709766E+03  0.46211564200E+03  0.00000000000E+00 0. -1.
          1    1    5    5  503    0  0.13242981521E+02  0.59584362597E+02  0.37879546426E+02  0.71836848922E+02  0.00000000000E+00 0. -1.
         -2    1    5    5    0  503 -0.56521560190E+02  0.86306183417E+02 -0.30953471058E+02  0.10771054467E+03  0.00000000000E+00 0.  1.
         -3    1    6    6    0  502 -0.17134801288E+03 -0.74498560547E+03  0.71945160874E+03  0.10497496422E+04  0.00000000000E+00 0.  1.
<mgrwt>
<rscale>  0 0.24783846E+04</rscale>
<asrwt>0</asrwt>
<pdfrwt beam="1">  1        1 0.27432552E+00 0.24783846E+04</pdfrwt>
<pdfrwt beam="2">  1       -1 0.13249043E+00 0.24783846E+04</pdfrwt>
<totfact> 0.17993236E+00</totfact>
</mgrwt>
</event>
<event>
12    1  0.2502641E-008  0.1825089E+04  0.7818608E-02  0.8693070E-01
         -2   -1    0    0    0  501 -0.00000000000E+00  0.00000000000E+00  0.63071037788E+03  0.63071037788E+03  0.00000000000E+00 0.  1.
          2   -1    0    0  501    0  0.00000000000E+00 -0.00000000000E+00 -0.13203165332E+04  0.13203165332E+04  0.00000000000E+00 0. -1.
         23    2    1    2    0    0  0.42684202352E+03  0.50381698965E+03 -0.51551519501E+02  0.66869692745E+03  0.92045366640E+02 0.  0.
        254    2    1    2    0    0 -0.42684202352E+03 -0.50381698965E+03 -0.63805463584E+03  0.12823299836E+04  0.89511496275E+03 0.  0.
        -24    2    4    4    0    0 -0.51582806588E+03 -0.38212831008E+03 -0.28970020840E+02  0.64977386343E+03  0.96260960769E+02 0.  0.
         24    2    4    4    0    0  0.88986042362E+02 -0.12168867957E+03 -0.60908461500E+03  0.63255612022E+03  0.80103224185E+02 0.  0.
         13    1    3    3    0    0  0.12139981432E+03  0.19896998432E+03 -0.43354271426E+02  0.23707923238E+03  0.00000000000E+00 0. -1.
        -13    1    3    3    0    0  0.30544220920E+03  0.30484700533E+03 -0.81972480752E+01  0.43161769507E+03  0.00000000000E+00 0.  1.
          2    1    6    6  502    0  0.79702174127E+02 -0.12617164549E+03 -0.47078317388E+03  0.49387095227E+03  0.00000000000E+00 0. -1.
          1    1    5    5  503    0 -0.12716637628E+03 -0.48315441508E+02  0.66702064920E+01  0.13619897503E+03  0.00000000000E+00 0. -1.
         -2    1    5    5    0  503 -0.38866168960E+03 -0.33381286857E+03 -0.35640227332E+02  0.51357488840E+03  0.00000000000E+00 0.  1.
         -1    1    6    6    0  502  0.92838682346E+01  0.44829659250E+01 -0.13830144112E+03  0.13868516795E+03  0.00000000000E+00 0.  1.
<mgrwt>
<rscale>  0 0.18250889E+04</rscale>
<asrwt>0</asrwt>
<pdfrwt beam="1">  1        2 0.20312562E+00 0.18250889E+04</pdfrwt>
<pdfrwt beam="2">  1       -2 0.97032367E-01 0.18250889E+04</pdfrwt>
<totfact> 0.13444035E+01</totfact>
</mgrwt>
</event>
<event>
12    1  0.2502641E-008  0.1401662E+04  0.7818608E-02  0.8952616E-01
         -2   -1    0    0    0  501 -0.00000000000E+00  0.00000000000E+00  0.27361248595E+03  0.27361248595E+03  0.00000000000E+00 0. -1.
          2   -1    0    0  501    0  0.00000000000E+00 -0.00000000000E+00 -0.17951089282E+04  0.17951089282E+04  0.00000000000E+00 0.  1.
         23    2    1    2    0    0  0.18093333113E+03 -0.37368852523E+03 -0.43646317228E+03  0.60965357681E+03  0.93794449502E+02 0.  0.
        254    2    1    2    0    0 -0.18093333113E+03  0.37368852523E+03 -0.10850332699E+04  0.14590678373E+04  0.88272406377E+03 0.  0.
        -24    2    4    4    0    0  0.23179236289E+03  0.41791360183E+03 -0.83896236231E+03  0.96995808349E+03  0.92635631814E+02 0.  0.
         24    2    4    4    0    0 -0.41272569402E+03 -0.44225076596E+02 -0.24607090763E+03  0.48910975381E+03  0.79869291825E+02 0.  0.
         13    1    3    3    0    0  0.15371580902E+03 -0.27595400937E+03 -0.27421849073E+03  0.41830006680E+03  0.00000000000E+00 0. -1.
        -13    1    3    3    0    0  0.27217522114E+02 -0.97734515866E+02 -0.16224468156E+03  0.19135351002E+03  0.00000000000E+00 0.  1.
          2    1    6    6  502    0 -0.24818528940E+03 -0.27685232924E+02 -0.10188509342E+03  0.26970906966E+03  0.00000000000E+00 0. -1.
          1    1    5    5  503    0  0.23703917962E+03  0.40539855850E+03 -0.83016097426E+03  0.95378341729E+03  0.00000000000E+00 0. -1.
         -2    1    5    5    0  503 -0.52468167319E+01  0.12515043327E+02 -0.88013880447E+01  0.16174666204E+02  0.00000000000E+00 0.  1.
         -1    1    6    6    0  502 -0.16454040462E+03 -0.16539843672E+02 -0.14418581421E+03  0.21940068414E+03  0.00000000000E+00 0.  1.
<mgrwt>
<rscale>  0 0.14016622E+04</rscale>
<asrwt>0</asrwt>
<pdfrwt beam="1">  1        2 0.27617060E+00 0.14016622E+04</pdfrwt>
<pdfrwt beam="2">  1       -2 0.42094229E-01 0.14016622E+04</pdfrwt>
<totfact> 0.45198621E+01</totfact>
</mgrwt>
</event>
<event>
12    1  0.2502641E-008  0.1715406E+04  0.7818608E-02  0.8752626E-01
         -2   -1    0    0    0  501 -0.00000000000E+00  0.00000000000E+00  0.14114366759E+04  0.14114366759E+04  0.00000000000E+00 0.  1.
          2   -1    0    0  501    0  0.00000000000E+00 -0.00000000000E+00 -0.52120983661E+03  0.52120983661E+03  0.00000000000E+00 0. -1.
         23    2    1    2    0    0 -0.99323158599E+01  0.57906831665E+03  0.90203122624E+02  0.59314893159E+03  0.90941109932E+02 0.  0.
        254    2    1    2    0    0  0.99323158599E+01 -0.57906831665E+03  0.80002371668E+03  0.13394975809E+04  0.90487405523E+03 0.  0.
        -24    2    4    4    0    0  0.33964947179E+03 -0.63563711257E+03  0.50442689748E+03  0.88584672221E+03  0.10431499313E+03 0.  0.
         24    2    4    4    0    0 -0.32971715593E+03  0.56568795918E+02  0.29559681920E+03  0.45365085872E+03  0.80673356884E+02 0.  0.
         13    1    3    3    0    0 -0.30635212580E+02  0.74584784719E+02  0.22574062149E+02  0.83731682434E+02  0.00000000000E+00 0.  1.
        -13    1    3    3    0    0  0.20702896720E+02  0.50448353193E+03  0.67629060476E+02  0.50941724916E+03  0.00000000000E+00 0. -1.
          2    1    6    6  502    0 -0.83599396803E+02  0.32067763946E+02  0.40292452658E+02  0.98186976588E+02  0.00000000000E+00 0. -1.
          1    1    5    5  503    0  0.41392037714E+02 -0.17001319801E+03  0.13153926348E+03  0.21890720893E+03  0.00000000000E+00 0. -1.
         -2    1    5    5    0  503  0.29825743407E+03 -0.46562391455E+03  0.37288763399E+03  0.66693951328E+03  0.00000000000E+00 0.  1.
         -1    1    6    6    0  502 -0.24611775913E+03  0.24501031972E+02  0.25530436655E+03  0.35546388213E+03  0.00000000000E+00 0.  1.
<mgrwt>
<rscale>  0 0.17154063E+04</rscale>
<asrwt>0</asrwt>
<pdfrwt beam="1">  1        2 0.80186129E-01 0.17154063E+04</pdfrwt>
<pdfrwt beam="2">  1       -2 0.21714410E+00 0.17154063E+04</pdfrwt>
<totfact> 0.57409179E+00</totfact>
</mgrwt>
</event>
<event>
11    1  0.2502641E-008  0.2591105E+04  0.7818608E-02  0.8371229E-01
          2   -1    0    0  501    0  0.00000000000E+00  0.00000000000E+00  0.20253735434E+04  0.20253735434E+04  0.00000000000E+00 0.  1.
         -2   -1    0    0    0  501 -0.00000000000E+00 -0.00000000000E+00 -0.82871418171E+03  0.82871418171E+03  0.00000000000E+00 0. -1.
         23    2    1    2    0    0 -0.17721120552E+03  0.64772314980E+03  0.15436692654E+04  0.16858691455E+04  0.91054293590E+02 0.  0.
        254    2    1    2    0    0  0.17721120552E+03 -0.64772314980E+03 -0.34700990373E+03  0.11682185797E+04  0.89071302139E+03 0.  0.
         24    2    4    4    0    0 -0.16575763656E+03 -0.52793044897E+03 -0.16005042012E+02  0.55902266333E+03  0.77871841647E+02 0.  0.
         13    1    3    3    0    0 -0.27709458061E+02  0.11973602496E+03  0.20387586256E+03  0.23805439940E+03  0.00000000000E+00 0.  1.
        -13    1    3    3    0    0 -0.14950174745E+03  0.52798712484E+03  0.13397934029E+04  0.14478147461E+04  0.00000000000E+00 0. -1.
          2    1    5    5  502    0 -0.13774087190E+03 -0.36632511698E+03  0.16936519361E+02  0.39173139370E+03  0.00000000000E+00 0. -1.
          1    1    4    4  503    0  0.37956001396E+03 -0.12083253308E+03 -0.37833165783E+03  0.54936431315E+03  0.00000000000E+00 0. -1.
         -2    1    4    4    0  503 -0.36591171888E+02  0.10398322450E+01  0.47326796109E+02  0.59831603198E+02  0.00000000000E+00 0.  1.
         -1    1    5    5    0  502 -0.28016764662E+02 -0.16160533199E+03 -0.32941561373E+02  0.16729126963E+03  0.00000000000E+00 0.  1.
<mgrwt>
<rscale>  0 0.25911046E+04</rscale>
<asrwt>0</asrwt>
<pdfrwt beam="1">  1        2 0.31159593E+00 0.25911046E+04</pdfrwt>
<pdfrwt beam="2">  1       -2 0.12749449E+00 0.25911046E+04</pdfrwt>
<totfact> 0.26118168E+00</totfact>
</mgrwt>
</event>
<event>
12    1  0.2502641E-008  0.3015935E+04  0.7818608E-02  0.8239195E-01
          2   -1    0    0  501    0  0.00000000000E+00  0.00000000000E+00  0.15792759350E+04  0.15792759350E+04  0.00000000000E+00 0. -1.
         -2   -1    0    0    0  501 -0.00000000000E+00 -0.00000000000E+00 -0.14398784535E+04  0.14398784535E+04  0.00000000000E+00 0.  1.
         23    2    1    2    0    0 -0.58372770462E+03 -0.10168304643E+04  0.78430563873E+03  0.14134796155E+04  0.90039225260E+02 0.  0.
        254    2    1    2    0    0  0.58372770462E+03  0.10168304643E+04 -0.64490815720E+03  0.16056747730E+04  0.88746984123E+03 0.  0.
        -24    2    4    4    0    0  0.32374812621E+03 -0.27786295426E+02  0.17509289058E+02  0.33915110094E+03  0.95561323911E+02 0.  0.
         24    2    4    4    0    0  0.25997957840E+03  0.10446167597E+04 -0.66241744626E+03  0.12665236720E+04  0.80447391654E+02 0.  0.
         11    1    3    3    0    0 -0.43417659207E+03 -0.77667761113E+03  0.54927006581E+03  0.10456744378E+04  0.00000000000E+00 0. -1.
        -11    1    3    3    0    0 -0.14955111255E+03 -0.24015285319E+03  0.23503557291E+03  0.36780517763E+03  0.00000000000E+00 0.  1.
          4    1    6    6  502    0  0.32391084532E+02  0.27365128559E+03 -0.17524815928E+03  0.32656718419E+03  0.00000000000E+00 0. -1.
          3    1    5    5  503    0  0.18396152750E+03 -0.19620360488E+02 -0.37395765382E+02  0.18874651100E+03  0.00000000000E+00 0. -1.
         -4    1    5    5    0  503  0.13978659871E+03 -0.81659349379E+01  0.54905054440E+02  0.15040458994E+03  0.00000000000E+00 0.  1.
         -1    1    6    6    0  502  0.22758849387E+03  0.77096547416E+03 -0.48716928698E+03  0.93995648786E+03  0.00000000000E+00 0.  1.
<mgrwt>
<rscale>  0 0.30159346E+04</rscale>
<asrwt>0</asrwt>
<pdfrwt beam="1">  1        2 0.24296553E+00 0.30159346E+04</pdfrwt>
<pdfrwt beam="2">  1       -2 0.22151976E+00 0.30159346E+04</pdfrwt>
<totfact> 0.94667252E-01</totfact>
</mgrwt>
</event>
<event>
11    1  0.2502641E-008  0.1306916E+04  0.7818608E-02  0.9024099E-01
          2   -1    0    0  501    0  0.00000000000E+00  0.00000000000E+00  0.11330702238E+04  0.11330702238E+04  0.00000000000E+00 0.  1.
         -2   -1    0    0    0  501 -0.00000000000E+00 -0.00000000000E+00 -0.37685859571E+03  0.37685859571E+03  0.00000000000E+00 0. -1.
         23    2    1    2    0    0 -0.15927561495E+03 -0.28875320210E+03  0.16822323155E+03  0.38048117172E+03  0.87862012046E+02 0.  0.
        254    2    1    2    0    0  0.15927561495E+03  0.28875320210E+03  0.58798839655E+03  0.11294476478E+04  0.90618679167E+03 0.  0.
         24    2    4    4    0    0 -0.30938356649E+03  0.74978966774E+02  0.34920610538E+03  0.47901488294E+03  0.78551367712E+02 0.  0.
         13    1    3    3    0    0 -0.63635441001E+01 -0.72704870094E+02  0.60172201090E+02  0.94589569260E+02  0.00000000000E+00 0.  1.
        -13    1    3    3    0    0 -0.15291207085E+03 -0.21604833201E+03  0.10805103046E+03  0.28589160246E+03  0.00000000000E+00 0. -1.
          4    1    5    5  502    0 -0.29998747218E+03  0.55216618949E+02  0.33425413585E+03  0.45251208361E+03  0.00000000000E+00 0. -1.
          3    1    4    4  503    0  0.25613395126E+03  0.24893292467E+03  0.24798842012E+03  0.43482232979E+03  0.00000000000E+00 0. -1.
         -4    1    4    4    0  503  0.21252523018E+03 -0.35158689343E+02 -0.92061289480E+01  0.21561043507E+03  0.00000000000E+00 0.  1.
         -3    1    5    5    0  502 -0.93960943125E+01  0.19762347825E+02  0.14951969524E+02  0.26502799334E+02  0.00000000000E+00 0.  1.
<mgrwt>
<rscale>  0 0.13069158E+04</rscale>
<asrwt>0</asrwt>
<pdfrwt beam="1">  1        2 0.17431849E+00 0.13069158E+04</pdfrwt>
<pdfrwt beam="2">  1       -2 0.57978246E-01 0.13069158E+04</pdfrwt>
<totfact> 0.56708828E+01</totfact>
</mgrwt>
</event>
<event>
12    1  0.2502641E-008  0.2080605E+04  0.7818608E-02  0.8569836E-01
         -1   -1    0    0    0  501 -0.00000000000E+00  0.00000000000E+00  0.16330514828E+04  0.16330514828E+04  0.00000000000E+00 0.  1.
          1   -1    0    0  501    0  0.00000000000E+00 -0.00000000000E+00 -0.66270351811E+03  0.66270351811E+03  0.00000000000E+00 0. -1.
         23    2    1    2    0    0 -0.14680922377E+03 -0.51418127177E+03 -0.31863769322E+03  0.62924172340E+03  0.92086038623E+02 0.  0.
        254    2    1    2    0    0  0.14680922377E+03  0.51418127177E+03  0.12889856579E+04  0.16665132775E+04  0.91095946639E+03 0.  0.
        -24    2    4    4    0    0 -0.33651321133E+03  0.24015944756E+03  0.25302695265E+03  0.48838029524E+03  0.59791072572E+02 0.  0.
         24    2    4    4    0    0  0.48332243510E+03  0.27402182421E+03  0.10359587053E+04  0.11781329823E+04  0.78091923364E+02 0.  0.
         13    1    3    3    0    0 -0.13696500386E+03 -0.46029145520E+03 -0.24996804425E+03  0.54139787510E+03  0.00000000000E+00 0. -1.
        -13    1    3    3    0    0 -0.98442199130E+01 -0.53889816567E+02 -0.68669648975E+02  0.87843848309E+02  0.00000000000E+00 0.  1.
          2    1    6    6  502    0  0.28976886279E+03  0.19790622177E+03  0.59932180471E+03  0.69449225486E+03  0.00000000000E+00 0. -1.
          3    1    5    5  503    0 -0.37191639353E+02  0.69778098774E+01  0.29712162706E+02  0.48111542078E+02  0.00000000000E+00 0. -1.
         -4    1    5    5    0  503 -0.29932157198E+03  0.23318163768E+03  0.22331478995E+03  0.44026875316E+03  0.00000000000E+00 0.  1.
         -1    1    6    6    0  502  0.19355357232E+03  0.76115602437E+02  0.43663690056E+03  0.48364072742E+03  0.00000000000E+00 0.  1.
<mgrwt>
<rscale>  0 0.20806047E+04</rscale>
<asrwt>0</asrwt>
<pdfrwt beam="1">  1        1 0.10195439E+00 0.20806047E+04</pdfrwt>
<pdfrwt beam="2">  1       -1 0.25123869E+00 0.20806047E+04</pdfrwt>
<totfact> 0.18653864E+00</totfact>
</mgrwt>
</event>
<event>
11    1  0.2502641E-008  0.2446469E+04  0.7818608E-02  0.8422308E-01
          1   -1    0    0  501    0  0.00000000000E+00  0.00000000000E+00  0.27832163647E+04  0.27832163647E+04  0.00000000000E+00 0. -1.
         -1   -1    0    0    0  501 -0.00000000000E+00 -0.00000000000E+00 -0.53761637021E+03  0.53761637021E+03  0.00000000000E+00 0.  1.
         23    2    1    2    0    0  0.59087534573E+03  0.66277957415E+03  0.19987543312E+03  0.91488867982E+03  0.93062718615E+02 0.  0.
        254    2    1    2    0    0 -0.59087534573E+03 -0.66277957415E+03  0.20457245613E+04  0.24059440551E+04  0.90286620110E+03 0.  0.
         24    2    4    4    0    0 -0.38529168584E+00  0.39717188180E+02 -0.39391393359E+02  0.92726830798E+02  0.73952550953E+02 0.  0.
         13    1    3    3    0    0  0.97718134646E+01  0.39233829982E+02  0.10031315177E+02  0.41658240933E+02  0.00000000000E+00 0. -1.
        -13    1    3    3    0    0  0.58110353227E+03  0.62354574417E+03  0.18984411794E+03  0.87323043889E+03  0.00000000000E+00 0.  1.
          2    1    5    5  502    0  0.22716194958E+02 -0.17827018334E+01  0.93872754236E+01  0.24643954210E+02  0.00000000000E+00 0. -1.
          3    1    4    4  503    0 -0.41141438774E+03 -0.37824265203E+03  0.80064680409E+03  0.97640391599E+03  0.00000000000E+00 0. -1.
         -4    1    4    4    0  503 -0.17907566631E+03 -0.32425411030E+03  0.12844691506E+04  0.13368133083E+04  0.00000000000E+00 0.  1.
         -1    1    5    5    0  502 -0.23101486644E+02  0.41499890014E+02 -0.48778668783E+02  0.68082876589E+02  0.00000000000E+00 0.  1.
<mgrwt>
<rscale>  0 0.24464690E+04</rscale>
<asrwt>0</asrwt>
<pdfrwt beam="1">  1        1 0.42818712E+00 0.24464690E+04</pdfrwt>
<pdfrwt beam="2">  1       -1 0.82710213E-01 0.24464690E+04</pdfrwt>
<totfact> 0.11103727E+00</totfact>
</mgrwt>
</event>
<event>
12    1  0.2502641E-008  0.6137619E+04  0.7818608E-02  0.7673569E-01
         -2   -1    0    0    0  501 -0.00000000000E+00  0.00000000000E+00  0.34868517291E+04  0.34868517291E+04  0.00000000000E+00 0.  1.
          2   -1    0    0  501    0  0.00000000000E+00 -0.00000000000E+00 -0.27008867158E+04  0.27008867158E+04  0.00000000000E+00 0. -1.
         23    2    1    2    0    0 -0.16158524730E+04  0.21305459257E+04 -0.99910706316E+03  0.28560452614E+04  0.92598356448E+02 0.  0.
        254    2    1    2    0    0  0.16158524730E+04 -0.21305459257E+04  0.17850720765E+04  0.33316931835E+04  0.87378028986E+03 0.  0.
        -24    2    4    4    0    0  0.15983861004E+04 -0.15725600684E+04  0.15085425549E+04  0.27033381830E+04  0.67478859629E+02 0.  0.
         24    2    4    4    0    0  0.17466372527E+02 -0.55798585724E+03  0.27652952155E+03  0.62835500054E+03  0.81903231741E+02 0.  0.
         11    1    3    3    0    0 -0.18562808263E+03  0.19857387996E+03 -0.10308673934E+03  0.29071678089E+03  0.00000000000E+00 0.  1.
        -11    1    3    3    0    0 -0.14302243903E+04  0.19319720457E+04 -0.89602032382E+03  0.25653284805E+04  0.00000000000E+00 0. -1.
          2    1    6    6  502    0  0.42587773440E+02 -0.46529098926E+03  0.24287264717E+03  0.52658954213E+03  0.00000000000E+00 0. -1.
          3    1    5    5  503    0  0.87297571572E+03 -0.81169239134E+03  0.79957058159E+03  0.14353550966E+04  0.00000000000E+00 0. -1.
         -4    1    5    5    0  503  0.72541038471E+03 -0.76086767710E+03  0.70897197333E+03  0.12679830864E+04  0.00000000000E+00 0.  1.
         -1    1    6    6    0  502 -0.25121400913E+02 -0.92694867975E+02  0.33656874374E+02  0.10176545841E+03  0.00000000000E+00 0.  1.
<mgrwt>
<rscale>  0 0.61376189E+04</rscale>
<asrwt>0</asrwt>
<pdfrwt beam="1">  1        2 0.41552103E+00 0.61376189E+04</pdfrwt>
<pdfrwt beam="2">  1       -2 0.53643873E+00 0.61376189E+04</pdfrwt>
<totfact> 0.18116736E-03</totfact>
</mgrwt>
</event>
<event>
12    1  0.2502641E-008  0.1488333E+04  0.7818608E-02  0.8892249E-01
          2   -1    0    0  501    0  0.00000000000E+00  0.00000000000E+00  0.24736083278E+04  0.24736083278E+04  0.00000000000E+00 0.  1.
         -2   -1    0    0    0  501 -0.00000000000E+00 -0.00000000000E+00 -0.22387690041E+03  0.22387690041E+03  0.00000000000E+00 0. -1.
         23    2    1    2    0    0  0.83076502196E+02 -0.73117936368E+01 -0.11558509486E+03  0.16862799804E+03  0.90112818323E+02 0.  0.
        254    2    1    2    0    0 -0.83076502196E+02  0.73117936368E+01  0.23653165223E+04  0.25288572302E+04  0.89075331748E+03 0.  0.
        -24    2    4    4    0    0 -0.62515262746E+02  0.15849921069E+03  0.23472269970E+04  0.23556589056E+04  0.10307350006E+03 0.  0.
         24    2    4    4    0    0 -0.20561239449E+02 -0.15118741705E+03  0.18089525254E+02  0.17319832453E+03  0.79937657298E+02 0.  0.
         11    1    3    3    0    0  0.61540998283E+02  0.35256397763E+02 -0.47003679629E+02  0.85086156051E+02  0.00000000000E+00 0.  1.
        -11    1    3    3    0    0  0.21535503912E+02 -0.42568191400E+02 -0.68581415230E+02  0.83541841989E+02  0.00000000000E+00 0. -1.
          2    1    6    6  502    0 -0.19639862442E+02 -0.75776059872E+02  0.48270841924E+02  0.91966350512E+02  0.00000000000E+00 0. -1.
          3    1    5    5  503    0  0.91820042596E+01  0.49036974005E+02  0.28883460802E+03  0.29311152282E+03  0.00000000000E+00 0. -1.
         -4    1    5    5    0  503 -0.71697267006E+02  0.10946223668E+03  0.20583923890E+04  0.20625473828E+04  0.00000000000E+00 0.  1.
         -1    1    6    6    0  502 -0.92137700710E+00 -0.75411357178E+02 -0.30181316670E+02  0.81231974019E+02  0.00000000000E+00 0.  1.
<mgrwt>
<rscale>  0 0.14883330E+04</rscale>
<asrwt>0</asrwt>
<pdfrwt beam="1">  1        2 0.38055511E+00 0.14883330E+04</pdfrwt>
<pdfrwt beam="2">  1       -2 0.34442602E-01 0.14883330E+04</pdfrwt>
<totfact> 0.27620674E+01</totfact>
</mgrwt>
</event>
<event>
12    1  0.2502641E-008  0.1514777E+04  0.7818608E-02  0.8874685E-01
          2   -1    0    0  501    0  0.00000000000E+00  0.00000000000E+00  0.26067802471E+04  0.26067802471E+04  0.00000000000E+00 0. -1.
         -2   -1    0    0    0  501 -0.00000000000E+00 -0.00000000000E+00 -0.22005585919E+03  0.22005585919E+03  0.00000000000E+00 0.  1.
         23    2    1    2    0    0  0.18935316857E+03  0.29522040670E+03  0.15915698964E+03  0.39575028932E+03  0.90981499049E+02 0.  0.
        254    2    1    2    0    0 -0.18935316857E+03 -0.29522040670E+03  0.22275673983E+04  0.24310858170E+04  0.90835677167E+03 0.  0.
        -24    2    4    4    0    0 -0.24269953685E+01  0.39170997450E+02 -0.45916357551E+02  0.12403386808E+03  0.10833204140E+03 0.  0.
         24    2    4    4    0    0 -0.18692617321E+03 -0.33439140415E+03  0.22734837558E+04  0.23070519489E+04  0.83673780008E+02 0.  0.
         11    1    3    3    0    0  0.46190105580E+02  0.55600043707E+02 -0.40703802437E+01  0.72397919231E+02  0.00000000000E+00 0. -1.
        -11    1    3    3    0    0  0.14316306299E+03  0.23962036299E+03  0.16322736988E+03  0.32335237009E+03  0.00000000000E+00 0.  1.
          4    1    6    6  502    0 -0.15051788077E+03 -0.29517282870E+03  0.17711080901E+04  0.18018342038E+04  0.00000000000E+00 0. -1.
          3    1    5    5  503    0  0.21273579699E+02  0.71760883483E+02 -0.27668216176E+02  0.79797993570E+02  0.00000000000E+00 0. -1.
         -4    1    5    5    0  503 -0.23700575067E+02 -0.32589886033E+02 -0.18248141376E+02  0.44235874512E+02  0.00000000000E+00 0.  1.
         -3    1    6    6    0  502 -0.36408292437E+02 -0.39218575449E+02  0.50237566570E+03  0.50521774504E+03  0.00000000000E+00 0.  1.
<mgrwt>
<rscale>  0 0.15147769E+04</rscale>
<asrwt>0</asrwt>
<pdfrwt beam="1">  1        2 0.40104309E+00 0.15147769E+04</pdfrwt>
<pdfrwt beam="2">  1       -2 0.33854749E-01 0.15147769E+04</pdfrwt>
<totfact> 0.23839955E+01</totfact>
</mgrwt>
</event>
<event>
12    1  0.3276889E-008  0.1673221E+04  0.7818608E-02  0.8776786E-01
          2   -1    0    0  501    0  0.00000000000E+00  0.00000000000E+00  0.18372579019E+04  0.18372579019E+04  0.00000000000E+00 0. -1.
         -2   -1    0    0    0  501 -0.00000000000E+00 -0.00000000000E+00 -0.38095754906E+03  0.38095754906E+03  0.00000000000E+00 0.  1.
         23    2    1    2    0    0 -0.26926960952E+03  0.45978138427E+03  0.79230819961E+03  0.95860598630E+03  0.85253210300E+02 0.  0.
        254    2    1    2    0    0  0.26926960952E+03 -0.45978138427E+03  0.66399215321E+03  0.12596094646E+04  0.92834550678E+03 0.  0.
        -24    2    4    4    0    0 -0.22120949823E+03 -0.31992720256E+03  0.62494887846E+03  0.74177280951E+03  0.91535475088E+02 0.  0.
         24    2    4    4    0    0  0.49047910776E+03 -0.13985418171E+03  0.39043274751E+02  0.51783665513E+03  0.80631735727E+02 0.  0.
         11    1    3    3    0    0 -0.17987189473E+03  0.30109690328E+03  0.59011592952E+03  0.68647655018E+03  0.00000000000E+00 0. -1.
        -11    1    3    3    0    0 -0.89397714790E+02  0.15868448099E+03  0.20219227010E+03  0.27212943612E+03  0.00000000000E+00 0.  1.
          4    1    6    6  502    0  0.44575369966E+03 -0.10588686551E+03  0.49101883994E+02  0.46078127573E+03  0.00000000000E+00 0. -1.
          3    1    5    5  503    0 -0.22153231833E+03 -0.27911137821E+03  0.53269827475E+03  0.64089560884E+03  0.00000000000E+00 0. -1.
         -4    1    5    5    0  503  0.32282010326E+00 -0.40815824346E+02  0.92250603710E+02  0.10087720067E+03  0.00000000000E+00 0.  1.
         -3    1    6    6    0  502  0.44725408093E+02 -0.33967316195E+02 -0.10058609243E+02  0.57055379400E+02  0.00000000000E+00 0.  1.
<mgrwt>
<rscale>  0 0.16732212E+04</rscale>
<asrwt>0</asrwt>
<pdfrwt beam="1">  1        2 0.28265506E+00 0.16732212E+04</pdfrwt>
<pdfrwt beam="2">  1       -2 0.58608854E-01 0.16732212E+04</pdfrwt>
<totfact> 0.21349595E+01</totfact>
</mgrwt>
</event>
<event>
12    1  0.2502641E-008  0.3384217E+04  0.7818608E-02  0.8141791E-01
          2   -1    0    0  501    0  0.00000000000E+00  0.00000000000E+00  0.21448846887E+04  0.21448846887E+04  0.00000000000E+00 0. -1.
         -2   -1    0    0    0  501 -0.00000000000E+00 -0.00000000000E+00 -0.13349117038E+04  0.13349117038E+04  0.00000000000E+00 0.  1.
         23    2    1    2    0    0 -0.15744939978E+04 -0.32191306233E+01  0.25655215810E+03  0.15978608302E+04  0.91096161989E+02 0.  0.
        254    2    1    2    0    0  0.15744939978E+04  0.32191306233E+01  0.55342082680E+03  0.18819355623E+04  0.86969255330E+03 0.  0.
        -24    2    4    4    0    0  0.63217336547E+03 -0.29242741144E+03  0.54614512267E+03  0.89122394248E+03  0.10415692804E+03 0.  0.
         24    2    4    4    0    0  0.94232063236E+03  0.29564654207E+03  0.72757041348E+01  0.99071161986E+03  0.77984138516E+02 0.  0.
         13    1    3    3    0    0 -0.23500413786E+02 -0.77993288647E+01 -0.41398367898E+01  0.25104526036E+02  0.00000000000E+00 0. -1.
        -13    1    3    3    0    0 -0.15509935840E+04  0.45801982414E+01  0.26069199489E+03  0.15727563041E+04  0.00000000000E+00 0.  1.
          4    1    6    6  502    0  0.60041502203E+02  0.28914112604E+02  0.17640304842E+02  0.68936117162E+02  0.00000000000E+00 0. -1.
          1    1    5    5  503    0  0.15657006136E+03 -0.25171486110E+02  0.11546496205E+03  0.19616305791E+03  0.00000000000E+00 0. -1.
         -2    1    5    5    0  503  0.47560330411E+03 -0.26725592533E+03  0.43068016062E+03  0.69506088457E+03  0.00000000000E+00 0.  1.
         -3    1    6    6    0  502  0.88227913015E+03  0.26673242946E+03 -0.10364600708E+02  0.92177550270E+03  0.00000000000E+00 0.  1.
<mgrwt>
<rscale>  0 0.33842173E+04</rscale>
<asrwt>0</asrwt>
<pdfrwt beam="1">  1        2 0.32998226E+00 0.33842173E+04</pdfrwt>
<pdfrwt beam="2">  1       -2 0.20537103E+00 0.33842173E+04</pdfrwt>
<totfact> 0.56433317E-01</totfact>
</mgrwt>
</event>
<event>
11    1  0.2502641E-008  0.1181930E+04  0.7818608E-02  0.9128822E-01
          2   -1    0    0  501    0  0.00000000000E+00  0.00000000000E+00  0.16235223085E+04  0.16235223085E+04  0.00000000000E+00 0. -1.
         -2   -1    0    0    0  501 -0.00000000000E+00 -0.00000000000E+00 -0.21511235113E+03  0.21511235113E+03  0.00000000000E+00 0.  1.
         23    2    1    2    0    0 -0.20830359218E+03 -0.10952977984E+03  0.34317815543E+03  0.42565818411E+03  0.89590647640E+02 0.  0.
        254    2    1    2    0    0  0.20830359218E+03  0.10952977984E+03  0.10652318020E+04  0.14129764755E+04  0.89799586265E+03 0.  0.
         24    2    4    4    0    0 -0.14471780907E+03  0.41098625660E+03  0.51730324945E+03  0.68111631031E+03  0.80397940894E+02 0.  0.
         13    1    3    3    0    0 -0.19937560713E+02 -0.50669761096E+02  0.71943681391E+02  0.90226516661E+02  0.00000000000E+00 0. -1.
        -13    1    3    3    0    0 -0.18836603146E+03 -0.58860018745E+02  0.27123447404E+03  0.33543166745E+03  0.00000000000E+00 0.  1.
          2    1    5    5  502    0 -0.10439136457E+03  0.25819275057E+03  0.27178226066E+03  0.38913577406E+03  0.00000000000E+00 0. -1.
          3    1    4    4  503    0  0.11494701179E+02 -0.56651270681E+01 -0.82900167637E+01  0.15262575072E+02  0.00000000000E+00 0. -1.
         -4    1    4    4    0  503  0.34152670007E+03 -0.29579134969E+03  0.55621856927E+03  0.71659759015E+03  0.00000000000E+00 0.  1.
         -3    1    5    5    0  502 -0.40326444501E+02  0.15279350603E+03  0.24552098880E+03  0.29198053625E+03  0.00000000000E+00 0.  1.
<mgrwt>
<rscale>  0 0.11819301E+04</rscale>
<asrwt>0</asrwt>
<pdfrwt beam="1">  1        2 0.24977265E+00 0.11819301E+04</pdfrwt>
<pdfrwt beam="2">  1       -2 0.33094209E-01 0.11819301E+04</pdfrwt>
<totfact> 0.91069875E+01</totfact>
</mgrwt>
</event>
<event>
12    1  0.2502641E-008  0.2017905E+04  0.7818608E-02  0.8598295E-01
          2   -1    0    0  501    0  0.00000000000E+00  0.00000000000E+00  0.25115281205E+04  0.25115281205E+04  0.00000000000E+00 0.  1.
         -2   -1    0    0    0  501 -0.00000000000E+00 -0.00000000000E+00 -0.40532501407E+03  0.40532501407E+03  0.00000000000E+00 0. -1.
         23    2    1    2    0    0  0.10758587187E+03 -0.48143728280E+03 -0.75553536779E+02  0.50804619378E+03  0.95110572461E+02 0.  0.
        254    2    1    2    0    0 -0.10758587187E+03  0.48143728280E+03  0.21817566432E+04  0.24088069408E+04  0.89383010170E+03 0.  0.
        -24    2    4    4    0    0 -0.47993441257E+03  0.28963190802E+03  0.97480206044E+03  0.11287891788E+04  0.98500105145E+02 0.  0.
         24    2    4    4    0    0  0.37234854070E+03  0.19180537478E+03  0.12069545828E+04  0.12800177620E+04  0.79204598872E+02 0.  0.
         13    1    3    3    0    0  0.11324186271E+03 -0.42018726360E+03 -0.91075240635E+02  0.44460741718E+03  0.00000000000E+00 0. -1.
        -13    1    3    3    0    0 -0.56559908389E+01 -0.61250019204E+02  0.15521703856E+02  0.63438776592E+02  0.00000000000E+00 0.  1.
          2    1    6    6  502    0  0.71658229782E+02  0.74863989592E+02  0.28995657662E+03  0.30791936470E+03  0.00000000000E+00 0. -1.
          3    1    5    5  503    0 -0.10929362025E+03  0.35239430910E+02  0.26211701089E+03  0.28616820284E+03  0.00000000000E+00 0. -1.
         -4    1    5    5    0  503 -0.37064079232E+03  0.25439247711E+03  0.71268504954E+03  0.84262097600E+03  0.00000000000E+00 0.  1.
         -1    1    6    6    0  502  0.30069031092E+03  0.11694138518E+03  0.91699800616E+03  0.97209839726E+03  0.00000000000E+00 0.  1.
<mgrwt>
<rscale>  0 0.20179050E+04</rscale>
<asrwt>0</asrwt>
<pdfrwt beam="1">  1        2 0.38638893E+00 0.20179050E+04</pdfrwt>
<pdfrwt beam="2">  1       -2 0.62357696E-01 0.20179050E+04</pdfrwt>
<totfact> 0.75924782E+00</totfact>
</mgrwt>
</event>
<event>
11    1  0.2502641E-008  0.1932742E+04  0.7818608E-02  0.8638728E-01
         -1   -1    0    0    0  501 -0.00000000000E+00  0.00000000000E+00  0.79120248924E+03  0.79120248924E+03  0.00000000000E+00 0.  1.
          1   -1    0    0  501    0  0.00000000000E+00 -0.00000000000E+00 -0.11803209301E+04  0.11803209301E+04  0.00000000000E+00 0. -1.
         23    2    1    2    0    0  0.75185213162E+03 -0.13617075303E+02 -0.23256947754E+03  0.79245570417E+03  0.91817365614E+02 0.  0.
        254    2    1    2    0    0 -0.75185213162E+03  0.13617075303E+02 -0.15654896328E+03  0.11790677151E+04  0.89455354583E+03 0.  0.
         24    2    4    4    0    0 -0.42055792443E+03  0.74181558941E+02 -0.50471883479E+03  0.66569696272E+03  0.77714043133E+02 0.  0.
         11    1    3    3    0    0  0.30330031215E+03  0.59340089925E+01 -0.13967272832E+03  0.33396820634E+03  0.00000000000E+00 0. -1.
        -11    1    3    3    0    0  0.44855181947E+03 -0.19551084296E+02 -0.92896749219E+02  0.45848749783E+03  0.00000000000E+00 0.  1.
          2    1    5    5  502    0 -0.15936674561E+03 -0.67158532385E+01 -0.16320550909E+03  0.22820802021E+03  0.00000000000E+00 0. -1.
          1    1    4    4  503    0 -0.66870831580E+01  0.23277284427E+02 -0.67501436961E+01  0.25141867301E+02  0.00000000000E+00 0. -1.
         -2    1    4    4    0  503 -0.32460712404E+03 -0.83841768065E+02  0.35492001521E+03  0.48822888510E+03  0.00000000000E+00 0.  1.
         -1    1    5    5    0  502 -0.26119117882E+03  0.80897412179E+02 -0.34151332570E+03  0.43748894251E+03  0.00000000000E+00 0.  1.
<mgrwt>
<rscale>  0 0.19327419E+04</rscale>
<asrwt>0</asrwt>
<pdfrwt beam="1">  1        1 0.18158784E+00 0.19327419E+04</pdfrwt>
<pdfrwt beam="2">  1       -1 0.12172346E+00 0.19327419E+04</pdfrwt>
<totfact> 0.61615475E+00</totfact>
</mgrwt>
</event>
<event>
12    1  0.2502641E-008  0.1088634E+04  0.7818608E-02  0.9216341E-01
         -1   -1    0    0    0  501 -0.00000000000E+00  0.00000000000E+00  0.15844425075E+03  0.15844425075E+03  0.00000000000E+00 0.  1.
          1   -1    0    0  501    0  0.00000000000E+00 -0.00000000000E+00 -0.18699387922E+04  0.18699387922E+04  0.00000000000E+00 0. -1.
         23    2    1    2    0    0 -0.12268027194E+03 -0.22236301571E+02 -0.39751522582E+03  0.42933696038E+03  0.10376400418E+03 0.  0.
        254    2    1    2    0    0  0.12268027194E+03  0.22236301571E+02 -0.13139793156E+04  0.15990460826E+04  0.90269697575E+03 0.  0.
        -24    2    4    4    0    0 -0.26416084512E+03 -0.23966899685E+01 -0.11297200237E+04  0.11618862381E+04  0.62654624645E+02 0.  0.
         24    2    4    4    0    0  0.38684111706E+03  0.24632991540E+02 -0.18425929193E+03  0.43715984452E+03  0.83092772720E+02 0.  0.
         11    1    3    3    0    0 -0.55497090344E+02 -0.26380069725E+02 -0.62578166725E+02  0.87703261434E+02  0.00000000000E+00 0.  1.
        -11    1    3    3    0    0 -0.67183181595E+02  0.41437681542E+01 -0.33493705910E+03  0.34163369895E+03  0.00000000000E+00 0. -1.
          4    1    6    6  502    0  0.36944168324E+03  0.37061765334E+02 -0.18678027847E+03  0.41562916667E+03  0.00000000000E+00 0. -1.
          1    1    5    5  503    0 -0.17962282532E+03 -0.30756314172E+02 -0.74398340837E+03  0.76597755983E+03  0.00000000000E+00 0. -1.
         -2    1    5    5    0  503 -0.84538019805E+02  0.28359624203E+02 -0.38573661534E+03  0.39590867822E+03  0.00000000000E+00 0.  1.
         -1    1    6    6    0  502  0.17399433820E+02 -0.12428773795E+02  0.25209865441E+01  0.21530677844E+02  0.00000000000E+00 0.  1.
<mgrwt>
<rscale>  0 0.10886341E+04</rscale>
<asrwt>0</asrwt>
<pdfrwt beam="1">  1        1 0.28768290E+00 0.10886341E+04</pdfrwt>
<pdfrwt beam="2">  1       -1 0.24376038E-01 0.10886341E+04</pdfrwt>
<totfact> 0.53371711E+01</totfact>
</mgrwt>
</event>
<event>
12    1  0.4525044E-008  0.1747093E+04  0.7818608E-02  0.8734952E-01
          2   -1    0    0  501    0  0.00000000000E+00  0.00000000000E+00  0.89343144422E+03  0.89343144422E+03  0.00000000000E+00 0. -1.
         -2   -1    0    0    0  501 -0.00000000000E+00 -0.00000000000E+00 -0.85410421365E+03  0.85410421365E+03  0.00000000000E+00 0.  1.
         23    2    1    2    0    0 -0.40265300637E+03  0.16540310340E+02 -0.48716647465E+03  0.63811216739E+03  0.86330404501E+02 0.  0.
        254    2    1    2    0    0  0.40265300637E+03 -0.16540310340E+02  0.52649370523E+03  0.11094234905E+04  0.88950651160E+03 0.  0.
        -24    2    4    4    0    0  0.25573921263E+03 -0.32042533861E+03  0.62364379692E+03  0.74953451126E+03  0.69249228396E+02 0.  0.
         24    2    4    4    0    0  0.14691379374E+03  0.30388502827E+03 -0.97150091697E+02  0.35988897922E+03  0.78435730700E+02 0.  0.
         11    1    3    3    0    0 -0.38930312465E+03  0.32226840434E+02 -0.47109933373E+03  0.61198862273E+03  0.00000000000E+00 0.  1.
        -11    1    3    3    0    0 -0.13349881721E+02 -0.15686530094E+02 -0.16067140921E+02  0.26123544663E+02  0.00000000000E+00 0. -1.
          2    1    6    6  502    0  0.12733769247E+03  0.30074123078E+03 -0.93696966183E+02  0.33976359029E+03  0.00000000000E+00 0. -1.
          3    1    5    5  503    0  0.23705438848E+03 -0.28698339680E+03  0.52375815934E+03  0.64255494910E+03  0.00000000000E+00 0. -1.
         -4    1    5    5    0  503  0.18684824153E+02 -0.33441941812E+02  0.99885637584E+02  0.10697956217E+03  0.00000000000E+00 0.  1.
         -1    1    6    6    0  502  0.19576101273E+02  0.31437974849E+01 -0.34531255132E+01  0.20125388928E+02  0.00000000000E+00 0.  1.
<mgrwt>
<rscale>  0 0.17470931E+04</rscale>
<asrwt>0</asrwt>
<pdfrwt beam="1">  1        2 0.13745099E+00 0.17470931E+04</pdfrwt>
<pdfrwt beam="2">  1       -2 0.13140065E+00 0.17470931E+04</pdfrwt>
<totfact> 0.11868808E+01</totfact>
</mgrwt>
</event>
<event>
12    1  0.2502641E-008  0.1976656E+04  0.7818608E-02  0.8617613E-01
         -2   -1    0    0    0  501 -0.00000000000E+00  0.00000000000E+00  0.52502220991E+03  0.52502220991E+03  0.00000000000E+00 0.  1.
          2   -1    0    0  501    0  0.00000000000E+00 -0.00000000000E+00 -0.18604787837E+04  0.18604787837E+04  0.00000000000E+00 0. -1.
         23    2    1    2    0    0  0.29600562933E+03 -0.30938302737E+03 -0.13194115006E+04  0.13901709443E+04  0.91604346621E+02 0.  0.
        254    2    1    2    0    0 -0.29600562933E+03  0.30938302737E+03 -0.16045073150E+02  0.99533004925E+03  0.89838036062E+03 0.  0.
        -24    2    4    4    0    0  0.22659727294E+03 -0.15625702371E+03 -0.62800089600E+02  0.28970234166E+03  0.64969330839E+02 0.  0.
         24    2    4    4    0    0 -0.52260290227E+03  0.46564005108E+03  0.46755016450E+02  0.70562770759E+03  0.76091914986E+02 0.  0.
         11    1    3    3    0    0  0.72580418862E+02 -0.13772118359E+03 -0.49962944756E+03  0.52332076825E+03  0.00000000000E+00 0. -1.
        -11    1    3    3    0    0  0.22342521047E+03 -0.17166184378E+03 -0.81978205306E+03  0.86685017610E+03  0.00000000000E+00 0.  1.
          2    1    6    6  502    0 -0.47949003482E+03  0.41261166854E+03  0.61977553084E+02  0.63561017895E+03  0.00000000000E+00 0. -1.
          3    1    5    5  503    0  0.18837065456E+03 -0.15217922486E+03 -0.41308054271E+02  0.24565906319E+03  0.00000000000E+00 0. -1.
         -4    1    5    5    0  503  0.38226618374E+02 -0.40777988439E+01 -0.21492035329E+02  0.44043278469E+02  0.00000000000E+00 0.  1.
         -1    1    6    6    0  502 -0.43112867451E+02  0.53028382538E+02 -0.15222536634E+02  0.70017528634E+02  0.00000000000E+00 0.  1.
<mgrwt>
<rscale>  0 0.19766565E+04</rscale>
<asrwt>0</asrwt>
<pdfrwt beam="1">  1        2 0.28622750E+00 0.19766565E+04</pdfrwt>
<pdfrwt beam="2">  1       -2 0.80772648E-01 0.19766565E+04</pdfrwt>
<totfact> 0.10055432E+01</totfact>
</mgrwt>
</event>
<event>
12    1  0.2502641E-008  0.1443748E+04  0.7818608E-02  0.8922746E-01
         -1   -1    0    0    0  501 -0.00000000000E+00  0.00000000000E+00  0.45519293529E+03  0.45519293529E+03  0.00000000000E+00 0.  1.
          1   -1    0    0  501    0  0.00000000000E+00 -0.00000000000E+00 -0.11447939692E+04  0.11447939692E+04  0.00000000000E+00 0. -1.
         23    2    1    2    0    0 -0.55910350142E+02 -0.15005065949E+03 -0.65908245434E+03  0.68440398253E+03  0.91531207898E+02 0.  0.
        254    2    1    2    0    0  0.55910350142E+02  0.15005065949E+03 -0.30518579555E+02  0.91558292195E+03  0.90095479110E+03 0.  0.
        -24    2    4    4    0    0 -0.21283042668E+03  0.44783253158E+03  0.94316162325E+01  0.50457973465E+03  0.93064420535E+02 0.  0.
         24    2    4    4    0    0  0.26874077683E+03 -0.29778187208E+03 -0.39950195788E+02  0.41100318731E+03  0.80199459862E+02 0.  0.
         13    1    3    3    0    0 -0.54119926934E+01 -0.39972189264E+02 -0.35198208423E+03  0.35428583545E+03  0.00000000000E+00 0.  1.
        -13    1    3    3    0    0 -0.50498357448E+02 -0.11007847023E+03 -0.30710037011E+03  0.33011814709E+03  0.00000000000E+00 0. -1.
          4    1    6    6  502    0  0.30856617587E+01  0.35905422274E+01 -0.62610424492E+01  0.78494556834E+01  0.00000000000E+00 0. -1.
          3    1    5    5  503    0 -0.15167536293E+03  0.32135484030E+03  0.48787383550E+02  0.35868448238E+03  0.00000000000E+00 0. -1.
         -4    1    5    5    0  503 -0.61155063753E+02  0.12647769128E+03 -0.39355767318E+02  0.14589525227E+03  0.00000000000E+00 0.  1.
         -3    1    6    6    0  502  0.26565511507E+03 -0.30137241431E+03 -0.33689153338E+02  0.40315373162E+03  0.00000000000E+00 0.  1.
<mgrwt>
<rscale>  0 0.14437481E+04</rscale>
<asrwt>0</asrwt>
<pdfrwt beam="1">  1        1 0.17612215E+00 0.14437481E+04</pdfrwt>
<pdfrwt beam="2">  1       -1 0.70029683E-01 0.14437481E+04</pdfrwt>
<totfact> 0.23511349E+01</totfact>
</mgrwt>
</event>
<event>
11    1  0.2502641E-008  0.1416491E+04  0.7818608E-02  0.8941967E-01
          2   -1    0    0  501    0  0.00000000000E+00  0.00000000000E+00  0.33112434530E+04  0.33112434530E+04  0.00000000000E+00 0. -1.
         -2   -1    0    0    0  501 -0.00000000000E+00 -0.00000000000E+00 -0.15148743188E+03  0.15148743188E+03  0.00000000000E+00 0.  1.
         23    2    1    2    0    0 -0.12513144574E+03 -0.38296258648E+03  0.10397564164E+04  0.11190293261E+04  0.93888262718E+02 0.  0.
        254    2    1    2    0    0  0.12513144574E+03  0.38296258648E+03  0.21199996047E+04  0.23437015588E+04  0.91445090151E+03 0.  0.
         24    2    4    4    0    0  0.11561757272E+03 -0.10683010359E+03  0.16048114861E+04  0.16145587535E+04  0.81240190923E+02 0.  0.
         11    1    3    3    0    0 -0.45285779183E+02 -0.17471192668E+03  0.59033420243E+03  0.61730829387E+03  0.00000000000E+00 0. -1.
        -11    1    3    3    0    0 -0.79845666557E+02 -0.20825065980E+03  0.44942221394E+03  0.50172103220E+03  0.00000000000E+00 0.  1.
          4    1    5    5  502    0 -0.13369906445E+01 -0.42840151209E+02  0.32247031717E+03  0.32530627346E+03  0.00000000000E+00 0. -1.
          1    1    4    4  503    0 -0.76176043371E+01  0.15747891460E+03  0.28110402705E+03  0.32229972148E+03  0.00000000000E+00 0. -1.
         -2    1    4    4    0  503  0.17131477357E+02  0.33231377547E+03  0.23408409161E+03  0.40684308379E+03  0.00000000000E+00 0.  1.
         -3    1    5    5    0  502  0.11695456336E+03 -0.63989952378E+02  0.12823411689E+04  0.12892524801E+04  0.00000000000E+00 0.  1.
<mgrwt>
<rscale>  0 0.14164911E+04</rscale>
<asrwt>0</asrwt>
<pdfrwt beam="1">  1        2 0.50942201E+00 0.14164911E+04</pdfrwt>
<pdfrwt beam="2">  1       -2 0.23305761E-01 0.14164911E+04</pdfrwt>
<totfact> 0.17565341E+01</totfact>
</mgrwt>
</event>
<event>
11    1  0.2502641E-008  0.3363932E+04  0.7818608E-02  0.8146816E-01
          2   -1    0    0  501    0  0.00000000000E+00  0.00000000000E+00  0.24366996030E+04  0.24366996030E+04  0.00000000000E+00 0. -1.
         -2   -1    0    0    0  501 -0.00000000000E+00 -0.00000000000E+00 -0.11610005353E+04  0.11610005353E+04  0.00000000000E+00 0.  1.
         23    2    1    2    0    0 -0.81627434652E+03 -0.63182669903E+03 -0.62829962235E+03  0.12119609761E+04  0.92629400345E+02 0.  0.
        254    2    1    2    0    0  0.81627434652E+03  0.63182669903E+03  0.19039986901E+04  0.23857391622E+04  0.10005156429E+04 0.  0.
         24    2    4    4    0    0  0.79953379202E+03  0.13680668529E+03  0.14993133581E+04  0.17065987565E+04  0.81045766538E+02 0.  0.
         11    1    3    3    0    0 -0.13232719762E+03 -0.61846642248E+02 -0.89078508869E+02  0.17108616288E+03  0.00000000000E+00 0. -1.
        -11    1    3    3    0    0 -0.68394714890E+03 -0.56998005678E+03 -0.53922111348E+03  0.10408748132E+04  0.00000000000E+00 0.  1.
          4    1    5    5  502    0  0.28115459771E+01 -0.48111816137E+01  0.15532431696E+02  0.16501778501E+02  0.00000000000E+00 0. -1.
          1    1    4    4  503    0 -0.84139544680E+02  0.37560009893E+03  0.32452839361E+03  0.50346159293E+03  0.00000000000E+00 0. -1.
         -2    1    4    4    0  503  0.10088009918E+03  0.11941991481E+03  0.80156938393E+02  0.17567881272E+03  0.00000000000E+00 0.  1.
         -3    1    5    5    0  502  0.79672224604E+03  0.14161786691E+03  0.14837809264E+04  0.16900969780E+04  0.00000000000E+00 0.  1.
<mgrwt>
<rscale>  0 0.33639320E+04</rscale>
<asrwt>0</asrwt>
<pdfrwt beam="1">  1        2 0.37487686E+00 0.33639320E+04</pdfrwt>
<pdfrwt beam="2">  1       -2 0.17861547E+00 0.33639320E+04</pdfrwt>
<totfact> 0.58324491E-01</totfact>
</mgrwt>
</event>
<event>
11    1  0.2502641E-008  0.2268344E+04  0.7818608E-02  0.8490508E-01
          2   -1    0    0  501    0  0.00000000000E+00  0.00000000000E+00  0.66667789849E+03  0.66667789849E+03  0.00000000000E+00 0. -1.
         -2   -1    0    0    0  501 -0.00000000000E+00 -0.00000000000E+00 -0.19294874828E+04  0.19294874828E+04  0.00000000000E+00 0.  1.
         23    2    1    2    0    0  0.39773154661E+03  0.28568675433E+03 -0.14108967803E+04  0.14960326755E+04  0.87616988219E+02 0.  0.
        254    2    1    2    0    0 -0.39773154661E+03 -0.28568675433E+03  0.14808719602E+03  0.11001327058E+04  0.97393780498E+03 0.  0.
         24    2    4    4    0    0 -0.25167257279E+02 -0.85310710580E+02 -0.38862390126E+03  0.40606123450E+03  0.77109541260E+02 0.  0.
         11    1    3    3    0    0  0.23127338666E+03  0.21776071848E+03 -0.89242966644E+03  0.94727916658E+03  0.00000000000E+00 0.  1.
        -11    1    3    3    0    0  0.16645815995E+03  0.67926035857E+02 -0.51846711390E+03  0.54875350893E+03  0.00000000000E+00 0. -1.
          2    1    5    5  502    0  0.70534281227E-01 -0.33361245664E+02 -0.37387119307E+02  0.50107627936E+02  0.00000000000E+00 0. -1.
          3    1    4    4  503    0 -0.96052081673E+02 -0.37889321791E+02  0.22149606492E+03  0.24438107511E+03  0.00000000000E+00 0. -1.
         -4    1    4    4    0  503 -0.27651220766E+03 -0.16248672196E+03  0.31521503236E+03  0.44969039619E+03  0.00000000000E+00 0.  1.
         -1    1    5    5    0  502 -0.25237791560E+02 -0.51949464916E+02 -0.35123678195E+03  0.35595360656E+03  0.00000000000E+00 0.  1.
<mgrwt>
<rscale>  0 0.22683445E+04</rscale>
<asrwt>0</asrwt>
<pdfrwt beam="1">  1        2 0.10256583E+00 0.22683445E+04</pdfrwt>
<pdfrwt beam="2">  1       -2 0.29684422E+00 0.22683445E+04</pdfrwt>
<totfact> 0.13164088E+00</totfact>
</mgrwt>
</event>
<event>
11    1  0.2502641E-008  0.3791368E+04  0.7818608E-02  0.8048010E-01
          2   -1    0    0  501    0  0.00000000000E+00  0.00000000000E+00  0.27700665911E+04  0.27700665911E+04  0.00000000000E+00 0. -1.
         -2   -1    0    0    0  501 -0.00000000000E+00 -0.00000000000E+00 -0.12973036855E+04  0.12973036855E+04  0.00000000000E+00 0.  1.
         23    2    1    2    0    0 -0.13525215988E+04 -0.79213064698E+02 -0.55682501039E+03  0.14677508143E+04  0.92999869942E+02 0.  0.
        254    2    1    2    0    0  0.13525215988E+04  0.79213064698E+02  0.20295879160E+04  0.25996194623E+04  0.89621696899E+03 0.  0.
         24    2    4    4    0    0  0.33197630183E+03  0.38744723819E+03  0.62312650614E+03  0.80918580062E+03  0.78558194476E+02 0.  0.
         11    1    3    3    0    0 -0.14926634105E+03 -0.30871689225E+02 -0.83891551547E+02  0.17398647702E+03  0.00000000000E+00 0. -1.
        -11    1    3    3    0    0 -0.12032552577E+04 -0.48341375473E+02 -0.47293345884E+03  0.12937643372E+04  0.00000000000E+00 0.  1.
          2    1    5    5  502    0  0.25230237847E+03  0.33310972769E+03  0.47756947149E+03  0.63457953084E+03  0.00000000000E+00 0. -1.
          3    1    4    4  503    0  0.94950900852E+03 -0.36309725160E+03  0.12641871546E+04  0.16222133440E+04  0.00000000000E+00 0. -1.
         -4    1    4    4    0  503  0.71036288419E+02  0.54863078105E+02  0.14227425519E+03  0.16822031774E+03  0.00000000000E+00 0.  1.
         -1    1    5    5    0  502  0.79673923364E+02  0.54337510495E+02  0.14555703465E+03  0.17460626978E+03  0.00000000000E+00 0.  1.
<mgrwt>
<rscale>  0 0.37913679E+04</rscale>
<asrwt>0</asrwt>
<pdfrwt beam="1">  1        2 0.42616409E+00 0.37913679E+04</pdfrwt>
<pdfrwt beam="2">  1       -2 0.19958518E+00 0.37913679E+04</pdfrwt>
<totfact> 0.25880890E-01</totfact>
</mgrwt>
</event>
<event>
12    1  0.2502641E-008  0.2624345E+04  0.7818608E-02  0.8359979E-01
         -2   -1    0    0    0  501 -0.00000000000E+00  0.00000000000E+00  0.32987166173E+04  0.32987166173E+04  0.00000000000E+00 0.  1.
          2   -1    0    0  501    0  0.00000000000E+00 -0.00000000000E+00 -0.52195947697E+03  0.52195947697E+03  0.00000000000E+00 0. -1.
         23    2    1    2    0    0 -0.11123753842E+04 -0.23820189380E+03  0.15314570000E+04  0.19098480646E+04  0.89665766002E+02 0.  0.
        254    2    1    2    0    0  0.11123753842E+04  0.23820189380E+03  0.12453001403E+04  0.19108280296E+04  0.89798228357E+03 0.  0.
        -24    2    4    4    0    0  0.11865205659E+04  0.39283261877E+03  0.10055549503E+04  0.16055390200E+04  0.66830135317E+02 0.  0.
         24    2    4    4    0    0 -0.74145181665E+02 -0.15463072498E+03  0.23974519006E+03  0.30528900964E+03  0.79469831877E+02 0.  0.
         13    1    3    3    0    0 -0.12622233220E+01 -0.44919341619E+01  0.21844586419E+01  0.51519452431E+01  0.00000000000E+00 0. -1.
        -13    1    3    3    0    0 -0.11111131609E+04 -0.23370995964E+03  0.15292725413E+04  0.19046961194E+04  0.00000000000E+00 0.  1.
          4    1    6    6  502    0 -0.47833548782E+02 -0.23731111243E+02  0.49106185486E+02  0.72543996877E+02  0.00000000000E+00 0. -1.
          3    1    5    5  503    0  0.43825209643E+00  0.55874876418E+00  0.48151371027E+01  0.48672179321E+01  0.00000000000E+00 0. -1.
         -4    1    5    5    0  503  0.11860823138E+04  0.39227387001E+03  0.10007398132E+04  0.16006718020E+04  0.00000000000E+00 0.  1.
         -3    1    6    6    0  502 -0.26311632883E+02 -0.13089961373E+03  0.19063900457E+03  0.23274501276E+03  0.00000000000E+00 0.  1.
<mgrwt>
<rscale>  0 0.26243448E+04</rscale>
<asrwt>0</asrwt>
<pdfrwt beam="1">  1        2 0.80301460E-01 0.26243448E+04</pdfrwt>
<pdfrwt beam="2">  1       -2 0.50749485E+00 0.26243448E+04</pdfrwt>
<totfact> 0.76332413E-02</totfact>
</mgrwt>
</event>
<event>
11    1  0.2502641E-008  0.1405788E+04  0.7818608E-02  0.8949640E-01
         -2   -1    0    0    0  501 -0.00000000000E+00  0.00000000000E+00  0.45131410227E+03  0.45131410227E+03  0.00000000000E+00 0.  1.
          2   -1    0    0  501    0  0.00000000000E+00 -0.00000000000E+00 -0.10947138162E+04  0.10947138162E+04  0.00000000000E+00 0. -1.
         23    2    1    2    0    0 -0.24122224824E+03 -0.15147306946E+03  0.13277846222E+03  0.32644373314E+03  0.88335310362E+02 0.  0.
        254    2    1    2    0    0  0.24122224824E+03  0.15147306946E+03 -0.77617817613E+03  0.12195841853E+04  0.89654936290E+03 0.  0.
         24    2    4    4    0    0 -0.19562951537E+02  0.47815138663E+03 -0.31377973569E+03  0.57868129488E+03  0.86039879718E+02 0.  0.
         13    1    3    3    0    0 -0.21460228808E+01 -0.29603180019E+02  0.16815208546E+02  0.34113119468E+02  0.00000000000E+00 0. -1.
        -13    1    3    3    0    0 -0.23907622536E+03 -0.12186988944E+03  0.11596325368E+03  0.29233061367E+03  0.00000000000E+00 0.  1.
          4    1    5    5  502    0 -0.49270222204E+02  0.18097983994E+03 -0.11974884865E+03  0.22253324249E+03  0.00000000000E+00 0. -1.
          1    1    4    4  503    0  0.29610785887E+01  0.14973934212E+02 -0.10811654259E+02  0.18705041032E+02  0.00000000000E+00 0. -1.
         -2    1    4    4    0  503  0.25782412119E+03 -0.34165225138E+03 -0.45158678618E+03  0.62219784940E+03  0.00000000000E+00 0.  1.
         -3    1    5    5    0  502  0.29707270667E+02  0.29717154669E+03 -0.19403088705E+03  0.35614805239E+03  0.00000000000E+00 0.  1.
<mgrwt>
<rscale>  0 0.14057877E+04</rscale>
<asrwt>0</asrwt>
<pdfrwt beam="1">  1        2 0.16841751E+00 0.14057877E+04</pdfrwt>
<pdfrwt beam="2">  1       -2 0.69432939E-01 0.14057877E+04</pdfrwt>
<totfact> 0.40417212E+01</totfact>
</mgrwt>
</event>
<event>
12    1  0.2502641E-008  0.1960866E+04  0.7818608E-02  0.8625139E-01
         -1   -1    0    0    0  501 -0.00000000000E+00  0.00000000000E+00  0.11842790133E+04  0.11842790133E+04  0.00000000000E+00 0.  1.
          1   -1    0    0  501    0  0.00000000000E+00 -0.00000000000E+00 -0.81167444266E+03  0.81167444266E+03  0.00000000000E+00 0. -1.
         23    2    1    2    0    0 -0.37228339634E+03 -0.56190379242E+03  0.64799692566E+03  0.93951602870E+03  0.91975830372E+02 0.  0.
        254    2    1    2    0    0  0.37228339634E+03  0.56190379242E+03 -0.27539235505E+03  0.10564374272E+04  0.76543339966E+03 0.  0.
        -24    2    4    4    0    0  0.17368965911E+03 -0.14082181953E+03  0.57988207714E+02  0.24960258274E+03  0.94551227056E+02 0.  0.
         24    2    4    4    0    0  0.19859373723E+03  0.70272561196E+03 -0.33338056276E+03  0.80683484449E+03  0.81099374216E+02 0.  0.
         13    1    3    3    0    0 -0.15121578881E+03 -0.29533112961E+03  0.35469165895E+03  0.48568803138E+03  0.00000000000E+00 0.  1.
        -13    1    3    3    0    0 -0.22106760754E+03 -0.26657266282E+03  0.29330526672E+03  0.45382799731E+03  0.00000000000E+00 0. -1.
          2    1    6    6  502    0  0.20499104193E+03  0.68950784502E+03 -0.32134526045E+03  0.78784844483E+03  0.00000000000E+00 0. -1.
          1    1    5    5  503    0  0.14780560994E+03 -0.65669684722E+02  0.25503260104E+02  0.16373583021E+03  0.00000000000E+00 0. -1.
         -2    1    5    5    0  503  0.25884049179E+02 -0.75152134811E+02  0.32484947611E+02  0.85866752528E+02  0.00000000000E+00 0.  1.
         -1    1    6    6    0  502 -0.63973047041E+01  0.13217766938E+02 -0.12035302315E+02  0.18986399662E+02  0.00000000000E+00 0.  1.
<mgrwt>
<rscale>  0 0.19608661E+04</rscale>
<asrwt>0</asrwt>
<pdfrwt beam="1">  1        1 0.12487299E+00 0.19608661E+04</pdfrwt>
<pdfrwt beam="2">  1       -1 0.18219677E+00 0.19608661E+04</pdfrwt>
<totfact> 0.40343947E+00</totfact>
</mgrwt>
</event>
<event>
11    1  0.2502641E-008  0.2063935E+04  0.7818608E-02  0.8577299E-01
         -1   -1    0    0    0  501 -0.00000000000E+00  0.00000000000E+00  0.85167235125E+03  0.85167235125E+03  0.00000000000E+00 0.  1.
          1   -1    0    0  501    0  0.00000000000E+00 -0.00000000000E+00 -0.12504297882E+04  0.12504297882E+04  0.00000000000E+00 0. -1.
         23    2    1    2    0    0 -0.68018228181E+03 -0.81872049131E+02 -0.64508784057E+03  0.94556488702E+03  0.92755941058E+02 0.  0.
        254    2    1    2    0    0  0.68018228181E+03  0.81872049131E+02  0.24633040361E+03  0.11565372524E+04  0.89863717909E+03 0.  0.
         24    2    4    4    0    0  0.84981811236E+03  0.57880220346E+02  0.33255375284E+03  0.91837302892E+03  0.85299927971E+02 0.  0.
         11    1    3    3    0    0 -0.40081553967E+03 -0.69726677837E+02 -0.32637243960E+03  0.52156866832E+03  0.00000000000E+00 0.  1.
        -11    1    3    3    0    0 -0.27936674213E+03 -0.12145371294E+02 -0.31871540097E+03  0.42399621870E+03  0.00000000000E+00 0. -1.
          2    1    5    5  502    0  0.60156532387E+03  0.92449005107E+01  0.25819253202E+03  0.65469816760E+03  0.00000000000E+00 0. -1.
          3    1    4    4  503    0 -0.77039679602E+02 -0.52289115646E+02 -0.49178298975E+01  0.93238666330E+02  0.00000000000E+00 0. -1.
         -4    1    4    4    0  503 -0.92596150953E+02  0.76280944430E+02 -0.81305519340E+02  0.14492555720E+03  0.00000000000E+00 0.  1.
         -1    1    5    5    0  502  0.24825278849E+03  0.48635319836E+02  0.74361220822E+02  0.26367486132E+03  0.00000000000E+00 0.  1.
<mgrwt>
<rscale>  0 0.20639346E+04</rscale>
<asrwt>0</asrwt>
<pdfrwt beam="1">  1        1 0.19237381E+00 0.20639346E+04</pdfrwt>
<pdfrwt beam="2">  1       -1 0.13102652E+00 0.20639346E+04</pdfrwt>
<totfact> 0.45040730E+00</totfact>
</mgrwt>
</event>
<event>
12    1  0.2502641E-008  0.2125953E+04  0.7818608E-02  0.8549896E-01
         -1   -1    0    0    0  501 -0.00000000000E+00  0.00000000000E+00  0.25917663980E+03  0.25917663980E+03  0.00000000000E+00 0.  1.
          1   -1    0    0  501    0  0.00000000000E+00 -0.00000000000E+00 -0.43596501845E+04  0.43596501845E+04  0.00000000000E+00 0. -1.
         23    2    1    2    0    0  0.36626821904E+01  0.11382952043E+03 -0.35608781013E+04  0.35638298615E+04  0.89776692407E+02 0.  0.
        254    2    1    2    0    0 -0.36626821904E+01 -0.11382952043E+03 -0.53959544340E+03  0.10549969628E+04  0.89938021660E+03 0.  0.
        -24    2    4    4    0    0  0.23800907694E+03  0.26579954285E+03 -0.45930248316E+03  0.59048493081E+03  0.10205863409E+03 0.  0.
         24    2    4    4    0    0 -0.24167175913E+03 -0.37962906328E+03 -0.80292960241E+02  0.46451203199E+03  0.82468197204E+02 0.  0.
         11    1    3    3    0    0  0.25973596590E+02  0.11604783305E+03 -0.26374174805E+04  0.26400970993E+04  0.00000000000E+00 0. -1.
        -11    1    3    3    0    0 -0.22310914400E+02 -0.22183126225E+01 -0.92346062079E+03  0.92373276220E+03  0.00000000000E+00 0.  1.
          4    1    6    6  502    0 -0.47735957711E+02 -0.26598897368E+02 -0.12448223152E+02  0.56046242153E+02  0.00000000000E+00 0. -1.
          3    1    5    5  503    0  0.41263546598E+02  0.38076651845E+02 -0.23488999107E+02  0.60862507117E+02  0.00000000000E+00 0. -1.
         -4    1    5    5    0  503  0.19674553034E+03  0.22772289101E+03 -0.43581348405E+03  0.52962242369E+03  0.00000000000E+00 0.  1.
         -1    1    6    6    0  502 -0.19393580142E+03 -0.35303016591E+03 -0.67844737088E+02  0.40846578984E+03  0.00000000000E+00 0.  1.
<mgrwt>
<rscale>  0 0.21259534E+04</rscale>
<asrwt>0</asrwt>
<pdfrwt beam="1">  1        1 0.67071537E+00 0.21259534E+04</pdfrwt>
<pdfrwt beam="2">  1       -1 0.39873332E-01 0.21259534E+04</pdfrwt>
<totfact> 0.25281352E-01</totfact>
</mgrwt>
</event>
<event>
11    1  0.2502641E-008  0.1172594E+04  0.7818608E-02  0.9137189E-01
          2   -1    0    0  501    0  0.00000000000E+00  0.00000000000E+00  0.17186962358E+04  0.17186962358E+04  0.00000000000E+00 0. -1.
         -2   -1    0    0    0  501 -0.00000000000E+00 -0.00000000000E+00 -0.20000271942E+03  0.20000271942E+03  0.00000000000E+00 0.  1.
         23    2    1    2    0    0  0.16825867599E+03 -0.80272646903E+02  0.11118321153E+03  0.23526724002E+03  0.90742976659E+02 0.  0.
        254    2    1    2    0    0 -0.16825867599E+03  0.80272646903E+02  0.14075103049E+04  0.16834317152E+04  0.90449013353E+03 0.  0.
         24    2    4    4    0    0 -0.29371947467E+03  0.10456911744E+03  0.72615760918E+02  0.32945767421E+03  0.77868351971E+02 0.  0.
         11    1    3    3    0    0  0.13661786986E+03 -0.26946465366E+02  0.10193981459E+03  0.17257543324E+03  0.00000000000E+00 0. -1.
        -11    1    3    3    0    0  0.31640806137E+02 -0.53326181537E+02  0.92433969399E+01  0.62691806780E+02  0.00000000000E+00 0.  1.
          2    1    5    5  502    0 -0.10994640374E+02 -0.19653561187E+01  0.19817858405E+02  0.22748456066E+02  0.00000000000E+00 0. -1.
          1    1    4    4  503    0 -0.13778774315E+02  0.49115685158E+02  0.14496276307E+03  0.15367630860E+03  0.00000000000E+00 0. -1.
         -2    1    4    4    0  503  0.13923957299E+03 -0.73412155694E+02  0.11899317809E+04  0.12002977324E+04  0.00000000000E+00 0.  1.
         -1    1    5    5    0  502 -0.28272483429E+03  0.10653447356E+03  0.52797902513E+02  0.30670921814E+03  0.00000000000E+00 0.  1.
<mgrwt>
<rscale>  0 0.11725936E+04</rscale>
<asrwt>0</asrwt>
<pdfrwt beam="1">  1        2 0.26441480E+00 0.11725936E+04</pdfrwt>
<pdfrwt beam="2">  1       -2 0.30769650E-01 0.11725936E+04</pdfrwt>
<totfact> 0.92551625E+01</totfact>
</mgrwt>
</event>
<event>
12    1  0.2502641E-008  0.1983494E+04  0.7818608E-02  0.8614377E-01
          1   -1    0    0  501    0  0.00000000000E+00  0.00000000000E+00  0.14158007258E+04  0.14158007258E+04  0.00000000000E+00 0. -1.
         -1   -1    0    0    0  501 -0.00000000000E+00 -0.00000000000E+00 -0.69470384384E+03  0.69470384384E+03  0.00000000000E+00 0.  1.
         23    2    1    2    0    0  0.41488133049E+03 -0.84088299801E+02  0.97638989077E+03  0.10683627270E+04  0.94150608310E+02 0.  0.
        254    2    1    2    0    0 -0.41488133049E+03  0.84088299801E+02 -0.25529300881E+03  0.10421418427E+04  0.91743541426E+03 0.  0.
        -24    2    4    4    0    0  0.22247639181E+03 -0.13653262482E+03  0.67892588508E+02  0.29060381736E+03  0.10818628627E+03 0.  0.
         24    2    4    4    0    0 -0.63735772229E+03  0.22062092462E+03 -0.32318559731E+03  0.75153802530E+03  0.73905443777E+02 0.  0.
         11    1    3    3    0    0  0.63631644407E+02 -0.94866152757E+01  0.24886689434E+03  0.25704807553E+03  0.00000000000E+00 0.  1.
        -11    1    3    3    0    0  0.35124968608E+03 -0.74601684525E+02  0.72752299643E+03  0.81131465144E+03  0.00000000000E+00 0. -1.
          4    1    6    6  502    0 -0.39540993811E+03  0.13773691850E+03 -0.23989557007E+03  0.48256643316E+03  0.00000000000E+00 0. -1.
          3    1    5    5  503    0  0.21334629402E+03 -0.15081825578E+03  0.50108317017E+02  0.26603313870E+03  0.00000000000E+00 0. -1.
         -4    1    5    5    0  503  0.91300977837E+01  0.14285630961E+02  0.17784271490E+02  0.24570678663E+02  0.00000000000E+00 0.  1.
         -3    1    6    6    0  502 -0.24194778418E+03  0.82884006125E+02 -0.83290027242E+02  0.26897159215E+03  0.00000000000E+00 0.  1.
<mgrwt>
<rscale>  0 0.19834941E+04</rscale>
<asrwt>0</asrwt>
<pdfrwt beam="1">  1        1 0.21781550E+00 0.19834941E+04</pdfrwt>
<pdfrwt beam="2">  1       -1 0.10687751E+00 0.19834941E+04</pdfrwt>
<totfact> 0.56823995E+00</totfact>
</mgrwt>
</event>
<event>
11    1  0.2502641E-008  0.1750904E+04  0.7818608E-02  0.8732853E-01
          1   -1    0    0  501    0  0.00000000000E+00  0.00000000000E+00  0.14631181991E+04  0.14631181991E+04  0.00000000000E+00 0. -1.
         -1   -1    0    0    0  501 -0.00000000000E+00 -0.00000000000E+00 -0.52382406728E+03  0.52382406728E+03  0.00000000000E+00 0.  1.
         23    2    1    2    0    0 -0.25155436103E+03 -0.80339987625E+02  0.99982521393E+03  0.10384346571E+04  0.94667674329E+02 0.  0.
        254    2    1    2    0    0  0.25155436103E+03  0.80339987625E+02 -0.60531082076E+02  0.94850760928E+03  0.90899315883E+03 0.  0.
         24    2    4    4    0    0  0.16593374739E+03  0.47463027818E+03 -0.26581927396E+02  0.50994536388E+03  0.80806966182E+02 0.  0.
         13    1    3    3    0    0 -0.10185844736E+03 -0.61091901994E+02  0.30291947769E+03  0.32537297637E+03  0.00000000000E+00 0.  1.
        -13    1    3    3    0    0 -0.14969591367E+03 -0.19248085631E+02  0.69690573624E+03  0.71306168076E+03  0.00000000000E+00 0. -1.
          4    1    5    5  502    0  0.39851947767E+02  0.39381027054E+02 -0.64609519147E-01  0.56027200600E+02  0.00000000000E+00 0. -1.
          3    1    4    4  503    0  0.45106635425E+02 -0.22573523355E+03 -0.10270422193E+03  0.25206975508E+03  0.00000000000E+00 0. -1.
         -4    1    4    4    0  503  0.40513978215E+02 -0.16855505701E+03  0.68755067244E+02  0.18649249032E+03  0.00000000000E+00 0.  1.
         -3    1    5    5    0  502  0.12608179962E+03  0.43524925113E+03 -0.26517317876E+02  0.45391816328E+03  0.00000000000E+00 0.  1.
<mgrwt>
<rscale>  0 0.17509044E+04</rscale>
<asrwt>0</asrwt>
<pdfrwt beam="1">  1        1 0.22509511E+00 0.17509044E+04</pdfrwt>
<pdfrwt beam="2">  1       -1 0.80588319E-01 0.17509044E+04</pdfrwt>
<totfact> 0.10097818E+01</totfact>
</mgrwt>
</event>
<event>
12    1  0.2502641E-008  0.1766559E+04  0.7818608E-02  0.8724288E-01
         -2   -1    0    0    0  501 -0.00000000000E+00  0.00000000000E+00  0.28311867566E+03  0.28311867566E+03  0.00000000000E+00 0. -1.
          2   -1    0    0  501    0  0.00000000000E+00 -0.00000000000E+00 -0.27556737710E+04  0.27556737710E+04  0.00000000000E+00 0.  1.
         23    2    1    2    0    0 -0.48693293833E+03  0.28557857188E+03 -0.31811005134E+03  0.65433146940E+03  0.91087100800E+02 0.  0.
        254    2    1    2    0    0  0.48693293833E+03 -0.28557857188E+03 -0.21544450440E+04  0.23844609772E+04  0.85168180521E+03 0.  0.
        -24    2    4    4    0    0  0.10978892972E+03  0.94216132769E+01  0.28821518309E+02  0.14786930190E+03  0.94298858117E+02 0.  0.
         24    2    4    4    0    0  0.37714400861E+03 -0.29500018515E+03 -0.21832665623E+04  0.22365916753E+04  0.80166874292E+02 0.  0.
         13    1    3    3    0    0 -0.22087071770E+03  0.79155459582E+02 -0.14308665175E+03  0.27481493887E+03  0.00000000000E+00 0.  1.
        -13    1    3    3    0    0 -0.26606222063E+03  0.20642311229E+03 -0.17502339960E+03  0.37951653053E+03  0.00000000000E+00 0. -1.
          2    1    6    6  502    0  0.32458209351E+03 -0.21409909334E+03 -0.17722659746E+04  0.18144196432E+04  0.00000000000E+00 0. -1.
          1    1    5    5  503    0  0.16308505177E+02  0.14331565847E+02  0.47670071421E+02  0.52381264112E+02  0.00000000000E+00 0. -1.
         -2    1    5    5    0  503  0.93480424540E+02 -0.49099525701E+01 -0.18848553112E+02  0.95488037789E+02  0.00000000000E+00 0.  1.
         -1    1    6    6    0  502  0.52561915099E+02 -0.80901091809E+02 -0.41100058770E+03  0.42217203207E+03  0.00000000000E+00 0.  1.
<mgrwt>
<rscale>  0 0.17665590E+04</rscale>
<asrwt>0</asrwt>
<pdfrwt beam="1">  1        2 0.42394979E+00 0.17665590E+04</pdfrwt>
<pdfrwt beam="2">  1       -2 0.43556722E-01 0.17665590E+04</pdfrwt>
<totfact> 0.11665528E+01</totfact>
</mgrwt>
</event>
<event>
11    1  0.2502641E-008  0.1490137E+04  0.7818608E-02  0.8891038E-01
          2   -1    0    0  501    0  0.00000000000E+00  0.00000000000E+00  0.10771081193E+04  0.10771081193E+04  0.00000000000E+00 0.  1.
         -2   -1    0    0    0  501 -0.00000000000E+00 -0.00000000000E+00 -0.51538638555E+03  0.51538638555E+03  0.00000000000E+00 0. -1.
         23    2    1    2    0    0 -0.42722383663E+03 -0.10776902029E+03  0.34098685258E+03  0.56446304641E+03  0.90620796774E+02 0.  0.
        254    2    1    2    0    0  0.42722383663E+03  0.10776902029E+03  0.22073488122E+03  0.10280314585E+04  0.90221417831E+03 0.  0.
         24    2    4    4    0    0 -0.12504953306E+03  0.35169023958E+03  0.81940651409E+02  0.39061629020E+03  0.80891318950E+02 0.  0.
         13    1    3    3    0    0 -0.15300501609E+03 -0.11552891983E+02  0.76221703338E+02  0.17132936795E+03  0.00000000000E+00 0. -1.
        -13    1    3    3    0    0 -0.27421882054E+03 -0.96216128306E+02  0.26476514925E+03  0.39313367846E+03  0.00000000000E+00 0.  1.
          2    1    5    5  502    0 -0.81325037926E+02  0.20501154984E+03  0.87948276102E+02  0.23744135409E+03  0.00000000000E+00 0. -1.
          1    1    4    4  503    0  0.51491575352E+03 -0.19184511238E+03  0.15571278150E+03  0.57112980196E+03  0.00000000000E+00 0. -1.
         -2    1    4    4    0  503  0.37357616171E+02 -0.52076106918E+02 -0.16918551694E+02  0.66285366328E+02  0.00000000000E+00 0.  1.
         -1    1    5    5    0  502 -0.43724495134E+02  0.14667868974E+03 -0.60076246925E+01  0.15317493611E+03  0.00000000000E+00 0.  1.
<mgrwt>
<rscale>  0 0.14901367E+04</rscale>
<asrwt>0</asrwt>
<pdfrwt beam="1">  1        2 0.16570894E+00 0.14901367E+04</pdfrwt>
<pdfrwt beam="2">  1       -2 0.79290213E-01 0.14901367E+04</pdfrwt>
<totfact> 0.30701888E+01</totfact>
</mgrwt>
</event>
<event>
11    1  0.2502641E-008  0.1618571E+04  0.7818608E-02  0.8809220E-01
          3   -1    0    0  501    0  0.00000000000E+00  0.00000000000E+00  0.52858370872E+03  0.52858370872E+03  0.00000000000E+00 0. -1.
         -3   -1    0    0    0  501 -0.00000000000E+00 -0.00000000000E+00 -0.12390522774E+04  0.12390522774E+04  0.00000000000E+00 0.  1.
         23    2    1    2    0    0  0.30335326078E+03  0.24232892010E+03 -0.67470191685E+03  0.78372842775E+03  0.90890403913E+02 0.  0.
        254    2    1    2    0    0 -0.30335326078E+03 -0.24232892010E+03 -0.35766651827E+02  0.98390755837E+03  0.90335393047E+03 0.  0.
         24    2    4    4    0    0 -0.48587620133E+03  0.12374492278E+02  0.64431873821E+02  0.49713298571E+03  0.82224862653E+02 0.  0.
         13    1    3    3    0    0  0.21760696649E+03  0.18833145008E+03 -0.41558279889E+03  0.50550033599E+03  0.00000000000E+00 0.  1.
        -13    1    3    3    0    0  0.85746294284E+02  0.53997470027E+02 -0.25911911796E+03  0.27822809176E+03  0.00000000000E+00 0. -1.
          4    1    5    5  502    0 -0.10394876334E+03  0.20306304041E+02  0.43657973132E+02  0.11455876222E+03  0.00000000000E+00 0. -1.
          3    1    4    4  503    0  0.40909040373E+02  0.29138530347E+02  0.99838748078E+02  0.11176036486E+03  0.00000000000E+00 0. -1.
         -2    1    4    4    0  503  0.14161390018E+03 -0.28384194273E+03 -0.20003727373E+03  0.37501420781E+03  0.00000000000E+00 0.  1.
         -3    1    5    5    0  502 -0.38192743799E+03 -0.79318117631E+01  0.20773900689E+02  0.38257422349E+03  0.00000000000E+00 0.  1.
<mgrwt>
<rscale>  0 0.16185708E+04</rscale>
<asrwt>0</asrwt>
<pdfrwt beam="1">  1        3 0.81320570E-01 0.16185708E+04</pdfrwt>
<pdfrwt beam="2">  1       -3 0.19062343E+00 0.16185708E+04</pdfrwt>
<totfact> 0.59149467E-01</totfact>
</mgrwt>
</event>
<event>
12    1  0.2502641E-008  0.3594625E+04  0.7818608E-02  0.8091724E-01
         -1   -1    0    0    0  501 -0.00000000000E+00  0.00000000000E+00  0.39356193737E+04  0.39356193737E+04  0.00000000000E+00 0.  1.
          1   -1    0    0  501    0  0.00000000000E+00 -0.00000000000E+00 -0.82079364395E+03  0.82079364395E+03  0.00000000000E+00 0. -1.
         23    2    1    2    0    0 -0.14964633854E+04  0.69752600415E+03  0.10440238595E+04  0.19556202760E+04  0.92301974462E+02 0.  0.
        254    2    1    2    0    0  0.14964633854E+04 -0.69752600415E+03  0.20708018703E+04  0.28007927416E+04  0.91119394500E+03 0.  0.
        -24    2    4    4    0    0  0.90543768754E+03  0.60082002001E+02  0.11601327486E+04  0.14744455755E+04  0.68223954399E+02 0.  0.
         24    2    4    4    0    0  0.59102569786E+03 -0.75760800615E+03  0.91066912169E+03  0.13263471661E+04  0.81223698996E+02 0.  0.
         13    1    3    3    0    0 -0.41484202169E+03  0.16000796686E+03  0.31389271657E+03  0.54426564280E+03  0.00000000000E+00 0. -1.
        -13    1    3    3    0    0 -0.10816213637E+04  0.53751803730E+03  0.73013114292E+03  0.14113546332E+04  0.00000000000E+00 0.  1.
          2    1    6    6  502    0  0.29661596770E+03 -0.31621212688E+03  0.39703486118E+03  0.58788419138E+03  0.00000000000E+00 0. -1.
          1    1    5    5  503    0  0.61116056914E+03  0.65055650456E+02  0.75073982982E+03  0.97023696642E+03  0.00000000000E+00 0. -1.
         -2    1    5    5    0  503  0.29427711839E+03 -0.49736484550E+01  0.40939291875E+03  0.50420860912E+03  0.00000000000E+00 0.  1.
         -1    1    6    6    0  502  0.29440973017E+03 -0.44139587927E+03  0.51363426051E+03  0.73846297471E+03  0.00000000000E+00 0.  1.
<mgrwt>
<rscale>  0 0.35946245E+04</rscale>
<asrwt>0</asrwt>
<pdfrwt beam="1">  1        1 0.12627595E+00 0.35946245E+04</pdfrwt>
<pdfrwt beam="2">  1       -1 0.60547989E+00 0.35946245E+04</pdfrwt>
<totfact> 0.71697053E-03</totfact>
</mgrwt>
</event>
<event>
11    1  0.2502641E-008  0.1723274E+04  0.7818608E-02  0.8748201E-01
          2   -1    0    0  501    0  0.00000000000E+00  0.00000000000E+00  0.26851702908E+04  0.26851702908E+04  0.00000000000E+00 0. -1.
         -2   -1    0    0    0  501 -0.00000000000E+00 -0.00000000000E+00 -0.27648837674E+03  0.27648837674E+03  0.00000000000E+00 0.  1.
         23    2    1    2    0    0 -0.26568776083E+03  0.93065680494E+02 -0.73997731402E+02  0.30492960739E+03  0.90858098538E+02 0.  0.
        254    2    1    2    0    0  0.26568776083E+03 -0.93065680494E+02  0.24826796455E+04  0.26567290601E+04  0.90291742142E+03 0.  0.
         24    2    4    4    0    0  0.12503185583E+03  0.21282728218E+03  0.19076997995E+04  0.19253100395E+04  0.81066678765E+02 0.  0.
         11    1    3    3    0    0 -0.25104299734E+03  0.10873521819E+03 -0.62636553364E+02  0.28065863964E+03  0.00000000000E+00 0.  1.
        -11    1    3    3    0    0 -0.14644763498E+02 -0.15669537693E+02 -0.11361178038E+02  0.24270967756E+02  0.00000000000E+00 0. -1.
          4    1    5    5  502    0  0.61582292331E+02  0.17360698516E+03  0.14315812640E+04  0.14433837603E+04  0.00000000000E+00 0. -1.
          1    1    4    4  503    0  0.22414689053E+03 -0.28919847988E+03  0.48503642037E+03  0.60756721306E+03  0.00000000000E+00 0. -1.
         -2    1    4    4    0  503 -0.83490985532E+02 -0.16694482799E+02  0.89943425587E+02  0.12385180753E+03  0.00000000000E+00 0.  1.
         -3    1    5    5    0  502  0.63449563504E+02  0.39220297019E+02  0.47611853546E+03  0.48192627924E+03  0.00000000000E+00 0.  1.
<mgrwt>
<rscale>  0 0.17232741E+04</rscale>
<asrwt>0</asrwt>
<pdfrwt beam="1">  1        2 0.41310310E+00 0.17232741E+04</pdfrwt>
<pdfrwt beam="2">  1       -2 0.42536675E-01 0.17232741E+04</pdfrwt>
<totfact> 0.13519107E+01</totfact>
</mgrwt>
</event>
<event>
12    1  0.2502641E-008  0.1719422E+04  0.7818608E-02  0.8750364E-01
          2   -1    0    0  501    0  0.00000000000E+00  0.00000000000E+00  0.18515136430E+04  0.18515136430E+04  0.00000000000E+00 0. -1.
         -2   -1    0    0    0  501 -0.00000000000E+00 -0.00000000000E+00 -0.39918846644E+03  0.39918846644E+03  0.00000000000E+00 0.  1.
         23    2    1    2    0    0  0.31174046030E+03 -0.51517426727E+03  0.33371907484E+03  0.69550196499E+03  0.98832798926E+02 0.  0.
        254    2    1    2    0    0 -0.31174046030E+03  0.51517426727E+03  0.11186061018E+04  0.15552001445E+04  0.89709600284E+03 0.  0.
        -24    2    4    4    0    0  0.16837880296E+03  0.52498057841E+03  0.78734428999E+03  0.96581492520E+03  0.94506136072E+02 0.  0.
         24    2    4    4    0    0 -0.48011926326E+03 -0.98063111351E+01  0.33126181177E+03  0.58938521931E+03  0.83844368384E+02 0.  0.
         11    1    3    3    0    0  0.24820137008E+02 -0.73221061059E+02  0.12300510884E+02  0.78285794061E+02  0.00000000000E+00 0. -1.
        -11    1    3    3    0    0  0.28692032329E+03 -0.44195320621E+03  0.32141856395E+03  0.61721617093E+03  0.00000000000E+00 0.  1.
          2    1    6    6  502    0 -0.32574041286E+03  0.32455021641E+02  0.22721280247E+03  0.39847936284E+03  0.00000000000E+00 0. -1.
          1    1    5    5  503    0  0.11361819355E+03  0.21238666634E+03  0.37049962924E+03  0.44191307427E+03  0.00000000000E+00 0. -1.
         -2    1    5    5    0  503  0.54760609414E+02  0.31259391207E+03  0.41684466075E+03  0.52390185093E+03  0.00000000000E+00 0.  1.
         -1    1    6    6    0  502 -0.15437885039E+03 -0.42261332776E+02  0.10404900930E+03  0.19090585647E+03  0.00000000000E+00 0.  1.
<mgrwt>
<rscale>  0 0.17194219E+04</rscale>
<asrwt>0</asrwt>
<pdfrwt beam="1">  1        2 0.28484825E+00 0.17194219E+04</pdfrwt>
<pdfrwt beam="2">  1       -2 0.61413611E-01 0.17194219E+04</pdfrwt>
<totfact> 0.18920138E+01</totfact>
</mgrwt>
</event>
<event>
12    1  0.2502641E-008  0.1900162E+04  0.7818608E-02  0.8654776E-01
         -2   -1    0    0    0  501 -0.00000000000E+00  0.00000000000E+00  0.29058076893E+03  0.29058076893E+03  0.00000000000E+00 0.  1.
          2   -1    0    0  501    0  0.00000000000E+00 -0.00000000000E+00 -0.31063770699E+04  0.31063770699E+04  0.00000000000E+00 0. -1.
         23    2    1    2    0    0 -0.43407606278E+03  0.59165767910E+03 -0.10361496719E+04  0.12730543106E+04  0.92629896605E+02 0.  0.
        254    2    1    2    0    0  0.43407606278E+03 -0.59165767910E+03 -0.17796466291E+04  0.21239035282E+04  0.89740917934E+03 0.  0.
        -24    2    4    4    0    0  0.12096558002E+03  0.20532110475E+02 -0.12358906124E+04  0.12436624779E+04  0.64934690714E+02 0.  0.
         24    2    4    4    0    0  0.31311048276E+03 -0.61218978958E+03 -0.54375601675E+03  0.88024105034E+03  0.79619018286E+02 0.  0.
         13    1    3    3    0    0 -0.11362894286E+03  0.15698884505E+03 -0.20705950266E+03  0.28360301791E+03  0.00000000000E+00 0.  1.
        -13    1    3    3    0    0 -0.32044711993E+03  0.43466883405E+03 -0.82909016920E+03  0.98945129271E+03  0.00000000000E+00 0. -1.
          4    1    6    6  502    0  0.29803337807E+03 -0.60683150671E+03 -0.53374535816E+03  0.86136663467E+03  0.00000000000E+00 0. -1.
          1    1    5    5  503    0  0.80394147511E+02 -0.18364974829E+02 -0.76298303118E+03  0.76742660699E+03  0.00000000000E+00 0. -1.
         -2    1    5    5    0  503  0.40571432508E+02  0.38897085304E+02 -0.47290758118E+03  0.47623587089E+03  0.00000000000E+00 0.  1.
         -3    1    6    6    0  502  0.15077104697E+02 -0.53582828744E+01 -0.10010658590E+02  0.18874415668E+02  0.00000000000E+00 0.  1.
<mgrwt>
<rscale>  0 0.19001615E+04</rscale>
<asrwt>0</asrwt>
<pdfrwt beam="1">  1        2 0.47790411E+00 0.19001615E+04</pdfrwt>
<pdfrwt beam="2">  1       -2 0.44704738E-01 0.19001615E+04</pdfrwt>
<totfact> 0.66500832E+00</totfact>
</mgrwt>
</event>
<event>
12    1  0.2502641E-008  0.1497465E+04  0.7818608E-02  0.8886141E-01
         -2   -1    0    0    0  501 -0.00000000000E+00  0.00000000000E+00  0.56480938639E+03  0.56480938639E+03  0.00000000000E+00 0.  1.
          2   -1    0    0  501    0  0.00000000000E+00 -0.00000000000E+00 -0.99254733328E+03  0.99254733328E+03  0.00000000000E+00 0. -1.
         23    2    1    2    0    0  0.22720494448E+03  0.39984150504E+03 -0.48535526767E+02  0.47137909221E+03  0.91363205203E+02 0.  0.
        254    2    1    2    0    0 -0.22720494448E+03 -0.39984150504E+03 -0.37920242012E+03  0.10859776275E+04  0.90777619266E+03 0.  0.
        -24    2    4    4    0    0 -0.33743112533E+03 -0.56407354148E+03 -0.17047888018E+02  0.66551680942E+03  0.10287501441E+03 0.  0.
         24    2    4    4    0    0  0.11022618086E+03  0.16423203645E+03 -0.36215453211E+03  0.42046081804E+03  0.80680986865E+02 0.  0.
         13    1    3    3    0    0  0.61400996430E+02  0.61160889962E+02 -0.36672759326E+02  0.94104346872E+02  0.00000000000E+00 0. -1.
        -13    1    3    3    0    0  0.16580394805E+03  0.33868061507E+03 -0.11862767441E+02  0.37727474533E+03  0.00000000000E+00 0.  1.
          4    1    6    6  502    0  0.84527060996E+02  0.58553429944E+02 -0.14719485654E+03  0.17955404198E+03  0.00000000000E+00 0. -1.
          1    1    5    5  503    0 -0.32271760048E+03 -0.52342352427E+03 -0.40662508236E+02  0.61625666324E+03  0.00000000000E+00 0. -1.
         -2    1    5    5    0  503 -0.14713524853E+02 -0.40650017216E+02  0.23614620217E+02  0.49260146176E+02  0.00000000000E+00 0.  1.
         -3    1    6    6    0  502  0.25699119860E+02  0.10567860650E+03 -0.21495967556E+03  0.24090677606E+03  0.00000000000E+00 0.  1.
<mgrwt>
<rscale>  0 0.14974646E+04</rscale>
<asrwt>0</asrwt>
<pdfrwt beam="1">  1        2 0.15269959E+00 0.14974646E+04</pdfrwt>
<pdfrwt beam="2">  1       -2 0.86893753E-01 0.14974646E+04</pdfrwt>
<totfact> 0.28206288E+01</totfact>
</mgrwt>
</event>
<event>
11    1  0.2502641E-008  0.1275286E+04  0.7818608E-02  0.9049396E-01
          2   -1    0    0  501    0  0.00000000000E+00  0.00000000000E+00  0.86568833353E+03  0.86568833353E+03  0.00000000000E+00 0. -1.
         -2   -1    0    0    0  501 -0.00000000000E+00 -0.00000000000E+00 -0.46967116478E+03  0.46967116478E+03  0.00000000000E+00 0.  1.
         23    2    1    2    0    0 -0.24991516189E+03  0.54428456020E+02 -0.75838100554E+02  0.28157312982E+03  0.90066447529E+02 0.  0.
        254    2    1    2    0    0  0.24991516189E+03 -0.54428456020E+02  0.47185526930E+03  0.10537863685E+04  0.90686177022E+03 0.  0.
         24    2    4    4    0    0  0.46216247635E+03  0.48056624904E+02 -0.29018724379E+02  0.47259729720E+03  0.81255924174E+02 0.  0.
         11    1    3    3    0    0 -0.13680077269E+03  0.11846035072E+01 -0.76113191448E+02  0.15655373712E+03  0.00000000000E+00 0.  1.
        -11    1    3    3    0    0 -0.11311438921E+03  0.53243852513E+02  0.27509089372E+00  0.12501939270E+03  0.00000000000E+00 0. -1.
          4    1    5    5  502    0  0.53231702646E+02  0.28858393497E+02  0.99599219717E+01  0.61364656664E+02  0.00000000000E+00 0. -1.
          1    1    4    4  503    0 -0.11911293902E+03  0.35692700605E+02  0.26111095426E+03  0.28920717756E+03  0.00000000000E+00 0. -1.
         -2    1    4    4    0  503 -0.93134375435E+02 -0.13817778153E+03  0.23976303942E+03  0.29198189373E+03  0.00000000000E+00 0.  1.
         -3    1    5    5    0  502  0.40893077370E+03  0.19198231408E+02 -0.38978646351E+02  0.41123264054E+03  0.00000000000E+00 0.  1.
<mgrwt>
<rscale>  0 0.12752864E+04</rscale>
<asrwt>0</asrwt>
<pdfrwt beam="1">  1        2 0.13318282E+00 0.12752864E+04</pdfrwt>
<pdfrwt beam="2">  1       -2 0.72257103E-01 0.12752864E+04</pdfrwt>
<totfact> 0.52710757E+01</totfact>
</mgrwt>
</event>
<event>
11    1  0.2502641E-008  0.1312415E+04  0.7818608E-02  0.9019778E-01
         -2   -1    0    0    0  501 -0.00000000000E+00  0.00000000000E+00  0.16703054795E+03  0.16703054795E+03  0.00000000000E+00 0.  1.
          2   -1    0    0  501    0  0.00000000000E+00 -0.00000000000E+00 -0.25780203416E+04  0.25780203416E+04  0.00000000000E+00 0. -1.
         23    2    1    2    0    0 -0.21629186209E+03 -0.15495655225E+03 -0.19845074550E+03  0.34182233609E+03  0.81646239157E+02 0.  0.
        254    2    1    2    0    0  0.21629186209E+03  0.15495655225E+03 -0.22125390481E+04  0.24032285534E+04  0.89965812278E+03 0.  0.
         24    2    4    4    0    0  0.32115304149E+03 -0.91336016669E+02 -0.20293927596E+04  0.20582224608E+04  0.79769551969E+02 0.  0.
         11    1    3    3    0    0 -0.11578798430E+03 -0.66493756039E+02 -0.14646787968E+03  0.19819464341E+03  0.00000000000E+00 0.  1.
        -11    1    3    3    0    0 -0.10050387779E+03 -0.88462796210E+02 -0.51982865822E+02  0.14362769267E+03  0.00000000000E+00 0. -1.
          2    1    5    5  502    0  0.80432666991E+02  0.97151210462E+01 -0.55747557631E+03  0.56333188768E+03  0.00000000000E+00 0. -1.
          3    1    4    4  503    0 -0.95176065390E+02  0.76478245032E+02 -0.82762120050E+02  0.14750245388E+03  0.00000000000E+00 0. -1.
         -4    1    4    4    0  503 -0.96851140131E+01  0.16981432389E+03 -0.10038416842E+03  0.19750363870E+03  0.00000000000E+00 0.  1.
         -1    1    5    5    0  502  0.24072037450E+03 -0.10105113772E+03 -0.14719171833E+04  0.14948905732E+04  0.00000000000E+00 0.  1.
<mgrwt>
<rscale>  0 0.13124148E+04</rscale>
<asrwt>0</asrwt>
<pdfrwt beam="1">  1        2 0.39661848E+00 0.13124148E+04</pdfrwt>
<pdfrwt beam="2">  1       -2 0.25697010E-01 0.13124148E+04</pdfrwt>
<totfact> 0.42125264E+01</totfact>
</mgrwt>
</event>
<event>
12    1  0.2502641E-008  0.1697528E+04  0.7818608E-02  0.8762776E-01
          2   -1    0    0  501    0  0.00000000000E+00  0.00000000000E+00  0.99555615000E+03  0.99555615000E+03  0.00000000000E+00 0. -1.
         -2   -1    0    0    0  501 -0.00000000000E+00 -0.00000000000E+00 -0.72361567275E+03  0.72361567275E+03  0.00000000000E+00 0.  1.
         23    2    1    2    0    0  0.42938601512E+03  0.33163698785E+03  0.46300524558E+03  0.71961585195E+03  0.95486518694E+02 0.  0.
        254    2    1    2    0    0 -0.42938601512E+03 -0.33163698785E+03 -0.19106476834E+03  0.99955597079E+03  0.81746617750E+03 0.  0.
        -24    2    4    4    0    0 -0.70596532860E+02 -0.99867025612E+02  0.30392896926E+03  0.34058122125E+03  0.93088434574E+02 0.  0.
         24    2    4    4    0    0 -0.35878948226E+03 -0.23176996224E+03 -0.49499373760E+03  0.65897474955E+03  0.82351152389E+02 0.  0.
         13    1    3    3    0    0  0.30014612288E+02  0.55255568204E+02  0.75738881180E+02  0.98439996398E+02  0.00000000000E+00 0.  1.
        -13    1    3    3    0    0  0.39937140283E+03  0.27638141965E+03  0.38726636440E+03  0.62117585556E+03  0.00000000000E+00 0. -1.
          2    1    6    6  502    0 -0.28579002399E+03 -0.14349963755E+03 -0.38015965127E+03  0.49677906985E+03  0.00000000000E+00 0. -1.
          3    1    5    5  503    0 -0.15132567184E+02 -0.41128726399E+02  0.25575029284E+02  0.50740997700E+02  0.00000000000E+00 0. -1.
         -4    1    5    5    0  503 -0.55463965676E+02 -0.58738299213E+02  0.27835393998E+03  0.28984022355E+03  0.00000000000E+00 0.  1.
         -3    1    6    6    0  502 -0.72999458277E+02 -0.88270324690E+02 -0.11483408633E+03  0.16219567970E+03  0.00000000000E+00 0.  1.
<mgrwt>
<rscale>  0 0.16975277E+04</rscale>
<asrwt>0</asrwt>
<pdfrwt beam="1">  1        2 0.15316248E+00 0.16975277E+04</pdfrwt>
<pdfrwt beam="2">  1       -2 0.11132549E+00 0.16975277E+04</pdfrwt>
<totfact> 0.15402419E+01</totfact>
</mgrwt>
</event>
<event>
11    1  0.2502641E-008  0.1619805E+04  0.7818608E-02  0.8808472E-01
          2   -1    0    0  501    0  0.00000000000E+00  0.00000000000E+00  0.31590721908E+04  0.31590721908E+04  0.00000000000E+00 0. -1.
         -2   -1    0    0    0  501 -0.00000000000E+00 -0.00000000000E+00 -0.20763765751E+03  0.20763765751E+03  0.00000000000E+00 0.  1.
         23    2    1    2    0    0  0.28510911809E+03  0.26230346438E+03  0.20273200882E+03  0.44660237397E+03  0.90901575263E+02 0.  0.
        254    2    1    2    0    0 -0.28510911809E+03 -0.26230346438E+03  0.27487025244E+04  0.29201074743E+04  0.90640596705E+03 0.  0.
         24    2    4    4    0    0 -0.64414411362E+02 -0.12604414897E+03  0.74861726699E+01  0.16199166045E+03  0.78414994700E+02 0.  0.
         13    1    3    3    0    0  0.52065548010E+02  0.34183353371E+02 -0.61504844356E+00  0.62287247667E+02  0.00000000000E+00 0. -1.
        -13    1    3    3    0    0  0.23304357008E+03  0.22812011101E+03  0.20334705727E+03  0.38431512630E+03  0.00000000000E+00 0.  1.
          2    1    5    5  502    0  0.24622951264E+01 -0.69179267489E+02 -0.16147536240E+02  0.71081480529E+02  0.00000000000E+00 0. -1.
          1    1    4    4  503    0 -0.19881463864E+03 -0.44278142611E+02  0.15837370711E+04  0.15967814267E+04  0.00000000000E+00 0. -1.
         -2    1    4    4    0  503 -0.21880068092E+02 -0.91981172800E+02  0.11574792807E+04  0.11613343872E+04  0.00000000000E+00 0.  1.
         -1    1    5    5    0  502 -0.66876706488E+02 -0.56864881480E+02  0.23633708910E+02  0.90910179921E+02  0.00000000000E+00 0.  1.
<mgrwt>
<rscale>  0 0.16198054E+04</rscale>
<asrwt>0</asrwt>
<pdfrwt beam="1">  1        2 0.48601107E+00 0.16198054E+04</pdfrwt>
<pdfrwt beam="2">  1       -2 0.31944257E-01 0.16198054E+04</pdfrwt>
<totfact> 0.12119856E+01</totfact>
</mgrwt>
</event>
<event>
11    1  0.2502641E-008  0.1964551E+04  0.7818608E-02  0.8623376E-01
          2   -1    0    0  501    0  0.00000000000E+00  0.00000000000E+00  0.19172385069E+04  0.19172385069E+04  0.00000000000E+00 0. -1.
         -2   -1    0    0    0  501 -0.00000000000E+00 -0.00000000000E+00 -0.50325780829E+03  0.50325780829E+03  0.00000000000E+00 0.  1.
         23    2    1    2    0    0  0.38443381628E+03 -0.26075722113E+03 -0.19468025112E+03  0.51184653401E+03  0.91119628667E+02 0.  0.
        254    2    1    2    0    0 -0.38443381628E+03  0.26075722113E+03  0.16086609498E+04  0.19086497812E+04  0.91617151699E+03 0.  0.
         24    2    4    4    0    0 -0.45924369154E+03 -0.50223913427E+02  0.12149907030E+04  0.13027017681E+04  0.86036496289E+02 0.  0.
         11    1    3    3    0    0  0.90049991202E+02 -0.40950484127E+02 -0.66857738082E+01  0.99149597261E+02  0.00000000000E+00 0. -1.
        -11    1    3    3    0    0  0.29438382507E+03 -0.21980673700E+03 -0.18799447732E+03  0.41269693674E+03  0.00000000000E+00 0.  1.
          2    1    5    5  502    0 -0.23433703572E+03 -0.57105381891E+02  0.54652124741E+03  0.59737789114E+03  0.00000000000E+00 0. -1.
          3    1    4    4  503    0  0.58251932153E+02 -0.38508018400E+02 -0.11332787958E+02  0.70743106827E+02  0.00000000000E+00 0. -1.
         -4    1    4    4    0  503  0.16557943108E+02  0.34948915296E+03  0.40500303474E+03  0.53520490624E+03  0.00000000000E+00 0.  1.
         -1    1    5    5    0  502 -0.22490665582E+03  0.68814684639E+01  0.66846945558E+03  0.70532387701E+03  0.00000000000E+00 0.  1.
<mgrwt>
<rscale>  0 0.19645511E+04</rscale>
<asrwt>0</asrwt>
<pdfrwt beam="1">  1        2 0.29495977E+00 0.19645511E+04</pdfrwt>
<pdfrwt beam="2">  1       -2 0.77424279E-01 0.19645511E+04</pdfrwt>
<totfact> 0.10294276E+01</totfact>
</mgrwt>
</event>
<event>
12    1  0.2502641E-008  0.1484927E+04  0.7818608E-02  0.8894539E-01
         -1   -1    0    0    0  501 -0.00000000000E+00  0.00000000000E+00  0.33472057677E+03  0.33472057677E+03  0.00000000000E+00 0.  1.
          1   -1    0    0  501    0  0.00000000000E+00 -0.00000000000E+00 -0.16469015637E+04  0.16469015637E+04  0.00000000000E+00 0. -1.
         23    2    1    2    0    0 -0.78302417233E+02  0.13744338629E+03  0.15501985426E+03  0.23963034793E+03  0.91485493153E+02 0.  0.
        254    2    1    2    0    0  0.78302417233E+02 -0.13744338629E+03 -0.14672008412E+04  0.17419917926E+04  0.92565390072E+03 0.  0.
        -24    2    4    4    0    0  0.19816090917E+03 -0.26722498372E+01  0.47248067871E+02  0.21475742721E+03  0.67922645559E+02 0.  0.
         24    2    4    4    0    0 -0.11985849194E+03 -0.13477113645E+03 -0.15144489091E+04  0.15272343653E+04  0.79749552886E+02 0.  0.
         11    1    3    3    0    0 -0.82041398988E+02  0.10227005081E+03  0.15658113349E+03  0.20422440061E+03  0.00000000000E+00 0.  1.
        -11    1    3    3    0    0  0.37389817550E+01  0.35173335481E+02 -0.15612792224E+01  0.35405947328E+02  0.00000000000E+00 0. -1.
          4    1    6    6  502    0 -0.15976695673E+02 -0.76875254324E+01 -0.40975171436E+02  0.44646584708E+02  0.00000000000E+00 0. -1.
          3    1    5    5  503    0  0.82674480646E+01  0.15677106939E+02 -0.16865693214E+01  0.17803564125E+02  0.00000000000E+00 0. -1.
         -4    1    5    5    0  503  0.18989346111E+03 -0.18349356776E+02  0.48934637193E+02  0.19695386308E+03  0.00000000000E+00 0.  1.
         -1    1    6    6    0  502 -0.10388179627E+03 -0.12708361102E+03 -0.14734737376E+04  0.14825877806E+04  0.00000000000E+00 0.  1.
<mgrwt>
<rscale>  0 0.14849267E+04</rscale>
<asrwt>0</asrwt>
<pdfrwt beam="1">  1        1 0.25336947E+00 0.14849267E+04</pdfrwt>
<pdfrwt beam="2">  1       -1 0.51495474E-01 0.14849267E+04</pdfrwt>
<totfact> 0.19040299E+01</totfact>
</mgrwt>
</event>
<event>
11    1  0.2502641E-008  0.1538500E+04  0.7818608E-02  0.8859247E-01
         -1   -1    0    0    0  501 -0.00000000000E+00  0.00000000000E+00  0.65598400816E+03  0.65598400816E+03  0.00000000000E+00 0.  1.
          1   -1    0    0  501    0  0.00000000000E+00 -0.00000000000E+00 -0.90207346180E+03  0.90207346180E+03  0.00000000000E+00 0. -1.
         23    2    1    2    0    0 -0.19013985231E+03  0.32349557831E+01  0.39010449790E+03  0.44357715052E+03  0.91736256763E+02 0.  0.
        254    2    1    2    0    0  0.19013985231E+03 -0.32349557831E+01 -0.63619395154E+03  0.11144803194E+04  0.89507542144E+03 0.  0.
         24    2    4    4    0    0 -0.25891267997E+02  0.15117452743E+03 -0.57326369787E+03  0.59860269276E+03  0.78548207992E+02 0.  0.
         11    1    3    3    0    0 -0.52699191702E+02  0.26210333341E+02  0.19590641109E+03  0.20455685832E+03  0.00000000000E+00 0. -1.
        -11    1    3    3    0    0 -0.13744066060E+03 -0.22975377557E+02  0.19419808682E+03  0.23902029220E+03  0.00000000000E+00 0.  1.
          2    1    5    5  502    0  0.15151392302E+02  0.46903521892E+02 -0.28674373878E+03  0.29094926841E+03  0.00000000000E+00 0. -1.
          1    1    4    4  503    0 -0.13498496506E+02 -0.12068788140E+03  0.15545500598E+03  0.19726640112E+03  0.00000000000E+00 0. -1.
         -2    1    4    4    0  503  0.22952961681E+03 -0.33721601806E+02 -0.21838525965E+03  0.31861122556E+03  0.00000000000E+00 0.  1.
         -1    1    5    5    0  502 -0.41042660299E+02  0.10427100554E+03 -0.28651995909E+03  0.30765342435E+03  0.00000000000E+00 0.  1.
<mgrwt>
<rscale>  0 0.15385003E+04</rscale>
<asrwt>0</asrwt>
<pdfrwt beam="1">  1        1 0.13878053E+00 0.15385003E+04</pdfrwt>
<pdfrwt beam="2">  1       -1 0.10092062E+00 0.15385003E+04</pdfrwt>
<totfact> 0.16317503E+01</totfact>
</mgrwt>
</event>
<event>
11    1  0.2502641E-008  0.1940935E+04  0.7818608E-02  0.8634744E-01
          1   -1    0    0  501    0  0.00000000000E+00  0.00000000000E+00  0.77607465053E+03  0.77607465053E+03  0.00000000000E+00 0. -1.
         -1   -1    0    0    0  501 -0.00000000000E+00 -0.00000000000E+00 -0.12135526276E+04  0.12135526276E+04  0.00000000000E+00 0.  1.
         23    2    1    2    0    0  0.33334502987E+03  0.63332785815E+03 -0.42683682988E+03  0.83816686914E+03  0.90060736858E+02 0.  0.
        254    2    1    2    0    0 -0.33334502987E+03 -0.63332785815E+03 -0.10641147229E+02  0.11514604090E+04  0.90195607137E+03 0.  0.
         24    2    4    4    0    0 -0.44063447397E+03 -0.67071881584E+03 -0.13691113839E+03  0.81803837942E+03  0.80122785930E+02 0.  0.
         13    1    3    3    0    0  0.11095443521E+03  0.24069956731E+03 -0.11082897953E+03  0.28728075309E+03  0.00000000000E+00 0. -1.
        -13    1    3    3    0    0  0.22239059467E+03  0.39262829085E+03 -0.31600785035E+03  0.55088611604E+03  0.00000000000E+00 0.  1.
          2    1    5    5  502    0 -0.42886377704E+03 -0.61667597330E+03 -0.12524171460E+03  0.76151092072E+03  0.00000000000E+00 0. -1.
          1    1    4    4  503    0  0.17589097089E+03  0.52547924583E+02  0.17038869201E+03  0.25046202184E+03  0.00000000000E+00 0. -1.
         -4    1    4    4    0  503 -0.68601526794E+02 -0.15156966894E+02 -0.44118700848E+02  0.82960007766E+02  0.00000000000E+00 0.  1.
         -1    1    5    5    0  502 -0.11770696931E+02 -0.54042842537E+02 -0.11669423787E+02  0.56527458702E+02  0.00000000000E+00 0.  1.
<mgrwt>
<rscale>  0 0.19409353E+04</rscale>
<asrwt>0</asrwt>
<pdfrwt beam="1">  1        1 0.11939610E+00 0.19409353E+04</pdfrwt>
<pdfrwt beam="2">  1       -1 0.18670040E+00 0.19409353E+04</pdfrwt>
<totfact> 0.40336543E+00</totfact>
</mgrwt>
</event>
<event>
11    1  0.2502641E-008  0.2809135E+04  0.7818608E-02  0.8300438E-01
          2   -1    0    0  501    0  0.00000000000E+00  0.00000000000E+00  0.26822388346E+04  0.26822388346E+04  0.00000000000E+00 0. -1.
         -2   -1    0    0    0  501 -0.00000000000E+00 -0.00000000000E+00 -0.73550838790E+03  0.73550838790E+03  0.00000000000E+00 0.  1.
         23    2    1    2    0    0 -0.84100904042E+03 -0.50139739684E+03 -0.87490852419E+02  0.98736764116E+03  0.92437297244E+02 0.  0.
        254    2    1    2    0    0  0.84100904042E+03  0.50139739684E+03  0.20342212991E+04  0.24303795813E+04  0.89999614445E+03 0.  0.
         24    2    4    4    0    0  0.26113540233E+03  0.64032075198E+03  0.96619380693E+03  0.11907699070E+04  0.78740936226E+02 0.  0.
         11    1    3    3    0    0 -0.72769848590E+03 -0.41906831763E+03 -0.44758818370E+02  0.84093203830E+03  0.00000000000E+00 0. -1.
        -11    1    3    3    0    0 -0.11331055451E+03 -0.82329079217E+02 -0.42732034049E+02  0.14643560285E+03  0.00000000000E+00 0.  1.
          4    1    5    5  502    0  0.25718906813E+03  0.64207183644E+03  0.95978792174E+03  0.11830449335E+04  0.00000000000E+00 0. -1.
          3    1    4    4  503    0  0.38342412568E+03 -0.91745142055E+02  0.87710174931E+03  0.96163335523E+03  0.00000000000E+00 0. -1.
         -4    1    4    4    0  503  0.19644951240E+03 -0.47178213083E+02  0.19092574288E+03  0.27797631914E+03  0.00000000000E+00 0.  1.
         -3    1    5    5    0  502  0.39463342046E+01 -0.17510844585E+01  0.64058851890E+01  0.77249734945E+01  0.00000000000E+00 0.  1.
<mgrwt>
<rscale>  0 0.28091345E+04</rscale>
<asrwt>0</asrwt>
<pdfrwt beam="1">  1        2 0.41265212E+00 0.28091345E+04</pdfrwt>
<pdfrwt beam="2">  1       -2 0.11315514E+00 0.28091345E+04</pdfrwt>
<totfact> 0.14507184E+00</totfact>
</mgrwt>
</event>
<event>
12    1  0.2502641E-008  0.1473880E+04  0.7818608E-02  0.8902011E-01
          2   -1    0    0  501    0  0.00000000000E+00  0.00000000000E+00  0.15959413618E+04  0.15959413618E+04  0.00000000000E+00 0. -1.
         -2   -1    0    0    0  501 -0.00000000000E+00 -0.00000000000E+00 -0.34028833526E+03  0.34028833526E+03  0.00000000000E+00 0.  1.
         23    2    1    2    0    0  0.48311800053E+02  0.43729725334E+03  0.29871632567E+03  0.53945232755E+03  0.90633617781E+02 0.  0.
        254    2    1    2    0    0 -0.48311800053E+02 -0.43729725334E+03  0.95693670086E+03  0.13967773695E+04  0.91744005400E+03 0.  0.
        -24    2    4    4    0    0  0.15853789593E+03  0.23951963452E+03  0.25569788267E+03  0.39761502982E+03  0.10105634551E+03 0.  0.
         24    2    4    4    0    0 -0.20684969598E+03 -0.67681688786E+03  0.70123881819E+03  0.99916233968E+03  0.75641288252E+02 0.  0.
         13    1    3    3    0    0  0.27374257166E+02  0.11739681092E+03  0.12959850805E+03  0.17699473003E+03  0.00000000000E+00 0. -1.
        -13    1    3    3    0    0  0.20937542887E+02  0.31990044242E+03  0.16911781762E+03  0.36245759752E+03  0.00000000000E+00 0.  1.
          2    1    6    6  502    0 -0.85491515292E+01 -0.11895039415E+02  0.33187829090E+01  0.15019796089E+02  0.00000000000E+00 0. -1.
          1    1    5    5  503    0  0.85307817746E+02  0.11356002095E+03  0.19143910703E+03  0.23837414672E+03  0.00000000000E+00 0. -1.
         -2    1    5    5    0  503  0.73230078179E+02  0.12595961357E+03  0.64258775647E+02  0.15924088309E+03  0.00000000000E+00 0.  1.
         -1    1    6    6    0  502 -0.19830054445E+03 -0.66492184844E+03  0.69792003528E+03  0.98414254359E+03  0.00000000000E+00 0.  1.
<mgrwt>
<rscale>  0 0.14738795E+04</rscale>
<asrwt>0</asrwt>
<pdfrwt beam="1">  1        2 0.24552944E+00 0.14738795E+04</pdfrwt>
<pdfrwt beam="2">  1       -2 0.52352052E-01 0.14738795E+04</pdfrwt>
<totfact> 0.37364840E+01</totfact>
</mgrwt>
</event>
<event>
12    1  0.2502641E-008  0.1134595E+04  0.7818608E-02  0.9172115E-01
          2   -1    0    0  501    0  0.00000000000E+00  0.00000000000E+00  0.92634097223E+03  0.92634097223E+03  0.00000000000E+00 0.  1.
         -2   -1    0    0    0  501 -0.00000000000E+00 -0.00000000000E+00 -0.34741656311E+03  0.34741656311E+03  0.00000000000E+00 0. -1.
         23    2    1    2    0    0  0.15321868420E+03 -0.57662513517E+02 -0.10324689126E+02  0.18729118658E+03  0.90390589717E+02 0.  0.
        254    2    1    2    0    0 -0.15321868420E+03  0.57662513517E+02  0.58924909825E+03  0.10864663488E+04  0.89799426309E+03 0.  0.
        -24    2    4    4    0    0 -0.46070839705E+03  0.25613857469E+03  0.36414156728E+03  0.64927426434E+03  0.10535080806E+03 0.  0.
         24    2    4    4    0    0  0.30748971285E+03 -0.19847606117E+03  0.22510753097E+03  0.43719208441E+03  0.80751766595E+02 0.  0.
         11    1    3    3    0    0  0.18091701126E+02 -0.36848313236E+02 -0.27625801119E+02  0.49480225601E+02  0.00000000000E+00 0. -1.
        -11    1    3    3    0    0  0.13512698308E+03 -0.20814200280E+02  0.17301111993E+02  0.13781096098E+03  0.00000000000E+00 0.  1.
          4    1    6    6  502    0  0.28705807986E+03 -0.15453547567E+03  0.18982054204E+03  0.37724712409E+03  0.00000000000E+00 0. -1.
          3    1    5    5  503    0 -0.39626254765E+03  0.23999746510E+03  0.35178018422E+03  0.58169759148E+03  0.00000000000E+00 0. -1.
         -4    1    5    5    0  503 -0.64445849400E+02  0.16141109588E+02  0.12361383056E+02  0.67576672859E+02  0.00000000000E+00 0.  1.
         -3    1    6    6    0  502  0.20431632995E+02 -0.43940585502E+02  0.35286988924E+02  0.59944960325E+02  0.00000000000E+00 0.  1.
<mgrwt>
<rscale>  0 0.11345945E+04</rscale>
<asrwt>0</asrwt>
<pdfrwt beam="1">  1        2 0.14251400E+00 0.11345945E+04</pdfrwt>
<pdfrwt beam="2">  1       -2 0.53448702E-01 0.11345945E+04</pdfrwt>
<totfact> 0.92017320E+01</totfact>
</mgrwt>
</event>
<event>
12    1  0.2502641E-008  0.1589844E+04  0.7818608E-02  0.8826812E-01
          1   -1    0    0  501    0  0.00000000000E+00  0.00000000000E+00  0.54962647201E+03  0.54962647201E+03  0.00000000000E+00 0. -1.
         -1   -1    0    0    0  501 -0.00000000000E+00 -0.00000000000E+00 -0.11496916697E+04  0.11496916697E+04  0.00000000000E+00 0.  1.
         23    2    1    2    0    0  0.29809169430E+03 -0.35630102683E+03 -0.49187545581E+03  0.68249168353E+03  0.89690323502E+02 0.  0.
        254    2    1    2    0    0 -0.29809169430E+03  0.35630102683E+03 -0.10818974189E+03  0.10168264582E+04  0.89800999209E+03 0.  0.
        -24    2    4    4    0    0  0.27459035598E+03  0.12415660990E+03 -0.21906665223E+03  0.38413305530E+03  0.93558958285E+02 0.  0.
         24    2    4    4    0    0 -0.57268205028E+03  0.23214441694E+03  0.11087691034E+03  0.63269340289E+03  0.78431446391E+02 0.  0.
         11    1    3    3    0    0  0.28895940689E+03 -0.33034865953E+03 -0.48505754972E+03  0.65414723283E+03  0.00000000000E+00 0.  1.
        -11    1    3    3    0    0  0.91322874152E+01 -0.25952367307E+02 -0.68179060915E+01  0.28344450704E+02  0.00000000000E+00 0. -1.
          2    1    6    6  502    0 -0.15522506618E+03  0.10117306208E+03  0.27903323106E+02  0.18737503863E+03  0.00000000000E+00 0. -1.
          1    1    5    5  503    0  0.39208858326E+02  0.13733748053E+02  0.37623386510E+01  0.41714572981E+02  0.00000000000E+00 0. -1.
         -2    1    5    5    0  503  0.23538149765E+03  0.11042286184E+03 -0.22282899088E+03  0.34241848232E+03  0.00000000000E+00 0.  1.
         -1    1    6    6    0  502 -0.41745698410E+03  0.13097135486E+03  0.82973587239E+02  0.44531836426E+03  0.00000000000E+00 0.  1.
<mgrwt>
<rscale>  0 0.15898440E+04</rscale>
<asrwt>0</asrwt>
<pdfrwt beam="1">  1        1 0.84557919E-01 0.15898440E+04</pdfrwt>
<pdfrwt beam="2">  1       -1 0.17687564E+00 0.15898440E+04</pdfrwt>
<totfact> 0.81725711E+00</totfact>
</mgrwt>
</event>
<event>
11    1  0.2502641E-008  0.1451151E+04  0.7818608E-02  0.8917603E-01
          1   -1    0    0  501    0  0.00000000000E+00  0.00000000000E+00  0.10503158946E+04  0.10503158946E+04  0.00000000000E+00 0. -1.
         -1   -1    0    0    0  501 -0.00000000000E+00 -0.00000000000E+00 -0.50123925656E+03  0.50123925656E+03  0.00000000000E+00 0.  1.
         23    2    1    2    0    0  0.85860043488E+02 -0.39208553245E+03 -0.22599124284E+02  0.41227862661E+03  0.91432673139E+02 0.  0.
        254    2    1    2    0    0 -0.85860043488E+02  0.39208553245E+03  0.57167576230E+03  0.11392765245E+04  0.90001933884E+03 0.  0.
         24    2    4    4    0    0 -0.17529494988E+03  0.61945523679E+03  0.50502577415E+03  0.82193985392E+03  0.77980645466E+02 0.  0.
         11    1    3    3    0    0  0.86872563284E+01 -0.20367501082E+03  0.18049382960E+02  0.20465766216E+03  0.00000000000E+00 0.  1.
        -11    1    3    3    0    0  0.77172787160E+02 -0.18841052163E+03 -0.40648507243E+02  0.20762096445E+03  0.00000000000E+00 0. -1.
          4    1    5    5  502    0 -0.31129448299E+02  0.22230199697E+03  0.20222740577E+03  0.30213100478E+03  0.00000000000E+00 0. -1.
          1    1    4    4  503    0 -0.92287965904E+01  0.27838164045E+02  0.28819416276E+02  0.41118035196E+02  0.00000000000E+00 0. -1.
         -2    1    4    4    0  503  0.98663702985E+02 -0.25520786839E+03  0.37830571878E+02  0.27621863540E+03  0.00000000000E+00 0.  1.
         -3    1    5    5    0  502 -0.14416550158E+03  0.39715323982E+03  0.30279836838E+03  0.51980884914E+03  0.00000000000E+00 0.  1.
<mgrwt>
<rscale>  0 0.14511507E+04</rscale>
<asrwt>0</asrwt>
<pdfrwt beam="1">  1        1 0.16158706E+00 0.14511507E+04</pdfrwt>
<pdfrwt beam="2">  1       -1 0.77113732E-01 0.14511507E+04</pdfrwt>
<totfact> 0.22656441E+01</totfact>
</mgrwt>
</event>
<event>
12    1  0.2502641E-008  0.1528130E+04  0.7818608E-02  0.8865959E-01
          2   -1    0    0  501    0  0.00000000000E+00  0.00000000000E+00  0.14532747008E+04  0.14532747008E+04  0.00000000000E+00 0. -1.
         -2   -1    0    0    0  501 -0.00000000000E+00 -0.00000000000E+00 -0.40171029006E+03  0.40171029006E+03  0.00000000000E+00 0.  1.
         23    2    1    2    0    0  0.20447304088E+03  0.10919791845E+02 -0.19480982199E+03  0.29703639251E+03  0.91385367705E+02 0.  0.
        254    2    1    2    0    0 -0.20447304088E+03 -0.10919791845E+02  0.12463742327E+04  0.15579485984E+04  0.91204530633E+03 0.  0.
        -24    2    4    4    0    0  0.62915495720E+02  0.40237415136E+03  0.41820805578E+03  0.59123921136E+03  0.93821691792E+02 0.  0.
         24    2    4    4    0    0 -0.26738853660E+03 -0.41329394320E+03  0.82816617695E+03  0.96670938699E+03  0.79745277346E+02 0.  0.
         11    1    3    3    0    0  0.20865939861E+03 -0.32500574797E+01 -0.18752939758E+03  0.28056475626E+03  0.00000000000E+00 0.  1.
        -11    1    3    3    0    0 -0.41863577300E+01  0.14169849325E+02 -0.72804244074E+01  0.16471636242E+02  0.00000000000E+00 0. -1.
          2    1    6    6  502    0 -0.76327051756E+02 -0.18559397361E+03  0.30802765373E+03  0.36763021820E+03  0.00000000000E+00 0. -1.
          1    1    5    5  503    0  0.42801731375E+02  0.38082651555E+03  0.35905544609E+03  0.52514915645E+03  0.00000000000E+00 0. -1.
         -2    1    5    5    0  503  0.20113764345E+02  0.21547635809E+02  0.59152609691E+02  0.66090054913E+02  0.00000000000E+00 0.  1.
         -1    1    6    6    0  502 -0.19106148484E+03 -0.22769996959E+03  0.52013852322E+03  0.59907916879E+03  0.00000000000E+00 0.  1.
<mgrwt>
<rscale>  0 0.15281301E+04</rscale>
<asrwt>0</asrwt>
<pdfrwt beam="1">  1        2 0.22358072E+00 0.15281301E+04</pdfrwt>
<pdfrwt beam="2">  1       -2 0.61801584E-01 0.15281301E+04</pdfrwt>
<totfact> 0.31636274E+01</totfact>
</mgrwt>
</event>
<event>
12    1  0.2502641E-008  0.1686484E+04  0.7818608E-02  0.8769111E-01
         -1   -1    0    0    0  501 -0.00000000000E+00  0.00000000000E+00  0.75344344652E+03  0.75344344652E+03  0.00000000000E+00 0.  1.
          1   -1    0    0  501    0  0.00000000000E+00 -0.00000000000E+00 -0.94374269661E+03  0.94374269661E+03  0.00000000000E+00 0. -1.
         23    2    1    2    0    0  0.47954591436E+03  0.36460175385E+03 -0.86089031658E+02  0.61531172325E+03  0.91095952184E+02 0.  0.
        254    2    1    2    0    0 -0.47954591436E+03 -0.36460175385E+03 -0.10421021844E+03  0.10818744199E+04  0.89257703750E+03 0.  0.
        -24    2    4    4    0    0 -0.20768437718E+03 -0.37314607848E+03  0.34026522131E+03  0.55447196099E+03  0.96373950212E+02 0.  0.
         24    2    4    4    0    0 -0.27186153718E+03  0.85443246231E+01 -0.44447543974E+03  0.52740245889E+03  0.81321806596E+02 0.  0.
         11    1    3    3    0    0  0.25231957702E+02  0.11908708845E+02 -0.24037435732E+02  0.36827535247E+02  0.00000000000E+00 0. -1.
        -11    1    3    3    0    0  0.45431395666E+03  0.35269304501E+03 -0.62051595926E+02  0.57848418800E+03  0.00000000000E+00 0.  1.
          2    1    6    6  502    0 -0.85462671559E+02  0.40766718278E+02 -0.14405809654E+03  0.17239062830E+03  0.00000000000E+00 0. -1.
          1    1    5    5  503    0 -0.14794267686E+03 -0.20469030925E+03  0.24529419197E+03  0.35207158214E+03  0.00000000000E+00 0. -1.
         -2    1    5    5    0  503 -0.59741700323E+02 -0.16845576923E+03  0.94971029340E+02  0.20240037885E+03  0.00000000000E+00 0.  1.
         -1    1    6    6    0  502 -0.18639886562E+03 -0.32222393655E+02 -0.30041734321E+03  0.35501183059E+03  0.00000000000E+00 0.  1.
<mgrwt>
<rscale>  0 0.16864836E+04</rscale>
<asrwt>0</asrwt>
<pdfrwt beam="1">  1        1 0.14519118E+00 0.16864836E+04</pdfrwt>
<pdfrwt beam="2">  1       -1 0.11591438E+00 0.16864836E+04</pdfrwt>
<totfact> 0.10760079E+01</totfact>
</mgrwt>
</event>
<event>
12    1  0.2502641E-008  0.2675546E+04  0.7818608E-02  0.8342983E-01
          1   -1    0    0  501    0  0.00000000000E+00  0.00000000000E+00  0.94148476875E+03  0.94148476875E+03  0.00000000000E+00 0. -1.
         -1   -1    0    0    0  501 -0.00000000000E+00 -0.00000000000E+00 -0.19008667786E+04  0.19008667786E+04  0.00000000000E+00 0.  1.
         23    2    1    2    0    0 -0.74084430291E+03 -0.77652747947E+03 -0.87661271151E+03  0.13887474449E+04  0.91238216202E+02 0.  0.
        254    2    1    2    0    0  0.74084430291E+03  0.77652747947E+03 -0.82769298307E+02  0.14536041025E+04  0.97686689084E+03 0.  0.
        -24    2    4    4    0    0  0.13781358794E+03 -0.12559105056E+03  0.23932137370E+03  0.31874149376E+03  0.97753378125E+02 0.  0.
         24    2    4    4    0    0  0.60303071497E+03  0.90211853002E+03 -0.32209067201E+03  0.11348626087E+04  0.81895385805E+02 0.  0.
         13    1    3    3    0    0 -0.88625090146E+02 -0.10307284361E+03 -0.75011754190E+02  0.15525843281E+03  0.00000000000E+00 0. -1.
        -13    1    3    3    0    0 -0.65221921276E+03 -0.67345463586E+03 -0.80160095732E+03  0.12334890120E+04  0.00000000000E+00 0.  1.
          4    1    6    6  502    0  0.41792619089E+03  0.60680146009E+03 -0.25679352864E+03  0.78026484565E+03  0.00000000000E+00 0. -1.
          3    1    5    5  503    0  0.89592509532E+02 -0.17100835329E+02  0.11591218310E+03  0.14749539154E+03  0.00000000000E+00 0. -1.
         -4    1    5    5    0  503  0.48221078406E+02 -0.10849021523E+03  0.12340919060E+03  0.17124610222E+03  0.00000000000E+00 0.  1.
         -3    1    6    6    0  502  0.18510452408E+03  0.29531706993E+03 -0.65297143363E+02  0.35459776304E+03  0.00000000000E+00 0.  1.
<mgrwt>
<rscale>  0 0.26755464E+04</rscale>
<asrwt>0</asrwt>
<pdfrwt beam="1">  1        1 0.14484381E+00 0.26755464E+04</pdfrwt>
<pdfrwt beam="2">  1       -1 0.29244104E+00 0.26755464E+04</pdfrwt>
<totfact> 0.54463834E-01</totfact>
</mgrwt>
</event>
<event>
12    1  0.2502641E-008  0.2518173E+04  0.7818608E-02  0.8396540E-01
         -1   -1    0    0    0  501 -0.00000000000E+00  0.00000000000E+00  0.16334861419E+04  0.16334861419E+04  0.00000000000E+00 0.  1.
          1   -1    0    0  501    0  0.00000000000E+00 -0.00000000000E+00 -0.97050032100E+03  0.97050032100E+03  0.00000000000E+00 0. -1.
         23    2    1    2    0    0  0.44719049711E+03 -0.48181581860E+02 -0.74099544033E+03  0.87150038794E+03  0.90210188227E+02 0.  0.
        254    2    1    2    0    0 -0.44719049711E+03  0.48181581860E+02  0.14039812612E+04  0.17324860749E+04  0.90996912719E+03 0.  0.
        -24    2    4    4    0    0 -0.38579130911E+01 -0.31436194907E+02  0.12427059789E+04  0.12465781234E+04  0.92928735325E+02 0.  0.
         24    2    4    4    0    0 -0.44333258402E+03  0.79617776768E+02  0.16127528229E+03  0.48590795152E+03  0.84935565287E+02 0.  0.
         11    1    3    3    0    0  0.96610470341E+02  0.23489514647E+02 -0.13357363830E+03  0.16651503574E+03  0.00000000000E+00 0.  1.
        -11    1    3    3    0    0  0.35058002677E+03 -0.71671096508E+02 -0.60742180203E+03  0.70498535221E+03  0.00000000000E+00 0. -1.
          4    1    6    6  502    0 -0.30682848548E+03  0.21762775090E+02  0.84730952603E+02  0.31905590766E+03  0.00000000000E+00 0. -1.
          1    1    5    5  503    0 -0.16533304609E+02  0.16478708109E+02  0.90040512774E+03  0.90070766181E+03  0.00000000000E+00 0. -1.
         -2    1    5    5    0  503  0.12675391518E+02 -0.47914903017E+02  0.34230085117E+03  0.34587046158E+03  0.00000000000E+00 0.  1.
         -3    1    6    6    0  502 -0.13650409854E+03  0.57855001677E+02  0.76544329685E+02  0.16685204387E+03  0.00000000000E+00 0.  1.
<mgrwt>
<rscale>  0 0.25181730E+04</rscale>
<asrwt>0</asrwt>
<pdfrwt beam="1">  1        1 0.14930774E+00 0.25181730E+04</pdfrwt>
<pdfrwt beam="2">  1       -1 0.25130556E+00 0.25181730E+04</pdfrwt>
<totfact> 0.96791353E-01</totfact>
</mgrwt>
</event>
<event>
12    1  0.2502641E-008  0.1527083E+04  0.7818608E-02  0.8866640E-01
         -2   -1    0    0    0  501 -0.00000000000E+00  0.00000000000E+00  0.34384978765E+03  0.34384978765E+03  0.00000000000E+00 0.  1.
          2   -1    0    0  501    0  0.00000000000E+00 -0.00000000000E+00 -0.16954958580E+04  0.16954958580E+04  0.00000000000E+00 0. -1.
         23    2    1    2    0    0 -0.25737823032E+03  0.15072997470E+03  0.80492368723E+02  0.32072767700E+03  0.86163464722E+02 0.  0.
        254    2    1    2    0    0  0.25737823032E+03 -0.15072997470E+03 -0.14321384391E+04  0.17186179686E+04  0.90203333351E+03 0.  0.
        -24    2    4    4    0    0  0.34586409033E+03  0.31049005929E+03 -0.72596666950E+03  0.86684858206E+03  0.91503076969E+02 0.  0.
         24    2    4    4    0    0 -0.88485860007E+02 -0.46122003399E+03 -0.70617176955E+03  0.85176938657E+03  0.79239211316E+02 0.  0.
         11    1    3    3    0    0 -0.24751058568E+03  0.12231348058E+03  0.55472087901E+02  0.28160118979E+03  0.00000000000E+00 0.  1.
        -11    1    3    3    0    0 -0.98676446429E+01  0.28416494119E+02  0.25020280822E+02  0.39126487208E+02  0.00000000000E+00 0. -1.
          4    1    6    6  502    0 -0.11079948403E+02 -0.15192501799E+03 -0.28924483762E+03  0.32690450049E+03  0.00000000000E+00 0. -1.
          1    1    5    5  503    0  0.14645122398E+03  0.10024868152E+03 -0.20880296263E+03  0.27403729008E+03  0.00000000000E+00 0. -1.
         -2    1    5    5    0  503  0.19941286635E+03  0.21024137776E+03 -0.51716370688E+03  0.59281129198E+03  0.00000000000E+00 0.  1.
         -3    1    6    6    0  502 -0.77405911604E+02 -0.30929501600E+03 -0.41692693193E+03  0.52486488608E+03  0.00000000000E+00 0.  1.
<mgrwt>
<rscale>  0 0.15270834E+04</rscale>
<asrwt>0</asrwt>
<pdfrwt beam="1">  1        2 0.26084551E+00 0.15270834E+04</pdfrwt>
<pdfrwt beam="2">  1       -2 0.52899968E-01 0.15270834E+04</pdfrwt>
<totfact> 0.32050979E+01</totfact>
</mgrwt>
</event>
<event>
12    1  0.2502641E-008  0.1254123E+04  0.7818608E-02  0.9066759E-01
         -2   -1    0    0    0  501 -0.00000000000E+00  0.00000000000E+00  0.23318658503E+03  0.23318658503E+03  0.00000000000E+00 0. -1.
          2   -1    0    0  501    0  0.00000000000E+00 -0.00000000000E+00 -0.16862297699E+04  0.16862297699E+04  0.00000000000E+00 0.  1.
         23    2    1    2    0    0  0.21973199396E+02 -0.30276757790E+03 -0.33221293917E+03  0.45969246459E+03  0.93812031925E+02 0.  0.
        254    2    1    2    0    0 -0.21973199396E+02  0.30276757790E+03 -0.11208302457E+04  0.14597238903E+04  0.88452380897E+03 0.  0.
        -24    2    4    4    0    0  0.26295487339E+03  0.15489732343E+03 -0.10795838783E+04  0.11257481135E+04  0.93107563567E+02 0.  0.
         24    2    4    4    0    0 -0.28492807279E+03  0.14787025447E+03 -0.41246367401E+02  0.33397577689E+03  0.82395011416E+02 0.  0.
         13    1    3    3    0    0 -0.18238238937E+02 -0.58539942292E+02 -0.27721492808E+02  0.67290707877E+02  0.00000000000E+00 0. -1.
        -13    1    3    3    0    0  0.40211438333E+02 -0.24422763561E+03 -0.30449144636E+03  0.39240175671E+03  0.00000000000E+00 0.  1.
          4    1    6    6  502    0 -0.47118967686E+02  0.62762926151E+02 -0.16401456543E+02  0.80177239860E+02  0.00000000000E+00 0. -1.
          3    1    5    5  503    0  0.25119710677E+03  0.13734932867E+03 -0.10558483262E+04  0.10939746398E+04  0.00000000000E+00 0. -1.
         -4    1    5    5    0  503  0.11757766623E+02  0.17547994753E+02 -0.23735552131E+02  0.31773473697E+02  0.00000000000E+00 0.  1.
         -3    1    6    6    0  502 -0.23780910511E+03  0.85107328317E+02 -0.24844910858E+02  0.25379853703E+03  0.00000000000E+00 0.  1.
<mgrwt>
<rscale>  0 0.12541231E+04</rscale>
<asrwt>0</asrwt>
<pdfrwt beam="1">  1        2 0.25941997E+00 0.12541231E+04</pdfrwt>
<pdfrwt beam="2">  1       -2 0.35874859E-01 0.12541231E+04</pdfrwt>
<totfact> 0.71689880E+01</totfact>
</mgrwt>
</event>
<event>
12    1  0.2502641E-008  0.1083635E+04  0.7818608E-02  0.9221291E-01
          2   -1    0    0  501    0  0.00000000000E+00  0.00000000000E+00  0.10314932163E+04  0.10314932163E+04  0.00000000000E+00 0. -1.
         -2   -1    0    0    0  501 -0.00000000000E+00 -0.00000000000E+00 -0.28460314917E+03  0.28460314917E+03  0.00000000000E+00 0.  1.
         23    2    1    2    0    0 -0.14505352221E+03 -0.27989589583E+02  0.53547187031E+02  0.18336090306E+03  0.94498561369E+02 0.  0.
        254    2    1    2    0    0  0.14505352221E+03  0.27989589583E+02  0.69334288006E+03  0.11327354624E+04  0.88348250517E+03 0.  0.
        -24    2    4    4    0    0  0.22520255014E+03  0.41529208679E+03  0.29364846488E+03  0.56504622168E+03  0.99318204605E+02 0.  0.
         24    2    4    4    0    0 -0.80149027927E+02 -0.38730249721E+03  0.39969441517E+03  0.56768924069E+03  0.78027927409E+02 0.  0.
         13    1    3    3    0    0 -0.65285874850E+01  0.23693357099E+02  0.20156910294E+02  0.31785195576E+02  0.00000000000E+00 0. -1.
        -13    1    3    3    0    0 -0.13852493472E+03 -0.51682946682E+02  0.33390276737E+02  0.15157570748E+03  0.00000000000E+00 0.  1.
          4    1    6    6  502    0  0.81184236264E+01 -0.45362887232E+01  0.39877876276E+01  0.10118753269E+02  0.00000000000E+00 0. -1.
          3    1    5    5  503    0  0.97244633439E+02  0.12467755108E+03  0.14460496182E+03  0.21426993597E+03  0.00000000000E+00 0. -1.
         -4    1    5    5    0  503  0.12795791670E+03  0.29061453571E+03  0.14904350306E+03  0.35077628571E+03  0.00000000000E+00 0.  1.
         -3    1    6    6    0  502 -0.88267451554E+02 -0.38276620848E+03  0.39570662754E+03  0.55757048742E+03  0.00000000000E+00 0.  1.
<mgrwt>
<rscale>  0 0.10836350E+04</rscale>
<asrwt>0</asrwt>
<pdfrwt beam="1">  1        2 0.15869126E+00 0.10836350E+04</pdfrwt>
<pdfrwt beam="2">  1       -2 0.43785100E-01 0.10836350E+04</pdfrwt>
<totfact> 0.11814747E+02</totfact>
</mgrwt>
</event>
<event>
11    1  0.2502641E-008  0.1499932E+04  0.7818608E-02  0.8884498E-01
          1   -1    0    0  501    0  0.00000000000E+00  0.00000000000E+00  0.21018813130E+04  0.21018813130E+04  0.00000000000E+00 0. -1.
         -1   -1    0    0    0  501 -0.00000000000E+00 -0.00000000000E+00 -0.26759311286E+03  0.26759311286E+03  0.00000000000E+00 0.  1.
         23    2    1    2    0    0  0.43341489826E+03  0.17698196345E+03  0.38661799038E+03  0.61426682718E+03  0.93162090246E+02 0.  0.
        254    2    1    2    0    0 -0.43341489826E+03 -0.17698196345E+03  0.14476702098E+04  0.17552075987E+04  0.87511918551E+03 0.  0.
         24    2    4    4    0    0 -0.14435246672E+03 -0.17796184194E+03  0.11994157829E+04  0.12238570591E+04  0.81974562739E+02 0.  0.
         13    1    3    3    0    0  0.20324591730E+03  0.10208113104E+03  0.24292255177E+03  0.33277744270E+03  0.00000000000E+00 0. -1.
        -13    1    3    3    0    0  0.23016898096E+03  0.74900832416E+02  0.14369543861E+03  0.28148938448E+03  0.00000000000E+00 0.  1.
          4    1    5    5  502    0 -0.10595456462E+03 -0.10210206471E+03  0.92316168653E+03  0.93481479495E+03  0.00000000000E+00 0. -1.
          3    1    4    4  503    0 -0.10184887198E+03 -0.80837708927E+02 -0.74129987728E+02  0.14967692871E+03  0.00000000000E+00 0. -1.
         -4    1    4    4    0  503 -0.18721355956E+03  0.81817587414E+02  0.32238441463E+03  0.38167361094E+03  0.00000000000E+00 0.  1.
         -3    1    5    5    0  502 -0.38397902102E+02 -0.75859777232E+02  0.27625409637E+03  0.28904226412E+03  0.00000000000E+00 0.  1.
<mgrwt>
<rscale>  0 0.14999319E+04</rscale>
<asrwt>0</asrwt>
<pdfrwt beam="1">  1        1 0.32336635E+00 0.14999319E+04</pdfrwt>
<pdfrwt beam="2">  1       -1 0.41168172E-01 0.14999319E+04</pdfrwt>
<totfact> 0.14213238E+01</totfact>
</mgrwt>
</event>
<event>
12    1  0.2502641E-008  0.1974441E+04  0.7818608E-02  0.8618665E-01
          2   -1    0    0  501    0  0.00000000000E+00  0.00000000000E+00  0.14904740915E+04  0.14904740915E+04  0.00000000000E+00 0. -1.
         -2   -1    0    0    0  501 -0.00000000000E+00 -0.00000000000E+00 -0.65388860265E+03  0.65388860265E+03  0.00000000000E+00 0.  1.
         23    2    1    2    0    0  0.26438928417E+02 -0.85848963060E+02 -0.50812499575E+03  0.52394197957E+03  0.90857719876E+02 0.  0.
        254    2    1    2    0    0 -0.26438928417E+02  0.85848963060E+02  0.13447104846E+04  0.16204207146E+04  0.89969324967E+03 0.  0.
        -24    2    4    4    0    0 -0.19954248924E+03 -0.31518508886E+03  0.95499670960E+03  0.10294781720E+04  0.92993258194E+02 0.  0.
         24    2    4    4    0    0  0.17310356083E+03  0.40103405192E+03  0.38971377502E+03  0.59094254259E+03  0.80889484051E+02 0.  0.
         11    1    3    3    0    0  0.57806670981E+02 -0.66296717844E+02 -0.40361184464E+03  0.41308520566E+03  0.00000000000E+00 0.  1.
        -11    1    3    3    0    0 -0.31367742564E+02 -0.19552245216E+02 -0.10451315111E+03  0.11085677391E+03  0.00000000000E+00 0. -1.
          4    1    6    6  502    0  0.11054945252E+03  0.33711857927E+03  0.31291505242E+03  0.47306019487E+03  0.00000000000E+00 0. -1.
          3    1    5    5  503    0 -0.19861375060E+03 -0.28222233372E+03  0.91324147464E+03  0.97627191836E+03  0.00000000000E+00 0. -1.
         -4    1    5    5    0  503 -0.92873864535E+00 -0.32962755146E+02  0.41755234959E+02  0.53206253662E+02  0.00000000000E+00 0.  1.
         -3    1    6    6    0  502  0.62554108309E+02  0.63915472656E+02  0.76798722603E+02  0.11788234772E+03  0.00000000000E+00 0.  1.
<mgrwt>
<rscale>  0 0.19744407E+04</rscale>
<asrwt>0</asrwt>
<pdfrwt beam="1">  1        2 0.22930370E+00 0.19744407E+04</pdfrwt>
<pdfrwt beam="2">  1       -2 0.10059825E+00 0.19744407E+04</pdfrwt>
<totfact> 0.97453068E+00</totfact>
</mgrwt>
</event>
<event>
11    1  0.2502641E-008  0.1395587E+04  0.7818608E-02  0.8957019E-01
         -2   -1    0    0    0  501 -0.00000000000E+00  0.00000000000E+00  0.30895783995E+03  0.30895783995E+03  0.00000000000E+00 0.  1.
          2   -1    0    0  501    0  0.00000000000E+00 -0.00000000000E+00 -0.15759933205E+04  0.15759933205E+04  0.00000000000E+00 0. -1.
         23    2    1    2    0    0  0.22634679624E+03  0.28591973733E+03 -0.57135986110E+03  0.68376294280E+03  0.89981679838E+02 0.  0.
        254    2    1    2    0    0 -0.22634679624E+03 -0.28591973733E+03 -0.69567561945E+03  0.12011882177E+04  0.90879348499E+03 0.  0.
         24    2    4    4    0    0 -0.36630619187E+03 -0.25850679783E+03 -0.84111886868E+03  0.95573584707E+03  0.70314062561E+02 0.  0.
         13    1    3    3    0    0  0.23384824674E+03  0.27839802572E+03 -0.56322645403E+03  0.67038384658E+03  0.00000000000E+00 0. -1.
        -13    1    3    3    0    0 -0.75014505041E+01  0.75217116108E+01 -0.81334070718E+01  0.13379096226E+02  0.00000000000E+00 0.  1.
          2    1    5    5  502    0 -0.22571888495E+03 -0.12205873594E+03 -0.51238550093E+03  0.57304995560E+03  0.00000000000E+00 0. -1.
          1    1    4    4  503    0 -0.26814961605E+01 -0.50693772132E+02  0.55535672197E+02  0.75241343961E+02  0.00000000000E+00 0. -1.
         -2    1    4    4    0  503  0.14264089179E+03  0.23280832632E+02  0.89907577027E+02  0.17021102663E+03  0.00000000000E+00 0.  1.
         -1    1    5    5    0  502 -0.14058730692E+03 -0.13644806190E+03 -0.32873336774E+03  0.38268589147E+03  0.00000000000E+00 0.  1.
<mgrwt>
<rscale>  0 0.13955866E+04</rscale>
<asrwt>0</asrwt>
<pdfrwt beam="1">  1        2 0.24246051E+00 0.13955866E+04</pdfrwt>
<pdfrwt beam="2">  1       -2 0.47531976E-01 0.13955866E+04</pdfrwt>
<totfact> 0.46965177E+01</totfact>
</mgrwt>
</event>
<event>
11    1  0.2502641E-008  0.1597357E+04  0.7818608E-02  0.8822173E-01
         -2   -1    0    0    0  501 -0.00000000000E+00  0.00000000000E+00  0.18987526498E+04  0.18987526498E+04  0.00000000000E+00 0.  1.
          2   -1    0    0  501    0  0.00000000000E+00 -0.00000000000E+00 -0.33595077487E+03  0.33595077487E+03  0.00000000000E+00 0. -1.
         23    2    1    2    0    0 -0.56477871655E+02  0.40833679859E+02  0.13033008544E+04  0.13083337296E+04  0.91032366250E+02 0.  0.
        254    2    1    2    0    0  0.56477871655E+02 -0.40833679859E+02  0.25950102055E+03  0.92636969503E+03  0.88654548264E+03 0.  0.
         24    2    4    4    0    0  0.21602909823E+03  0.34367671519E+03  0.14528773725E+03  0.43843584917E+03  0.79594041173E+02 0.  0.
         11    1    3    3    0    0 -0.59425563338E+02  0.54037156422E+02  0.12678116937E+04  0.12703534557E+04  0.00000000000E+00 0.  1.
        -11    1    3    3    0    0  0.29476916827E+01 -0.13203476563E+02  0.35489160698E+02  0.37980273914E+02  0.00000000000E+00 0. -1.
          2    1    5    5  502    0  0.15997622311E+03  0.30834544815E+03  0.12007607077E+03  0.36754260994E+03  0.00000000000E+00 0. -1.
          1    1    4    4  503    0 -0.18259478858E+03 -0.14858158408E+03  0.34993964501E+02  0.23799563335E+03  0.00000000000E+00 0. -1.
         -4    1    4    4    0  503  0.23043562006E+02 -0.23592881098E+03  0.79219318800E+02  0.24993821251E+03  0.00000000000E+00 0.  1.
         -1    1    5    5    0  502  0.56052875124E+02  0.35331267046E+02  0.25211666476E+02  0.70893239222E+02  0.00000000000E+00 0.  1.
<mgrwt>
<rscale>  0 0.15973571E+04</rscale>
<asrwt>0</asrwt>
<pdfrwt beam="1">  1        2 0.51684736E-01 0.15973571E+04</pdfrwt>
<pdfrwt beam="2">  1       -2 0.29211579E+00 0.15973571E+04</pdfrwt>
<totfact> 0.33037998E+00</totfact>
</mgrwt>
</event>
<event>
11    1  0.2502641E-008  0.1770631E+04  0.7818608E-02  0.8722075E-01
          2   -1    0    0  501    0  0.00000000000E+00  0.00000000000E+00  0.10063582907E+04  0.10063582907E+04  0.00000000000E+00 0. -1.
         -2   -1    0    0    0  501 -0.00000000000E+00 -0.00000000000E+00 -0.77883188264E+03  0.77883188264E+03  0.00000000000E+00 0.  1.
         23    2    1    2    0    0 -0.48390927216E+03  0.57882549052E+01 -0.34992816785E+03  0.60393347840E+03  0.89912380153E+02 0.  0.
        254    2    1    2    0    0  0.48390927216E+03 -0.57882549052E+01  0.57745457591E+03  0.11812566949E+04  0.90978673573E+03 0.  0.
         24    2    4    4    0    0 -0.25375016530E+02  0.37125741177E+03  0.25718189626E+03  0.45913589347E+03  0.78659288394E+02 0.  0.
         11    1    3    3    0    0 -0.60269346141E+02  0.22716057122E+02 -0.22443927102E+02  0.68206621373E+02  0.00000000000E+00 0. -1.
        -11    1    3    3    0    0 -0.42363992602E+03 -0.16927802217E+02 -0.32748424075E+03  0.53572685703E+03  0.00000000000E+00 0.  1.
          4    1    5    5  502    0  0.15436982445E+02  0.61955342089E+02  0.72419940529E+02  0.96547463077E+02  0.00000000000E+00 0. -1.
          3    1    4    4  503    0  0.20951998319E+03 -0.10755672029E+03  0.17590880928E+03  0.29395744696E+03  0.00000000000E+00 0. -1.
         -4    1    4    4    0  503  0.29976430549E+03 -0.26948894638E+03  0.14436387037E+03  0.42816335450E+03  0.00000000000E+00 0.  1.
         -3    1    5    5    0  502 -0.40811998975E+02  0.30930206968E+03  0.18476195573E+03  0.36258843039E+03  0.00000000000E+00 0.  1.
<mgrwt>
<rscale>  0 0.17706314E+04</rscale>
<asrwt>0</asrwt>
<pdfrwt beam="1">  1        2 0.15482435E+00 0.17706314E+04</pdfrwt>
<pdfrwt beam="2">  1       -2 0.11982029E+00 0.17706314E+04</pdfrwt>
<totfact> 0.12585701E+01</totfact>
</mgrwt>
</event>
<event>
12    1  0.2502641E-008  0.1872341E+04  0.7818608E-02  0.8668748E-01
         -2   -1    0    0    0  501 -0.00000000000E+00  0.00000000000E+00  0.86371631955E+03  0.86371631955E+03  0.00000000000E+00 0. -1.
          2   -1    0    0  501    0  0.00000000000E+00 -0.00000000000E+00 -0.10147029349E+04  0.10147029349E+04  0.00000000000E+00 0.  1.
         23    2    1    2    0    0 -0.30678690535E+03 -0.62071983119E+03 -0.23760007111E+03  0.73752062593E+03  0.89841893110E+02 0.  0.
        254    2    1    2    0    0  0.30678690535E+03  0.62071983119E+03  0.86613455740E+02  0.11408986285E+04  0.90262753989E+03 0.  0.
        -24    2    4    4    0    0  0.47934804974E+03  0.74557062405E+03 -0.13273380972E+02  0.89257353195E+03  0.10421717258E+03 0.  0.
         24    2    4    4    0    0 -0.17256114439E+03 -0.12485079286E+03  0.99886836712E+02  0.24832509660E+03  0.79516692724E+02 0.  0.
         13    1    3    3    0    0 -0.16864352737E+03 -0.42005202976E+03 -0.12807419840E+03  0.47041189114E+03  0.00000000000E+00 0. -1.
        -13    1    3    3    0    0 -0.13814337797E+03 -0.20066780143E+03 -0.10952587271E+03  0.26710873479E+03  0.00000000000E+00 0.  1.
          4    1    6    6  502    0 -0.83897094238E+02 -0.23090513134E+02  0.65868831665E+02  0.10913568254E+03  0.00000000000E+00 0. -1.
          1    1    5    5  503    0  0.11986280232E+03  0.18903269975E+03 -0.48757922348E+02  0.22908030895E+03  0.00000000000E+00 0. -1.
         -2    1    5    5    0  503  0.35948524741E+03  0.55653792429E+03  0.35484541377E+02  0.66349322300E+03  0.00000000000E+00 0.  1.
         -3    1    6    6    0  502 -0.88664050153E+02 -0.10176027972E+03  0.34018005047E+02  0.13918941406E+03  0.00000000000E+00 0.  1.
<mgrwt>
<rscale>  0 0.18723413E+04</rscale>
<asrwt>0</asrwt>
<pdfrwt beam="1">  1        2 0.15610814E+00 0.18723413E+04</pdfrwt>
<pdfrwt beam="2">  1       -2 0.13287943E+00 0.18723413E+04</pdfrwt>
<totfact> 0.95034657E+00</totfact>
</mgrwt>
</event>
<event>
12    1  0.2502641E-008  0.1122383E+04  0.7818608E-02  0.9183646E-01
         -1   -1    0    0    0  501 -0.00000000000E+00  0.00000000000E+00  0.46976195753E+03  0.46976195753E+03  0.00000000000E+00 0.  1.
          1   -1    0    0  501    0  0.00000000000E+00 -0.00000000000E+00 -0.67041629502E+03  0.67041629502E+03  0.00000000000E+00 0. -1.
         23    2    1    2    0    0  0.66689151173E+02 -0.60273373957E+02  0.11907356560E+03  0.17858397637E+03  0.98149885881E+02 0.  0.
        254    2    1    2    0    0 -0.66689151173E+02  0.60273373957E+02 -0.31972790309E+03  0.96159427619E+03  0.90241747406E+03 0.  0.
        -24    2    4    4    0    0 -0.39642574916E+03 -0.16454001786E+03  0.15810407958E+02  0.43409785843E+03  0.62961810752E+02 0.  0.
         24    2    4    4    0    0  0.32973659799E+03  0.22481339182E+03 -0.33553831104E+03  0.52749641776E+03  0.79995170969E+02 0.  0.
         11    1    3    3    0    0  0.72323893011E+02 -0.82132228892E+02  0.10668863996E+03  0.15283623399E+03  0.00000000000E+00 0.  1.
        -11    1    3    3    0    0 -0.56347418373E+01  0.21858854935E+02  0.12384925640E+02  0.25747742381E+02  0.00000000000E+00 0. -1.
          4    1    6    6  502    0  0.21859004012E+03  0.18107694762E+03 -0.20232559621E+03  0.34857727046E+03  0.00000000000E+00 0. -1.
          3    1    5    5  503    0 -0.16318066925E+03 -0.49760688516E+02  0.32254397595E+02  0.17362143619E+03  0.00000000000E+00 0. -1.
         -4    1    5    5    0  503 -0.23324507991E+03 -0.11477932935E+03 -0.16443989637E+02  0.26047642224E+03  0.00000000000E+00 0.  1.
         -3    1    6    6    0  502  0.11114655787E+03  0.43736444195E+02 -0.13321271484E+03  0.17891914730E+03  0.00000000000E+00 0.  1.
<mgrwt>
<rscale>  0 0.11223833E+04</rscale>
<asrwt>0</asrwt>
<pdfrwt beam="1">  1        1 0.10314097E+00 0.11223833E+04</pdfrwt>
<pdfrwt beam="2">  1       -1 0.72271070E-01 0.11223833E+04</pdfrwt>
<totfact> 0.55917032E+01</totfact>
</mgrwt>
</event>
<event>
11    1  0.2502641E-008  0.2237636E+04  0.7818608E-02  0.8502925E-01
          2   -1    0    0  501    0  0.00000000000E+00  0.00000000000E+00  0.29984488927E+04  0.29984488927E+04  0.00000000000E+00 0. -1.
         -2   -1    0    0    0  501 -0.00000000000E+00 -0.00000000000E+00 -0.41746700961E+03  0.41746700961E+03  0.00000000000E+00 0.  1.
         23    2    1    2    0    0  0.60366521897E+03 -0.37723338979E+03  0.15908108114E+03  0.73559799340E+03  0.95293706796E+02 0.  0.
        254    2    1    2    0    0 -0.60366521897E+03  0.37723338979E+03  0.24219008019E+04  0.26803179089E+04  0.90099049462E+03 0.  0.
         24    2    4    4    0    0  0.18760681489E+03 -0.85106804524E+02  0.47433787612E+03  0.52342158937E+03  0.80834734687E+02 0.  0.
         11    1    3    3    0    0  0.20679547460E+03 -0.11160103242E+03  0.95851135152E+01  0.23518297802E+03  0.00000000000E+00 0. -1.
        -11    1    3    3    0    0  0.39686974437E+03 -0.26563235737E+03  0.14949596763E+03  0.50041501538E+03  0.00000000000E+00 0.  1.
          2    1    5    5  502    0  0.55928289960E+02 -0.68397380266E+02  0.17840166605E+03  0.19908121382E+03  0.00000000000E+00 0. -1.
          3    1    4    4  503    0 -0.30897849970E+03  0.25737950560E+03  0.80258576164E+03  0.89769472983E+03  0.00000000000E+00 0. -1.
         -4    1    4    4    0  503 -0.48229353416E+03  0.20496068871E+03  0.11449771642E+04  0.12592015897E+04  0.00000000000E+00 0.  1.
         -1    1    5    5    0  502  0.13167852493E+03 -0.16709424258E+02  0.29593621007E+03  0.32434037556E+03  0.00000000000E+00 0.  1.
<mgrwt>
<rscale>  0 0.22376358E+04</rscale>
<asrwt>0</asrwt>
<pdfrwt beam="1">  1        2 0.46129982E+00 0.22376358E+04</pdfrwt>
<pdfrwt beam="2">  1       -2 0.64225696E-01 0.22376358E+04</pdfrwt>
<totfact> 0.35658747E+00</totfact>
</mgrwt>
</event>
<event>
12    1  0.2502641E-008  0.1384441E+04  0.7818608E-02  0.8965158E-01
         -1   -1    0    0    0  501 -0.00000000000E+00  0.00000000000E+00  0.21372650668E+03  0.21372650668E+03  0.00000000000E+00 0.  1.
          1   -1    0    0  501    0  0.00000000000E+00 -0.00000000000E+00 -0.22419741891E+04  0.22419741891E+04  0.00000000000E+00 0. -1.
         23    2    1    2    0    0  0.33964939153E+03  0.91643886575E+02 -0.27813428776E+03  0.45725286080E+03  0.89225475971E+02 0.  0.
        254    2    1    2    0    0 -0.33964939153E+03 -0.91643886575E+02 -0.17501133946E+04  0.19984478350E+04  0.89840778260E+03 0.  0.
        -24    2    4    4    0    0 -0.46899180299E+03 -0.39875515370E+03 -0.11223315784E+04  0.12833420701E+04  0.91540772851E+02 0.  0.
         24    2    4    4    0    0  0.12934241146E+03  0.30711126712E+03 -0.62778181624E+03  0.71510576488E+03  0.78863530014E+02 0.  0.
         11    1    3    3    0    0  0.14660993608E+03  0.51539810223E+02 -0.17742032979E+03  0.23585758164E+03  0.00000000000E+00 0. -1.
        -11    1    3    3    0    0  0.19303945545E+03  0.40104076352E+02 -0.10071395797E+03  0.22139527916E+03  0.00000000000E+00 0.  1.
          4    1    6    6  502    0  0.10211327470E+03  0.23273369733E+03 -0.54033261558E+03  0.59711927636E+03  0.00000000000E+00 0. -1.
          1    1    5    5  503    0 -0.46177364348E+03 -0.37649640663E+03 -0.11000150933E+04  0.12510066537E+04  0.00000000000E+00 0. -1.
         -2    1    5    5    0  503 -0.72181595076E+01 -0.22258747064E+02 -0.22316485090E+02  0.32335416409E+02  0.00000000000E+00 0.  1.
         -3    1    6    6    0  502  0.27229136756E+02  0.74377569791E+02 -0.87449200662E+02  0.11798648852E+03  0.00000000000E+00 0.  1.
<mgrwt>
<rscale>  0 0.13844411E+04</rscale>
<asrwt>0</asrwt>
<pdfrwt beam="1">  1        1 0.34491909E+00 0.13844411E+04</pdfrwt>
<pdfrwt beam="2">  1       -1 0.32881003E-01 0.13844411E+04</pdfrwt>
<totfact> 0.17309487E+01</totfact>
</mgrwt>
</event>
<event>
12    1  0.2502641E-008  0.1634883E+04  0.7818608E-02  0.8799400E-01
         -2   -1    0    0    0  501 -0.00000000000E+00  0.00000000000E+00  0.36422580585E+03  0.36422580585E+03  0.00000000000E+00 0.  1.
          2   -1    0    0  501    0  0.00000000000E+00 -0.00000000000E+00 -0.18346045732E+04  0.18346045732E+04  0.00000000000E+00 0. -1.
         23    2    1    2    0    0  0.75382622954E+02  0.57265239452E+02 -0.12657982832E+04  0.12726174556E+04  0.91367647367E+02 0.  0.
        254    2    1    2    0    0 -0.75382622954E+02 -0.57265239452E+02 -0.20458048414E+03  0.92621292346E+03  0.89836259806E+03 0.  0.
        -24    2    4    4    0    0 -0.18110830816E+03  0.38402164777E+03 -0.54191943144E+02  0.44166362429E+03  0.10889051880E+03 0.  0.
         24    2    4    4    0    0  0.10572568520E+03 -0.44128688722E+03 -0.15038854100E+03  0.48454929917E+03  0.79115565551E+02 0.  0.
         11    1    3    3    0    0  0.81955739428E+02  0.12847751291E+02 -0.95441558154E+03  0.95801404490E+03  0.00000000000E+00 0. -1.
        -11    1    3    3    0    0 -0.65731164740E+01  0.44417488161E+02 -0.31138270171E+03  0.31460341072E+03  0.00000000000E+00 0.  1.
          2    1    6    6  502    0  0.10133412075E+03 -0.32761090190E+03 -0.84873119297E+02  0.35327178412E+03  0.00000000000E+00 0. -1.
          1    1    5    5  503    0 -0.19165756530E+03  0.31666385022E+03 -0.46053049614E+02  0.37300066990E+03  0.00000000000E+00 0. -1.
         -2    1    5    5    0  503  0.10549257144E+02  0.67357797555E+02 -0.81388935296E+01  0.68662954390E+02  0.00000000000E+00 0.  1.
         -1    1    6    6    0  502  0.43915644532E+01 -0.11367598532E+03 -0.65515421703E+02  0.13127751505E+03  0.00000000000E+00 0.  1.
<mgrwt>
<rscale>  0 0.16348827E+04</rscale>
<asrwt>0</asrwt>
<pdfrwt beam="1">  1        2 0.28224686E+00 0.16348827E+04</pdfrwt>
<pdfrwt beam="2">  1       -2 0.56034739E-01 0.16348827E+04</pdfrwt>
<totfact> 0.23609340E+01</totfact>
</mgrwt>
</event>
<event>
12    1  0.2502641E-008  0.2916347E+04  0.7818608E-02  0.8268030E-01
          1   -1    0    0  501    0  0.00000000000E+00  0.00000000000E+00  0.16575481878E+04  0.16575481878E+04  0.00000000000E+00 0. -1.
         -1   -1    0    0    0  501 -0.00000000000E+00 -0.00000000000E+00 -0.12827802554E+04  0.12827802554E+04  0.00000000000E+00 0.  1.
         23    2    1    2    0    0  0.80557893478E+03  0.32505554245E+03 -0.83160434162E+03  0.12060611359E+04  0.91646913122E+02 0.  0.
        254    2    1    2    0    0 -0.80557893478E+03 -0.32505554245E+03  0.12063722740E+04  0.17342673073E+04  0.89315760312E+03 0.  0.
        -24    2    4    4    0    0 -0.75252068886E+03 -0.57537516892E+02  0.35517684177E+03  0.83655216074E+03  0.63804198126E+02 0.  0.
         24    2    4    4    0    0 -0.53058245918E+02 -0.26751802556E+03  0.85119543218E+03  0.89771514657E+03  0.83532922583E+02 0.  0.
         13    1    3    3    0    0  0.75487819486E+02  0.95651607694E+01 -0.97824255130E+02  0.12393340181E+03  0.00000000000E+00 0. -1.
        -13    1    3    3    0    0  0.73009111529E+03  0.31549038169E+03 -0.73378008649E+03  0.10821277341E+04  0.00000000000E+00 0.  1.
          4    1    6    6  502    0  0.72489020482E+00 -0.13732057222E+02  0.89136616140E+01  0.16387441067E+02  0.00000000000E+00 0. -1.
          1    1    5    5  503    0 -0.11246378329E+03 -0.31428040766E+02  0.51390640801E+02  0.12758065003E+03  0.00000000000E+00 0. -1.
         -2    1    5    5    0  503 -0.64005690557E+03 -0.26109476127E+02  0.30378620097E+03  0.70897151071E+03  0.00000000000E+00 0.  1.
         -3    1    6    6    0  502 -0.53783136123E+02 -0.25378596834E+03  0.84228177057E+03  0.88132770550E+03  0.00000000000E+00 0.  1.
<mgrwt>
<rscale>  0 0.29163471E+04</rscale>
<asrwt>0</asrwt>
<pdfrwt beam="1">  1        1 0.25500741E+00 0.29163471E+04</pdfrwt>
<pdfrwt beam="2">  1       -1 0.19735081E+00 0.29163471E+04</pdfrwt>
<totfact> 0.68571952E-01</totfact>
</mgrwt>
</event>
<event>
11    1  0.2502641E-008  0.1566876E+04  0.7818608E-02  0.8841160E-01
          2   -1    0    0  501    0  0.00000000000E+00  0.00000000000E+00  0.82594621327E+03  0.82594621327E+03  0.00000000000E+00 0.  1.
         -2   -1    0    0    0  501 -0.00000000000E+00 -0.00000000000E+00 -0.74311725452E+03  0.74311725452E+03  0.00000000000E+00 0. -1.
         23    2    1    2    0    0  0.29742942044E+03  0.35364890627E+02 -0.39200806561E+03  0.50102246587E+03  0.87397094738E+02 0.  0.
        254    2    1    2    0    0 -0.29742942044E+03 -0.35364890627E+02  0.47483702436E+03  0.10680410019E+04  0.90858485924E+03 0.  0.
         24    2    4    4    0    0  0.11206960545E+03 -0.18903478572E+03  0.51947269274E+03  0.56956959556E+03  0.79144797690E+02 0.  0.
         13    1    3    3    0    0  0.24897980546E+03 -0.48828241340E+01 -0.31337784015E+03  0.40027547539E+03  0.00000000000E+00 0. -1.
        -13    1    3    3    0    0  0.48449614980E+02  0.40247714761E+02 -0.78630225456E+02  0.10074699048E+03  0.00000000000E+00 0.  1.
          2    1    5    5  502    0  0.22973733528E+02 -0.58834274553E+02  0.75709460863E+02  0.98596078819E+02  0.00000000000E+00 0. -1.
          3    1    4    4  503    0 -0.40830434559E+03  0.91650641726E+02 -0.81480770169E+02  0.42632311064E+03  0.00000000000E+00 0. -1.
         -4    1    4    4    0  503 -0.11946803006E+01  0.62019253371E+02  0.36845101791E+02  0.72148295723E+02  0.00000000000E+00 0.  1.
         -1    1    5    5    0  502  0.89095871920E+02 -0.13020051117E+03  0.44376323188E+03  0.47097351674E+03  0.00000000000E+00 0.  1.
<mgrwt>
<rscale>  0 0.15668757E+04</rscale>
<asrwt>0</asrwt>
<pdfrwt beam="1">  1        2 0.12706865E+00 0.15668757E+04</pdfrwt>
<pdfrwt beam="2">  1       -2 0.11432573E+00 0.15668757E+04</pdfrwt>
<totfact> 0.18978689E+01</totfact>
</mgrwt>
</event>
<event>
12    1  0.2502641E-008  0.1533692E+04  0.7818608E-02  0.8862352E-01
         -1   -1    0    0    0  501 -0.00000000000E+00  0.00000000000E+00  0.91665756092E+03  0.91665756092E+03  0.00000000000E+00 0.  1.
          1   -1    0    0  501    0  0.00000000000E+00 -0.00000000000E+00 -0.64151849024E+03  0.64151849024E+03  0.00000000000E+00 0. -1.
         23    2    1    2    0    0 -0.24025592426E+03  0.44848229390E+02  0.52528330665E+03  0.58652716304E+03  0.91418203376E+02 0.  0.
        254    2    1    2    0    0  0.24025592426E+03 -0.44848229390E+02 -0.25014423598E+03  0.97164888813E+03  0.90652917779E+03 0.  0.
        -24    2    4    4    0    0  0.13015120013E+03 -0.88252690909E+02 -0.58260868370E+03  0.61110133011E+03  0.96353956781E+02 0.  0.
         24    2    4    4    0    0  0.11010472413E+03  0.43404461519E+02  0.33246444772E+03  0.36054755802E+03  0.73857532061E+02 0.  0.
         13    1    3    3    0    0 -0.14515996079E+03 -0.63310913306E+01  0.22931229044E+03  0.27146937853E+03  0.00000000000E+00 0. -1.
        -13    1    3    3    0    0 -0.95095963468E+02  0.51179320721E+02  0.29597101621E+03  0.31505778450E+03  0.00000000000E+00 0.  1.
          2    1    6    6  502    0  0.10774791349E+03  0.13799939492E+02  0.24019681483E+03  0.26361821076E+03  0.00000000000E+00 0. -1.
          1    1    5    5  503    0  0.13761971503E+03 -0.57275628212E+02 -0.51863234526E+03  0.53962875489E+03  0.00000000000E+00 0. -1.
         -2    1    5    5    0  503 -0.74685148993E+01 -0.30977062698E+02 -0.63976338435E+02  0.71472575214E+02  0.00000000000E+00 0.  1.
         -1    1    6    6    0  502  0.23568106402E+01  0.29604522027E+02  0.92267632895E+02  0.96929347263E+02  0.00000000000E+00 0.  1.
<mgrwt>
<rscale>  0 0.15336920E+04</rscale>
<asrwt>0</asrwt>
<pdfrwt beam="1">  1        1 0.98695152E-01 0.15336920E+04</pdfrwt>
<pdfrwt beam="2">  1       -1 0.14102424E+00 0.15336920E+04</pdfrwt>
<totfact> 0.12321690E+01</totfact>
</mgrwt>
</event>
<event>
12    1  0.2502641E-008  0.1456209E+04  0.7818608E-02  0.8914107E-01
          2   -1    0    0  501    0  0.00000000000E+00  0.00000000000E+00  0.18257346976E+04  0.18257346976E+04  0.00000000000E+00 0. -1.
         -2   -1    0    0    0  501 -0.00000000000E+00 -0.00000000000E+00 -0.29036885489E+03  0.29036885489E+03  0.00000000000E+00 0.  1.
         23    2    1    2    0    0 -0.45769675474E+02  0.89567191766E+02  0.11260526931E+04  0.11340697257E+04  0.89455742893E+02 0.  0.
        254    2    1    2    0    0  0.45769675474E+02 -0.89567191766E+02  0.40931314958E+03  0.98203382682E+03  0.88698141895E+03 0.  0.
        -24    2    4    4    0    0  0.20586168195E+01  0.38561053985E+03  0.26188103505E+03  0.47668288263E+03  0.99725461771E+02 0.  0.
         24    2    4    4    0    0  0.43711058655E+02 -0.47517773162E+03  0.14743211453E+03  0.50535094419E+03  0.77063708197E+02 0.  0.
         13    1    3    3    0    0  0.48933615385E+01  0.66550391652E+02  0.36979525175E+03  0.37576778446E+03  0.00000000000E+00 0.  1.
        -13    1    3    3    0    0 -0.50663037013E+02  0.23016800115E+02  0.75625744136E+03  0.75830194120E+03  0.00000000000E+00 0. -1.
          2    1    6    6  502    0 -0.13999043479E+02 -0.19996766185E+02  0.10072767735E+02  0.26406524308E+02  0.00000000000E+00 0. -1.
          3    1    5    5  503    0  0.18851308275E+02  0.19999161863E+02  0.15181232357E+01  0.27525315567E+02  0.00000000000E+00 0. -1.
         -4    1    5    5    0  503 -0.16792691456E+02  0.36561137799E+03  0.26036291182E+03  0.44915756706E+03  0.00000000000E+00 0.  1.
         -1    1    6    6    0  502  0.57710102134E+02 -0.45518096543E+03  0.13735934679E+03  0.47894441988E+03  0.00000000000E+00 0.  1.
<mgrwt>
<rscale>  0 0.14562095E+04</rscale>
<asrwt>0</asrwt>
<pdfrwt beam="1">  1        2 0.28088226E+00 0.14562095E+04</pdfrwt>
<pdfrwt beam="2">  1       -2 0.44672132E-01 0.14562095E+04</pdfrwt>
<totfact> 0.38464037E+01</totfact>
</mgrwt>
</event>
<event>
12    1  0.2502641E-008  0.1797066E+04  0.7818608E-02  0.8707861E-01
          2   -1    0    0  501    0  0.00000000000E+00  0.00000000000E+00  0.10076321744E+04  0.10076321744E+04  0.00000000000E+00 0. -1.
         -2   -1    0    0    0  501 -0.00000000000E+00 -0.00000000000E+00 -0.80124606370E+03  0.80124606370E+03  0.00000000000E+00 0.  1.
         23    2    1    2    0    0 -0.46319633122E+03 -0.25012748091E+03 -0.33810762128E+03  0.63240281783E+03  0.92206086951E+02 0.  0.
        254    2    1    2    0    0  0.46319633122E+03  0.25012748091E+03  0.54449373196E+03  0.11764754203E+04  0.90028128514E+03 0.  0.
        -24    2    4    4    0    0  0.62245431482E+03  0.41357855084E+03  0.55350560121E+03  0.93549453407E+03  0.10141489515E+03 0.  0.
         24    2    4    4    0    0 -0.15925798360E+03 -0.16345106992E+03 -0.90118692511E+01  0.24098088619E+03  0.76884433541E+02 0.  0.
         11    1    3    3    0    0 -0.14209745188E+03 -0.48391863577E+02 -0.13667717676E+03  0.20301258321E+03  0.00000000000E+00 0.  1.
        -11    1    3    3    0    0 -0.32109887934E+03 -0.20173561734E+03 -0.20143044451E+03  0.42939023462E+03  0.00000000000E+00 0. -1.
          2    1    6    6  502    0 -0.15754327764E+03 -0.12191426153E+03 -0.59181118373E+01  0.19929374185E+03  0.00000000000E+00 0. -1.
          3    1    5    5  503    0  0.60488241299E+03  0.41834640196E+03  0.53444890244E+03  0.90913809451E+03  0.00000000000E+00 0. -1.
         -2    1    5    5    0  503  0.17571901833E+02 -0.47678511204E+01  0.19056698771E+02  0.26356439562E+02  0.00000000000E+00 0.  1.
         -1    1    6    6    0  502 -0.17147059625E+01 -0.41536808393E+02 -0.30937574137E+01  0.41687144337E+02  0.00000000000E+00 0.  1.
<mgrwt>
<rscale>  0 0.17970657E+04</rscale>
<asrwt>0</asrwt>
<pdfrwt beam="1">  1        2 0.15502033E+00 0.17970657E+04</pdfrwt>
<pdfrwt beam="2">  1       -2 0.12326863E+00 0.17970657E+04</pdfrwt>
<totfact> 0.11678560E+01</totfact>
</mgrwt>
</event>
<event>
12    1  0.2502641E-008  0.2835406E+04  0.7818608E-02  0.8292360E-01
          1   -1    0    0  501    0  0.00000000000E+00  0.00000000000E+00  0.89415888914E+03  0.89415888914E+03  0.00000000000E+00 0. -1.
         -1   -1    0    0    0  501 -0.00000000000E+00 -0.00000000000E+00 -0.22477909090E+04  0.22477909090E+04  0.00000000000E+00 0.  1.
         23    2    1    2    0    0  0.47520486579E+03 -0.74874850754E+03  0.40218984317E+03  0.97807931058E+03  0.91861176921E+02 0.  0.
        254    2    1    2    0    0 -0.47520486579E+03  0.74874850754E+03 -0.17558218631E+04  0.21638704876E+04  0.90165463468E+03 0.  0.
        -24    2    4    4    0    0 -0.30090414498E+03  0.90727945442E+03 -0.16118402652E+04  0.18770547810E+04  0.10773252756E+03 0.  0.
         24    2    4    4    0    0 -0.17430072081E+03 -0.15853094689E+03 -0.14398159786E+03  0.28681570658E+03  0.77587026115E+02 0.  0.
         11    1    3    3    0    0  0.45528537008E+03 -0.72413710466E+03  0.36710460586E+03  0.93081958842E+03  0.00000000000E+00 0. -1.
        -11    1    3    3    0    0  0.19919495714E+02 -0.24611402879E+02  0.35085237312E+02  0.47259722158E+02  0.00000000000E+00 0.  1.
          2    1    6    6  502    0 -0.95990726685E+02 -0.12906205640E+03 -0.11701466217E+03  0.19890617179E+03  0.00000000000E+00 0. -1.
          3    1    5    5  503    0 -0.17055543594E+03  0.40967510523E+03 -0.66413824757E+03  0.79875056210E+03  0.00000000000E+00 0. -1.
         -4    1    5    5    0  503 -0.13034870904E+03  0.49760434919E+03 -0.94770201765E+03  0.10783042189E+04  0.00000000000E+00 0.  1.
         -1    1    6    6    0  502 -0.78309994129E+02 -0.29468890483E+02 -0.26966935689E+02  0.87909534791E+02  0.00000000000E+00 0.  1.
<mgrwt>
<rscale>  0 0.28354063E+04</rscale>
<asrwt>0</asrwt>
<pdfrwt beam="1">  1        1 0.13756291E+00 0.28354063E+04</pdfrwt>
<pdfrwt beam="2">  1       -1 0.34581398E+00 0.28354063E+04</pdfrwt>
<totfact> 0.26297804E-01</totfact>
</mgrwt>
</event>
<event>
11    1  0.2502641E-008  0.1920553E+04  0.7818608E-02  0.8644693E-01
          1   -1    0    0  501    0  0.00000000000E+00  0.00000000000E+00  0.11566266798E+04  0.11566266798E+04  0.00000000000E+00 0. -1.
         -1   -1    0    0    0  501 -0.00000000000E+00 -0.00000000000E+00 -0.79725879818E+03  0.79725879818E+03  0.00000000000E+00 0.  1.
         23    2    1    2    0    0 -0.43191886021E+03  0.17458109450E+03 -0.44972911715E+03  0.65378929077E+03  0.90286751787E+02 0.  0.
        254    2    1    2    0    0  0.43191886021E+03 -0.17458109450E+03  0.80909699881E+03  0.13000961873E+04  0.90475393466E+03 0.  0.
         24    2    4    4    0    0 -0.26691846415E+03  0.27170941427E+02  0.21903136760E+03  0.35425424274E+03  0.74415065328E+02 0.  0.
         11    1    3    3    0    0 -0.17140864339E+02 -0.10752896681E+02 -0.19288575994E+02  0.27955020680E+02  0.00000000000E+00 0. -1.
        -11    1    3    3    0    0 -0.41477799587E+03  0.18533399118E+03 -0.43044054115E+03  0.62583427009E+03  0.00000000000E+00 0.  1.
          2    1    5    5  502    0 -0.23094252701E+03  0.33768155319E+00  0.16404104783E+03  0.28327377249E+03  0.00000000000E+00 0. -1.
          3    1    4    4  503    0  0.28317733220E+03 -0.40303597394E+02  0.16724787225E+03  0.33133914982E+03  0.00000000000E+00 0. -1.
         -4    1    4    4    0  503  0.41565999216E+03 -0.16144843853E+03  0.42281775897E+03  0.61450279469E+03  0.00000000000E+00 0.  1.
         -1    1    5    5    0  502 -0.35975937141E+02  0.26833259874E+02  0.54990319767E+02  0.70980470249E+02  0.00000000000E+00 0.  1.
<mgrwt>
<rscale>  0 0.19205528E+04</rscale>
<asrwt>0</asrwt>
<pdfrwt beam="1">  1        1 0.17794257E+00 0.19205528E+04</pdfrwt>
<pdfrwt beam="2">  1       -1 0.12265520E+00 0.19205528E+04</pdfrwt>
<totfact> 0.63017581E+00</totfact>
</mgrwt>
</event>
<event>
11    1  0.2502641E-008  0.3089947E+04  0.7818608E-02  0.8218502E-01
          1   -1    0    0  501    0  0.00000000000E+00  0.00000000000E+00  0.80502950866E+03  0.80502950866E+03  0.00000000000E+00 0. -1.
         -1   -1    0    0    0  501 -0.00000000000E+00 -0.00000000000E+00 -0.29650379518E+04  0.29650379518E+04  0.00000000000E+00 0.  1.
         23    2    1    2    0    0 -0.78769247573E+03 -0.41496635008E+03  0.34748514761E+03  0.95973403203E+03  0.87675403715E+02 0.  0.
        254    2    1    2    0    0  0.78769247573E+03  0.41496635008E+03 -0.25074935908E+04  0.28103334285E+04  0.90431928168E+03 0.  0.
         24    2    4    4    0    0  0.55971203380E+03 -0.16845548772E+03 -0.15494098642E+04  0.16579637727E+04  0.80734951099E+02 0.  0.
         11    1    3    3    0    0 -0.76500541351E+02 -0.70274826650E+02  0.49917406041E+02  0.11525029941E+03  0.00000000000E+00 0.  1.
        -11    1    3    3    0    0 -0.71119193438E+03 -0.34469152343E+03  0.29756774157E+03  0.84448373263E+03  0.00000000000E+00 0. -1.
          2    1    5    5  502    0  0.10144454103E+03 -0.29622144530E+02 -0.37721506922E+03  0.39173929442E+03  0.00000000000E+00 0. -1.
          1    1    4    4  503    0 -0.16463110767E+02  0.20623215658E+02 -0.47663065586E+02  0.54480444760E+02  0.00000000000E+00 0. -1.
         -2    1    4    4    0  503  0.24444355269E+03  0.56279862214E+03 -0.91042066102E+03  0.10978892110E+04  0.00000000000E+00 0.  1.
         -1    1    5    5    0  502  0.45826749278E+03 -0.13883334319E+03 -0.11721947950E+04  0.12662244783E+04  0.00000000000E+00 0.  1.
<mgrwt>
<rscale>  0 0.30899470E+04</rscale>
<asrwt>0</asrwt>
<pdfrwt beam="1">  1        1 0.12385069E+00 0.30899470E+04</pdfrwt>
<pdfrwt beam="2">  1       -1 0.45615969E+00 0.30899470E+04</pdfrwt>
<totfact> 0.54180757E-02</totfact>
</mgrwt>
</event>
<event>
12    1  0.2502641E-008  0.1833001E+04  0.7818608E-02  0.8688944E-01
          2   -1    0    0  501    0  0.00000000000E+00  0.00000000000E+00  0.60097494610E+03  0.60097494610E+03  0.00000000000E+00 0. -1.
         -2   -1    0    0    0  501 -0.00000000000E+00 -0.00000000000E+00 -0.13976849147E+04  0.13976849147E+04  0.00000000000E+00 0.  1.
         23    2    1    2    0    0  0.43289769133E+03  0.41963370055E+03  0.71219349739E+02  0.61454291417E+03  0.95383142021E+02 0.  0.
        254    2    1    2    0    0 -0.43289769133E+03 -0.41963370055E+03 -0.86792931831E+03  0.13841169466E+04  0.89385992556E+03 0.  0.
        -24    2    4    4    0    0  0.20839225825E+03 -0.29087670844E+03 -0.11112931445E+03  0.38032474603E+03  0.65273234164E+02 0.  0.
         24    2    4    4    0    0 -0.64128994958E+03 -0.12875699210E+03 -0.75680000386E+03  0.10037922006E+04  0.83793637353E+02 0.  0.
         11    1    3    3    0    0  0.41551227248E+03  0.39743402546E+03  0.46181017062E+02  0.57683354576E+03  0.00000000000E+00 0.  1.
        -11    1    3    3    0    0  0.17385418848E+02  0.22199675093E+02  0.25038332677E+02  0.37709368411E+02  0.00000000000E+00 0. -1.
          4    1    6    6  502    0 -0.64132272248E+03 -0.12370974946E+03 -0.74391436717E+03  0.98995329292E+03  0.00000000000E+00 0. -1.
          1    1    5    5  503    0  0.19955541312E+03 -0.29057359100E+03 -0.11484254814E+03  0.37073465653E+03  0.00000000000E+00 0. -1.
         -2    1    5    5    0  503  0.88368451361E+01 -0.30311744567E+00  0.37132336921E+01  0.95900894989E+01  0.00000000000E+00 0.  1.
         -3    1    6    6    0  502  0.32772900807E-01 -0.50472426443E+01 -0.12885636694E+02  0.13838907666E+02  0.00000000000E+00 0.  1.
<mgrwt>
<rscale>  0 0.18330015E+04</rscale>
<asrwt>0</asrwt>
<pdfrwt beam="1">  1        2 0.92457684E-01 0.18330015E+04</pdfrwt>
<pdfrwt beam="2">  1       -2 0.21502845E+00 0.18330015E+04</pdfrwt>
<totfact> 0.49511129E+00</totfact>
</mgrwt>
</event>
<event>
12    1  0.2502641E-008  0.3468610E+04  0.7818608E-02  0.8121269E-01
          1   -1    0    0  501    0  0.00000000000E+00  0.00000000000E+00  0.34468806953E+04  0.34468806953E+04  0.00000000000E+00 0. -1.
         -1   -1    0    0    0  501 -0.00000000000E+00 -0.00000000000E+00 -0.87261926213E+03  0.87261926213E+03  0.00000000000E+00 0.  1.
         23    2    1    2    0    0  0.40516754169E+03 -0.11936761632E+04  0.24608950447E+04  0.27665225692E+04  0.92839567350E+02 0.  0.
        254    2    1    2    0    0 -0.40516754169E+03  0.11936761632E+04  0.11336638849E+03  0.15529773883E+04  0.89992405853E+03 0.  0.
        -24    2    4    4    0    0 -0.23960697638E+03  0.16029515207E+03  0.36882684207E+03  0.47275812641E+03  0.66037623777E+02 0.  0.
         24    2    4    4    0    0 -0.16556056531E+03  0.10333810111E+04 -0.25546045357E+03  0.10802192619E+04  0.79542413095E+02 0.  0.
         11    1    3    3    0    0  0.35620214347E+03 -0.10032742649E+04  0.21399127142E+04  0.23901183322E+04  0.00000000000E+00 0. -1.
        -11    1    3    3    0    0  0.48965398221E+02 -0.19040189833E+03  0.32098233054E+03  0.37640423700E+03  0.00000000000E+00 0.  1.
          4    1    6    6  502    0 -0.25708158662E+02  0.59420799800E+02 -0.26660311948E+02  0.70017948440E+02  0.00000000000E+00 0. -1.
          3    1    5    5  503    0 -0.81376612073E+02  0.56673186546E+02  0.79530199913E+02  0.12711827470E+03  0.00000000000E+00 0. -1.
         -4    1    5    5    0  503 -0.15823036430E+03  0.10362196553E+03  0.28929664215E+03  0.34563985171E+03  0.00000000000E+00 0.  1.
         -3    1    6    6    0  502 -0.13985240665E+03  0.97396021131E+03 -0.22880014163E+03  0.10102013134E+04  0.00000000000E+00 0.  1.
<mgrwt>
<rscale>  0 0.34686104E+04</rscale>
<asrwt>0</asrwt>
<pdfrwt beam="1">  1        1 0.53028933E+00 0.34686104E+04</pdfrwt>
<pdfrwt beam="2">  1       -1 0.13424912E+00 0.34686104E+04</pdfrwt>
<totfact> 0.10499548E-01</totfact>
</mgrwt>
</event>
<event>
11    1  0.2502641E-008  0.1138365E+04  0.7818608E-02  0.9168585E-01
         -2   -1    0    0    0  501 -0.00000000000E+00  0.00000000000E+00  0.17884025014E+03  0.17884025014E+03  0.00000000000E+00 0.  1.
          2   -1    0    0  501    0  0.00000000000E+00 -0.00000000000E+00 -0.18114976754E+04  0.18114976754E+04  0.00000000000E+00 0. -1.
         23    2    1    2    0    0  0.32217719429E+02 -0.15320497677E+03 -0.51238988785E+03  0.54350732626E+03  0.91362301728E+02 0.  0.
        254    2    1    2    0    0 -0.32217719429E+02  0.15320497677E+03 -0.11202675374E+04  0.14468305993E+04  0.90211400681E+03 0.  0.
         24    2    4    4    0    0  0.23078336645E+03  0.27798935066E+03 -0.15569077636E+03  0.40121917954E+03  0.78728462929E+02 0.  0.
         11    1    3    3    0    0  0.60776441253E+02 -0.13285268156E+03 -0.40585053501E+03  0.43134472012E+03  0.00000000000E+00 0. -1.
        -11    1    3    3    0    0 -0.28558721824E+02 -0.20352295209E+02 -0.10653935284E+03  0.11216260614E+03  0.00000000000E+00 0.  1.
          2    1    5    5  502    0  0.13310447902E+03  0.21661355722E+03 -0.10129211256E+03  0.27367558820E+03  0.00000000000E+00 0. -1.
          3    1    4    4  503    0 -0.16008788406E+03 -0.93405076821E+02 -0.90262756551E+03  0.92146034153E+03  0.00000000000E+00 0. -1.
         -4    1    4    4    0  503 -0.10291320182E+03 -0.31379297072E+02 -0.61949195555E+02  0.12415107822E+03  0.00000000000E+00 0.  1.
         -1    1    5    5    0  502  0.97678887428E+02  0.61375793444E+02 -0.54398663798E+02  0.12754359134E+03  0.00000000000E+00 0.  1.
<mgrwt>
<rscale>  0 0.11383650E+04</rscale>
<asrwt>0</asrwt>
<pdfrwt beam="1">  1        2 0.27869194E+00 0.11383650E+04</pdfrwt>
<pdfrwt beam="2">  1       -2 0.27513885E-01 0.11383650E+04</pdfrwt>
<totfact> 0.10145796E+02</totfact>
</mgrwt>
</event>
<event>
11    1  0.2502641E-008  0.1844763E+04  0.7818608E-02  0.8682851E-01
          2   -1    0    0  501    0  0.00000000000E+00  0.00000000000E+00  0.16204221140E+04  0.16204221140E+04  0.00000000000E+00 0. -1.
         -2   -1    0    0    0  501 -0.00000000000E+00 -0.00000000000E+00 -0.52504049379E+03  0.52504049379E+03  0.00000000000E+00 0.  1.
         23    2    1    2    0    0  0.13165352781E+03  0.67094352353E+03  0.27598778278E+03  0.74311153637E+03  0.92453426655E+02 0.  0.
        254    2    1    2    0    0 -0.13165352781E+03 -0.67094352353E+03  0.81939383739E+03  0.14023510714E+04  0.90977162159E+03 0.  0.
         24    2    4    4    0    0  0.17432104489E+03 -0.33247356414E+02 -0.43762197586E+02  0.19936253887E+03  0.79605769675E+02 0.  0.
         11    1    3    3    0    0  0.11523422036E+03  0.38511269950E+03  0.18658241866E+03  0.44317458841E+03  0.00000000000E+00 0. -1.
        -11    1    3    3    0    0  0.16419307450E+02  0.28583082402E+03  0.89405364117E+02  0.29993694796E+03  0.00000000000E+00 0.  1.
          4    1    5    5  502    0  0.25757765940E+02 -0.14871409809E+02 -0.39708328195E+02  0.49612222929E+02  0.00000000000E+00 0. -1.
          3    1    4    4  503    0  0.67644117025E+01  0.65392369400E+02  0.96423451292E+02  0.11670219021E+03  0.00000000000E+00 0. -1.
         -4    1    4    4    0  503 -0.31273898441E+03 -0.70308853651E+03  0.76673258368E+03  0.10862863423E+04  0.00000000000E+00 0.  1.
         -3    1    5    5    0  502  0.14856327895E+03 -0.18375946605E+02 -0.40538693909E+01  0.14975031594E+03  0.00000000000E+00 0.  1.
<mgrwt>
<rscale>  0 0.18447626E+04</rscale>
<asrwt>0</asrwt>
<pdfrwt beam="1">  1        2 0.24929571E+00 0.18447626E+04</pdfrwt>
<pdfrwt beam="2">  1       -2 0.80775461E-01 0.18447626E+04</pdfrwt>
<totfact> 0.13820145E+01</totfact>
</mgrwt>
</event>
<event>
12    1  0.2502641E-008  0.1244451E+04  0.7818608E-02  0.9074815E-01
          2   -1    0    0  501    0  0.00000000000E+00  0.00000000000E+00  0.13739914178E+04  0.13739914178E+04  0.00000000000E+00 0. -1.
         -2   -1    0    0    0  501 -0.00000000000E+00 -0.00000000000E+00 -0.28178077072E+03  0.28178077072E+03  0.00000000000E+00 0.  1.
         23    2    1    2    0    0  0.13538742765E+03 -0.23299102173E+03  0.24476270594E+03  0.37579762525E+03  0.93276476957E+02 0.  0.
        254    2    1    2    0    0 -0.13538742765E+03  0.23299102173E+03  0.84744794113E+03  0.12799745633E+04  0.92062603586E+03 0.  0.
        -24    2    4    4    0    0 -0.38859626500E+03 -0.15950344316E+03  0.19955152286E+03  0.47734436956E+03  0.10764957652E+03 0.  0.
         24    2    4    4    0    0  0.25320883736E+03  0.39249446489E+03  0.64789641827E+03  0.80263019370E+03  0.79239123853E+02 0.  0.
         13    1    3    3    0    0 -0.27181267625E+01 -0.63148458595E+02  0.79219010656E+02  0.10134479604E+03  0.00000000000E+00 0.  1.
        -13    1    3    3    0    0  0.13810555441E+03 -0.16984256314E+03  0.16554369528E+03  0.27445282920E+03  0.00000000000E+00 0. -1.
          4    1    6    6  502    0  0.21467036691E+03  0.30096103155E+03  0.55357788695E+03  0.66566461965E+03  0.00000000000E+00 0. -1.
          3    1    5    5  503    0 -0.34627021233E+03 -0.17533220168E+03  0.17307142021E+03  0.42496841928E+03  0.00000000000E+00 0. -1.
         -4    1    5    5    0  503 -0.42326052671E+02  0.15828758527E+02  0.26480102654E+02  0.52375950281E+02  0.00000000000E+00 0.  1.
         -1    1    6    6    0  502  0.38538470454E+02  0.91533433341E+02  0.94318531321E+02  0.13696557405E+03  0.00000000000E+00 0.  1.
<mgrwt>
<rscale>  0 0.12444507E+04</rscale>
<asrwt>0</asrwt>
<pdfrwt beam="1">  1        2 0.21138329E+00 0.12444507E+04</pdfrwt>
<pdfrwt beam="2">  1       -2 0.43350889E-01 0.12444507E+04</pdfrwt>
<totfact> 0.74311771E+01</totfact>
</mgrwt>
</event>
<event>
12    1  0.2502641E-008  0.1526442E+04  0.7818608E-02  0.8867057E-01
          2   -1    0    0  501    0  0.00000000000E+00  0.00000000000E+00  0.13370492783E+04  0.13370492783E+04  0.00000000000E+00 0. -1.
         -2   -1    0    0    0  501 -0.00000000000E+00 -0.00000000000E+00 -0.43566552193E+03  0.43566552193E+03  0.00000000000E+00 0.  1.
         23    2    1    2    0    0 -0.14059637368E+03  0.21711532714E+03 -0.19542551161E+03  0.33627307208E+03  0.89342279146E+02 0.  0.
        254    2    1    2    0    0  0.14059637368E+03 -0.21711532714E+03  0.10968092680E+04  0.14364417282E+04  0.89076813060E+03 0.  0.
        -24    2    4    4    0    0  0.20422587074E+03  0.27923566564E+03  0.73347831432E+03  0.81388573037E+03  0.68838806375E+02 0.  0.
         24    2    4    4    0    0 -0.63629497061E+02 -0.49635099278E+03  0.36333095368E+03  0.62255599780E+03  0.71788352609E+02 0.  0.
         13    1    3    3    0    0  0.16983438190E+01  0.31864426590E+02 -0.55381600502E+02  0.63916724945E+02  0.00000000000E+00 0. -1.
        -13    1    3    3    0    0 -0.14229471750E+03  0.18525090055E+03 -0.14004391111E+03  0.27235634713E+03  0.00000000000E+00 0.  1.
          2    1    6    6  502    0 -0.64269118586E+02 -0.49186423575E+03  0.34638712958E+03  0.60501652007E+03  0.00000000000E+00 0. -1.
          1    1    5    5  503    0  0.14933513471E+03  0.16084545749E+03  0.50764454670E+03  0.55305987872E+03  0.00000000000E+00 0. -1.
         -2    1    5    5    0  503  0.54890736033E+02  0.11839020815E+03  0.22583376763E+03  0.26082585165E+03  0.00000000000E+00 0.  1.
         -1    1    6    6    0  502  0.63962152536E+00 -0.44867570310E+01  0.16943824092E+02  0.17539477735E+02  0.00000000000E+00 0.  1.
<mgrwt>
<rscale>  0 0.15264420E+04</rscale>
<asrwt>0</asrwt>
<pdfrwt beam="1">  1        2 0.20569989E+00 0.15264420E+04</pdfrwt>
<pdfrwt beam="2">  1       -2 0.67025465E-01 0.15264420E+04</pdfrwt>
<totfact> 0.30992591E+01</totfact>
</mgrwt>
</event>
<event>
11    1  0.2502641E-008  0.1849303E+04  0.7818608E-02  0.8680511E-01
         -1   -1    0    0    0  501 -0.00000000000E+00  0.00000000000E+00  0.12262060461E+04  0.12262060461E+04  0.00000000000E+00 0.  1.
          1   -1    0    0  501    0  0.00000000000E+00 -0.00000000000E+00 -0.69725647950E+03  0.69725647950E+03  0.00000000000E+00 0. -1.
         23    2    1    2    0    0  0.91730035862E+02  0.35951468794E+03  0.81721334519E+03  0.90217293282E+03  0.91723164074E+02 0.  0.
        254    2    1    2    0    0 -0.91730035862E+02 -0.35951468794E+03 -0.28826377860E+03  0.10212895928E+04  0.90679171583E+03 0.  0.
         24    2    4    4    0    0 -0.43674961571E+03 -0.31336841764E+03 -0.35394895007E+03  0.64874527132E+03  0.81489728214E+02 0.  0.
         11    1    3    3    0    0  0.73942833923E+02  0.34334937514E+03  0.79628731440E+03  0.87030444280E+03  0.00000000000E+00 0.  1.
        -11    1    3    3    0    0  0.17787201940E+02  0.16165312808E+02  0.20926030789E+02  0.31868490011E+02  0.00000000000E+00 0. -1.
          4    1    5    5  502    0 -0.36822860125E+03 -0.28314435818E+03 -0.27443656584E+03  0.53951687556E+03  0.00000000000E+00 0. -1.
          1    1    4    4  503    0  0.31402035640E+03 -0.63516785440E+02  0.85855987965E+02  0.33168421267E+03  0.00000000000E+00 0. -1.
         -2    1    4    4    0  503  0.30999223453E+02  0.17370515140E+02 -0.20170816494E+02  0.40860108773E+02  0.00000000000E+00 0.  1.
         -3    1    5    5    0  502 -0.68521014460E+02 -0.30224059461E+02 -0.79512384236E+02  0.10922839576E+03  0.00000000000E+00 0.  1.
<mgrwt>
<rscale>  0 0.18493027E+04</rscale>
<asrwt>0</asrwt>
<pdfrwt beam="1">  1        1 0.10727023E+00 0.18493027E+04</pdfrwt>
<pdfrwt beam="2">  1       -1 0.18864708E+00 0.18493027E+04</pdfrwt>
<totfact> 0.46508581E+00</totfact>
</mgrwt>
</event>
<event>
12    1  0.2517740E-008  0.1464765E+04  0.7818608E-02  0.8908228E-01
         -2   -1    0    0    0  501 -0.00000000000E+00  0.00000000000E+00  0.78457726374E+03  0.78457726374E+03  0.00000000000E+00 0.  1.
          2   -1    0    0  501    0  0.00000000000E+00 -0.00000000000E+00 -0.68366002603E+03  0.68366002603E+03  0.00000000000E+00 0. -1.
         23    2    1    2    0    0  0.38610160198E+03  0.67954271095E+02 -0.19267517988E+03  0.44669342547E+03  0.93375914505E+02 0.  0.
        254    2    1    2    0    0 -0.38610160198E+03 -0.67954271095E+02  0.29359241760E+03  0.10215438643E+04  0.89647260360E+03 0.  0.
        -24    2    4    4    0    0 -0.26884672664E+03 -0.41593050495E+03  0.38588220081E+03  0.63457912998E+03  0.92243438437E+02 0.  0.
         24    2    4    4    0    0 -0.11725487534E+03  0.34797623386E+03 -0.92289783213E+02  0.38696473431E+03  0.79925818079E+02 0.  0.
         13    1    3    3    0    0  0.30243481403E+02  0.13780066551E+02 -0.48809762820E+02  0.59050413615E+02  0.00000000000E+00 0.  1.
        -13    1    3    3    0    0  0.35585812058E+03  0.54174204543E+02 -0.14386541706E+03  0.38764301186E+03  0.00000000000E+00 0. -1.
          2    1    6    6  502    0 -0.64850182873E+01  0.10668199425E+03 -0.50434327286E+02  0.11818089832E+03  0.00000000000E+00 0. -1.
          3    1    5    5  503    0 -0.51026800234E+02 -0.28520700911E+02  0.57337512464E+02  0.81882568708E+02  0.00000000000E+00 0. -1.
         -2    1    5    5    0  503 -0.21781992640E+03 -0.38740980404E+03  0.32854468834E+03  0.55269656127E+03  0.00000000000E+00 0.  1.
         -1    1    6    6    0  502 -0.11076985705E+03  0.24129423961E+03 -0.41855455927E+02  0.26878383599E+03  0.00000000000E+00 0.  1.
<mgrwt>
<rscale>  0 0.14647650E+04</rscale>
<asrwt>0</asrwt>
<pdfrwt beam="1">  1        2 0.10517847E+00 0.14647650E+04</pdfrwt>
<pdfrwt beam="2">  1       -2 0.12070419E+00 0.14647650E+04</pdfrwt>
<totfact> 0.21397525E+01</totfact>
</mgrwt>
</event>
<event>
12    1  0.2502641E-008  0.1284850E+04  0.7818608E-02  0.9041666E-01
         -2   -1    0    0    0  501 -0.00000000000E+00  0.00000000000E+00  0.41091386159E+03  0.41091386159E+03  0.00000000000E+00 0. -1.
          2   -1    0    0  501    0  0.00000000000E+00 -0.00000000000E+00 -0.10043713898E+04  0.10043713898E+04  0.00000000000E+00 0.  1.
         23    2    1    2    0    0 -0.16173140855E+03  0.10454798126E+03 -0.43620352745E+03  0.48523436721E+03  0.89953014760E+02 0.  0.
        254    2    1    2    0    0  0.16173140855E+03 -0.10454798126E+03 -0.15725400079E+03  0.93005088421E+03  0.89620226376E+03 0.  0.
        -24    2    4    4    0    0 -0.20064950495E+03  0.12652752193E+03  0.23835600850E+03  0.34051988436E+03  0.53579540993E+02 0.  0.
         24    2    4    4    0    0  0.36238091350E+03 -0.23107550318E+03 -0.39561000929E+03  0.58953099986E+03  0.79521730981E+02 0.  0.
         13    1    3    3    0    0 -0.41896389168E+02 -0.45193727461E+01 -0.44236940400E+02  0.61095327574E+02  0.00000000000E+00 0. -1.
        -13    1    3    3    0    0 -0.11983501938E+03  0.10906735400E+03 -0.39196658705E+03  0.42413903964E+03  0.00000000000E+00 0.  1.
          4    1    6    6  502    0  0.19632357448E+02 -0.40261849983E+02 -0.41282929692E+02  0.60915731195E+02  0.00000000000E+00 0. -1.
          1    1    5    5  503    0 -0.32253660349E+02  0.34180598185E+02  0.74396821645E+02  0.87997153187E+02  0.00000000000E+00 0. -1.
         -2    1    5    5    0  503 -0.16839584460E+03  0.92346923743E+02  0.16395918686E+03  0.25252273117E+03  0.00000000000E+00 0.  1.
         -3    1    6    6    0  502  0.34274855605E+03 -0.19081365320E+03 -0.35432707960E+03  0.52861526866E+03  0.00000000000E+00 0.  1.
<mgrwt>
<rscale>  0 0.12848504E+04</rscale>
<asrwt>0</asrwt>
<pdfrwt beam="1">  1        2 0.15451867E+00 0.12848504E+04</pdfrwt>
<pdfrwt beam="2">  1       -2 0.63217517E-01 0.12848504E+04</pdfrwt>
<totfact> 0.56914031E+01</totfact>
</mgrwt>
</event>
<event>
11    1  0.2502641E-008  0.1380987E+04  0.7818608E-02  0.8967697E-01
          1   -1    0    0  501    0  0.00000000000E+00  0.00000000000E+00  0.38211202907E+04  0.38211202907E+04  0.00000000000E+00 0. -1.
         -1   -1    0    0    0  501 -0.00000000000E+00 -0.00000000000E+00 -0.12477533136E+03  0.12477533136E+03  0.00000000000E+00 0.  1.
         23    2    1    2    0    0  0.15290213250E+03 -0.17827063131E+02  0.99859215396E+02  0.21931082368E+03  0.12011872535E+03 0.  0.
        254    2    1    2    0    0 -0.15290213250E+03  0.17827063131E+02  0.35964857439E+04  0.37265847984E+04  0.96386082336E+03 0.  0.
         24    2    4    4    0    0 -0.26267029517E+03 -0.13873555646E+03  0.34543534188E+03  0.46146434408E+03  0.73352074576E+02 0.  0.
         11    1    3    3    0    0  0.14091414721E+03 -0.49459846971E+01  0.12512993322E+03  0.18851726668E+03  0.00000000000E+00 0.  1.
        -11    1    3    3    0    0  0.11987985295E+02 -0.12881078434E+02 -0.25270717828E+02  0.30793556998E+02  0.00000000000E+00 0. -1.
          4    1    5    5  502    0 -0.11779444853E+03 -0.77114128306E+02  0.21509316295E+03  0.25707428817E+03  0.00000000000E+00 0. -1.
          3    1    4    4  503    0  0.16745752213E+03  0.12923430770E+03  0.17538371812E+04  0.17665470234E+04  0.00000000000E+00 0. -1.
         -4    1    4    4    0  503 -0.57689359467E+02  0.27328311890E+02  0.14972132209E+04  0.14985734309E+04  0.00000000000E+00 0.  1.
         -3    1    5    5    0  502 -0.14487584664E+03 -0.61621428157E+02  0.13034217893E+03  0.20439005591E+03  0.00000000000E+00 0.  1.
<mgrwt>
<rscale>  0 0.13809874E+04</rscale>
<asrwt>0</asrwt>
<pdfrwt beam="1">  1        1 0.58786457E+00 0.13809874E+04</pdfrwt>
<pdfrwt beam="2">  1       -1 0.19196208E-01 0.13809874E+04</pdfrwt>
<totfact> 0.29880961E+00</totfact>
</mgrwt>
</event>
<event>
12    1  0.2502641E-008  0.1933088E+04  0.7818608E-02  0.8638559E-01
          1   -1    0    0  501    0  0.00000000000E+00  0.00000000000E+00  0.39377617262E+04  0.39377617262E+04  0.00000000000E+00 0. -1.
         -1   -1    0    0    0  501 -0.00000000000E+00 -0.00000000000E+00 -0.23724335035E+03  0.23724335035E+03  0.00000000000E+00 0.  1.
         23    2    1    2    0    0 -0.60812862833E+03 -0.44028844187E+03  0.15559202119E+04  0.17300061234E+04  0.91428334415E+02 0.  0.
        254    2    1    2    0    0  0.60812862833E+03  0.44028844187E+03  0.21445981639E+04  0.24449989532E+04  0.90279801492E+03 0.  0.
        -24    2    4    4    0    0 -0.15278233746E+03 -0.20269105158E+02  0.81522843490E+02  0.19697238822E+03  0.91645340553E+02 0.  0.
         24    2    4    4    0    0  0.76091096579E+03  0.46055754703E+03  0.20630753204E+04  0.22480265650E+04  0.79024724272E+02 0.  0.
         11    1    3    3    0    0 -0.29635233276E+03 -0.21055091533E+03  0.85796442608E+03  0.93180435151E+03  0.00000000000E+00 0. -1.
        -11    1    3    3    0    0 -0.31177629557E+03 -0.22973752655E+03  0.69795578586E+03  0.79820177186E+03  0.00000000000E+00 0.  1.
          2    1    6    6  502    0  0.70235301548E+03  0.43376768729E+03  0.18592916178E+04  0.20343105675E+04  0.00000000000E+00 0. -1.
          3    1    5    5  503    0 -0.83078990648E+02 -0.52897017752E+02  0.25375411149E+02  0.10170606995E+03  0.00000000000E+00 0. -1.
         -4    1    5    5    0  503 -0.69703346812E+02  0.32627912594E+02  0.56147432341E+02  0.95266318263E+02  0.00000000000E+00 0.  1.
         -1    1    6    6    0  502  0.58557950308E+02  0.26789859737E+02  0.20378370263E+03  0.21371599750E+03  0.00000000000E+00 0.  1.
<mgrwt>
<rscale>  0 0.19330885E+04</rscale>
<asrwt>0</asrwt>
<pdfrwt beam="1">  1        1 0.60580945E+00 0.19330885E+04</pdfrwt>
<pdfrwt beam="2">  1       -1 0.36498980E-01 0.19330885E+04</pdfrwt>
<totfact> 0.73641828E-01</totfact>
</mgrwt>
</event>
<event>
11    1  0.2502641E-008  0.1431452E+04  0.7818608E-02  0.8931361E-01
         -2   -1    0    0    0  501 -0.00000000000E+00  0.00000000000E+00  0.29430765407E+03  0.29430765407E+03  0.00000000000E+00 0.  1.
          2   -1    0    0  501    0  0.00000000000E+00 -0.00000000000E+00 -0.17405726260E+04  0.17405726260E+04  0.00000000000E+00 0. -1.
         23    2    1    2    0    0 -0.18587496287E+03  0.24907695718E+03 -0.86951383077E+03  0.92788474937E+03  0.91252253599E+02 0.  0.
        254    2    1    2    0    0  0.18587496287E+03 -0.24907695718E+03 -0.57675114117E+03  0.11069955307E+04  0.89230510127E+03 0.  0.
         24    2    4    4    0    0  0.44294741654E+03 -0.11363708501E+03 -0.57653035049E+03  0.74023216309E+03  0.80253406968E+02 0.  0.
         13    1    3    3    0    0 -0.10475077060E+03  0.68998183571E+02 -0.30340265707E+03  0.32830876564E+03  0.00000000000E+00 0.  1.
        -13    1    3    3    0    0 -0.81124192270E+02  0.18007877360E+03 -0.56611117370E+03  0.59957598373E+03  0.00000000000E+00 0. -1.
          2    1    5    5  502    0  0.20670480449E+03 -0.11857677374E+02 -0.25798499737E+03  0.33079259299E+03  0.00000000000E+00 0. -1.
          3    1    4    4  503    0 -0.14302374104E+03  0.46595215161E+02  0.16379795705E+02  0.15131160657E+03  0.00000000000E+00 0. -1.
         -4    1    4    4    0  503 -0.11404871263E+03 -0.18203508732E+03 -0.16600586383E+02  0.21545176104E+03  0.00000000000E+00 0.  1.
         -1    1    5    5    0  502  0.23624261206E+03 -0.10177940764E+03 -0.31854535312E+03  0.40943957010E+03  0.00000000000E+00 0.  1.
<mgrwt>
<rscale>  0 0.14314522E+04</rscale>
<asrwt>0</asrwt>
<pdfrwt beam="1">  1        2 0.26778041E+00 0.14314522E+04</pdfrwt>
<pdfrwt beam="2">  1       -2 0.45278100E-01 0.14314522E+04</pdfrwt>
<totfact> 0.41818594E+01</totfact>
</mgrwt>
</event>
<event>
11    1  0.2502641E-008  0.1618543E+04  0.7818608E-02  0.8809236E-01
          2   -1    0    0  501    0  0.00000000000E+00  0.00000000000E+00  0.85665834086E+03  0.85665834086E+03  0.00000000000E+00 0. -1.
         -2   -1    0    0    0  501 -0.00000000000E+00 -0.00000000000E+00 -0.76450620511E+03  0.76450620511E+03  0.00000000000E+00 0.  1.
         23    2    1    2    0    0 -0.21500002659E+03  0.50397288603E+03  0.82876626720E+02  0.56155831078E+03  0.90914904495E+02 0.  0.
        254    2    1    2    0    0  0.21500002659E+03 -0.50397288603E+03  0.92755090284E+01  0.10596062352E+04  0.90689892341E+03 0.  0.
         24    2    4    4    0    0 -0.21258713262E+03  0.10304396873E+03  0.15498613267E+03  0.29325126749E+03  0.78512776784E+02 0.  0.
         13    1    3    3    0    0 -0.10366453924E+03  0.29936216924E+03  0.80862400499E+01  0.31690603079E+03  0.00000000000E+00 0.  1.
        -13    1    3    3    0    0 -0.11133548734E+03  0.20461071679E+03  0.74790386670E+02  0.24465227999E+03  0.00000000000E+00 0. -1.
          2    1    5    5  502    0 -0.19744897209E+03  0.10327486319E+03  0.11554232694E+03  0.25100163996E+03  0.00000000000E+00 0. -1.
          3    1    4    4  503    0  0.40905938461E+03 -0.59134659837E+03 -0.16208214103E+03  0.73708276332E+03  0.00000000000E+00 0. -1.
         -4    1    4    4    0  503  0.18527774604E+02 -0.15670256391E+02  0.16371517388E+02  0.29272204371E+02  0.00000000000E+00 0.  1.
         -1    1    5    5    0  502 -0.15138160528E+02 -0.23089445436E+00  0.39443805731E+02  0.42249627536E+02  0.00000000000E+00 0.  1.
<mgrwt>
<rscale>  0 0.16185433E+04</rscale>
<asrwt>0</asrwt>
<pdfrwt beam="1">  1        2 0.13179359E+00 0.16185433E+04</pdfrwt>
<pdfrwt beam="2">  1       -2 0.11761634E+00 0.16185433E+04</pdfrwt>
<totfact> 0.16779642E+01</totfact>
</mgrwt>
</event>
<event>
12    1  0.2502641E-008  0.2300817E+04  0.7818608E-02  0.8477599E-01
         -2   -1    0    0    0  501 -0.00000000000E+00  0.00000000000E+00  0.76471774240E+03  0.76471774240E+03  0.00000000000E+00 0.  1.
          2   -1    0    0  501    0  0.00000000000E+00 -0.00000000000E+00 -0.17306249351E+04  0.17306249351E+04  0.00000000000E+00 0. -1.
         23    2    1    2    0    0  0.28842982988E+03 -0.80579520137E+03  0.90742836182E+02  0.86537401006E+03  0.90223287720E+02 0.  0.
        254    2    1    2    0    0 -0.28842982988E+03  0.80579520137E+03 -0.10566500289E+04  0.16299686674E+04  0.89877188430E+03 0.  0.
        -24    2    4    4    0    0 -0.36067509221E+03 -0.37495201246E+02 -0.45206242311E+03  0.58686754396E+03  0.92523875334E+02 0.  0.
         24    2    4    4    0    0  0.72245262331E+02  0.84329040262E+03 -0.60458760575E+03  0.10431011235E+04  0.78585620111E+02 0.  0.
         13    1    3    3    0    0  0.14707169871E+03 -0.49388588779E+03  0.88850759533E+02  0.52292237683E+03  0.00000000000E+00 0. -1.
        -13    1    3    3    0    0  0.14135813117E+03 -0.31190931358E+03  0.18920766492E+01  0.34245163323E+03  0.00000000000E+00 0.  1.
          4    1    6    6  502    0 -0.78180361694E+01  0.37154342049E+02 -0.43091780870E+02  0.57432294062E+02  0.00000000000E+00 0. -1.
          1    1    5    5  503    0 -0.99142860395E+02  0.29491946197E+02 -0.10822309515E+03  0.14970410810E+03  0.00000000000E+00 0. -1.
         -2    1    5    5    0  503 -0.26153223182E+03 -0.66987147443E+02 -0.34383932796E+03  0.43716343586E+03  0.00000000000E+00 0.  1.
         -3    1    6    6    0  502  0.80063298501E+02  0.80613606057E+03 -0.56149582488E+03  0.98566882941E+03  0.00000000000E+00 0.  1.
<mgrwt>
<rscale>  0 0.23008169E+04</rscale>
<asrwt>0</asrwt>
<pdfrwt beam="1">  1        2 0.26624998E+00 0.23008169E+04</pdfrwt>
<pdfrwt beam="2">  1       -2 0.11764889E+00 0.23008169E+04</pdfrwt>
<totfact> 0.47675719E+00</totfact>
</mgrwt>
</event>
<event>
12    1  0.2502641E-008  0.1541421E+04  0.7818608E-02  0.8857366E-01
         -2   -1    0    0    0  501 -0.00000000000E+00  0.00000000000E+00  0.49825738998E+03  0.49825738998E+03  0.00000000000E+00 0.  1.
          2   -1    0    0  501    0  0.00000000000E+00 -0.00000000000E+00 -0.11921445833E+04  0.11921445833E+04  0.00000000000E+00 0. -1.
         23    2    1    2    0    0  0.46402875984E+02  0.41730555974E+03 -0.53542484964E+03  0.68705888122E+03  0.95252189274E+02 0.  0.
        254    2    1    2    0    0 -0.46402875984E+02 -0.41730555974E+03 -0.15846234368E+03  0.10033430921E+04  0.89737945651E+03 0.  0.
        -24    2    4    4    0    0  0.12151432005E+02  0.26127793579E+03  0.48623381834E+02  0.28688895531E+03  0.10736490298E+03 0.  0.
         24    2    4    4    0    0 -0.58554307989E+02 -0.67858349552E+03 -0.20708572552E+03  0.71645413676E+03  0.80733295385E+02 0.  0.
         11    1    3    3    0    0 -0.58969258961E+01  0.31111416897E+03 -0.40828369678E+03  0.51334430641E+03  0.00000000000E+00 0. -1.
        -11    1    3    3    0    0  0.52299801880E+02  0.10619139076E+03 -0.12714115287E+03  0.17371457481E+03  0.00000000000E+00 0.  1.
          2    1    6    6  502    0 -0.78460229140E+02 -0.58083137210E+03 -0.17819438516E+03  0.61259638367E+03  0.00000000000E+00 0. -1.
          3    1    5    5  503    0  0.17200014301E+02  0.16661044464E+03  0.81860110366E+02  0.18642949988E+03  0.00000000000E+00 0. -1.
         -4    1    5    5    0  503 -0.50485822962E+01  0.94667491148E+02 -0.33236728532E+02  0.10045945544E+03  0.00000000000E+00 0.  1.
         -1    1    6    6    0  502  0.19905921151E+02 -0.97752123418E+02 -0.28891340358E+02  0.10385775309E+03  0.00000000000E+00 0.  1.
<mgrwt>
<rscale>  0 0.15414212E+04</rscale>
<asrwt>0</asrwt>
<pdfrwt beam="1">  1        2 0.18340686E+00 0.15414212E+04</pdfrwt>
<pdfrwt beam="2">  1       -2 0.76654984E-01 0.15414212E+04</pdfrwt>
<totfact> 0.28056837E+01</totfact>
</mgrwt>
</event>
<event>
11    1  0.2502641E-008  0.1113930E+04  0.7818608E-02  0.9191720E-01
         -2   -1    0    0    0  501 -0.00000000000E+00  0.00000000000E+00  0.46494788005E+03  0.46494788005E+03  0.00000000000E+00 0.  1.
          2   -1    0    0  501    0  0.00000000000E+00 -0.00000000000E+00 -0.66719362306E+03  0.66719362306E+03  0.00000000000E+00 0. -1.
         23    2    1    2    0    0  0.17924059902E+03 -0.36833921990E+02  0.45331213710E+02  0.21038670240E+03  0.93400832234E+02 0.  0.
        254    2    1    2    0    0 -0.17924059902E+03  0.36833921990E+02 -0.24757695672E+03  0.92175480072E+03  0.86882313102E+03 0.  0.
         24    2    4    4    0    0  0.15207528671E+03 -0.29598459918E+03 -0.26445336324E+03  0.43377255063E+03  0.86540560319E+02 0.  0.
         11    1    3    3    0    0  0.75398031740E+02 -0.23839996618E+02  0.66846620031E+02  0.10354554186E+03  0.00000000000E+00 0.  1.
        -11    1    3    3    0    0  0.10384256728E+03 -0.12993925372E+02 -0.21515406321E+02  0.10684116054E+03  0.00000000000E+00 0. -1.
          4    1    5    5  502    0  0.72664741280E+02 -0.61820658039E+02 -0.90058211421E+02  0.13119618832E+03  0.00000000000E+00 0. -1.
          3    1    4    4  503    0 -0.62525020740E+02  0.40051144874E+01  0.82910427981E+01  0.63199371447E+02  0.00000000000E+00 0. -1.
         -4    1    4    4    0  503 -0.26879086499E+03  0.32881340668E+03  0.85853637140E+01  0.42478287864E+03  0.00000000000E+00 0.  1.
         -3    1    5    5    0  502  0.79410545427E+02 -0.23416394114E+03 -0.17439515182E+03  0.30257636231E+03  0.00000000000E+00 0.  1.
<mgrwt>
<rscale>  0 0.11139304E+04</rscale>
<asrwt>0</asrwt>
<pdfrwt beam="1">  1        2 0.10264517E+00 0.11139304E+04</pdfrwt>
<pdfrwt beam="2">  1       -2 0.71530444E-01 0.11139304E+04</pdfrwt>
<totfact> 0.76596683E+01</totfact>
</mgrwt>
</event>
<event>
12    1  0.2502641E-008  0.1809178E+04  0.7818608E-02  0.8701434E-01
          4   -1    0    0  501    0  0.00000000000E+00  0.00000000000E+00  0.25722125904E+04  0.25722125904E+04  0.00000000000E+00 0. -1.
         -4   -1    0    0    0  501 -0.00000000000E+00 -0.00000000000E+00 -0.31812364477E+03  0.31812364477E+03  0.00000000000E+00 0.  1.
         23    2    1    2    0    0  0.52523690589E+03  0.26677888220E+03  0.13863938788E+04  0.15090227113E+04  0.89536454439E+02 0.  0.
        254    2    1    2    0    0 -0.52523690589E+03 -0.26677888220E+03  0.86769506683E+03  0.13813135239E+04  0.89893689600E+03 0.  0.
        -24    2    4    4    0    0 -0.43987753580E+03 -0.19405913899E+03  0.10467658773E+04  0.11555103512E+04  0.91291696722E+02 0.  0.
         24    2    4    4    0    0 -0.85359370085E+02 -0.72719743202E+02 -0.17907081051E+03  0.22580317267E+03  0.79663884516E+02 0.  0.
         11    1    3    3    0    0  0.37871361988E+03  0.18737704560E+03  0.88576464308E+03  0.98138329211E+03  0.00000000000E+00 0. -1.
        -11    1    3    3    0    0  0.14652328601E+03  0.79401836592E+02  0.50062923575E+03  0.52763941919E+03  0.00000000000E+00 0.  1.
          2    1    6    6  502    0  0.13370779915E+02  0.17049694843E+01 -0.23424624956E+02  0.27025871509E+02  0.00000000000E+00 0. -1.
          1    1    5    5  503    0 -0.44003314316E+02 -0.21270484885E+02  0.18780416084E+03  0.19405959916E+03  0.00000000000E+00 0. -1.
         -2    1    5    5    0  503 -0.39587422149E+03 -0.17278865411E+03  0.85896171650E+03  0.96145075206E+03  0.00000000000E+00 0.  1.
         -1    1    6    6    0  502 -0.98730150000E+02 -0.74424712687E+02 -0.15564618555E+03  0.19877730116E+03  0.00000000000E+00 0.  1.
<mgrwt>
<rscale>  0 0.18091784E+04</rscale>
<asrwt>0</asrwt>
<pdfrwt beam="1">  1        4 0.39572500E+00 0.18091784E+04</pdfrwt>
<pdfrwt beam="2">  1       -4 0.48942101E-01 0.18091784E+04</pdfrwt>
<totfact> 0.56060611E-02</totfact>
</mgrwt>
</event>
<event>
12    1  0.2502641E-008  0.1157666E+04  0.7818608E-02  0.9150740E-01
         -2   -1    0    0    0  501 -0.00000000000E+00  0.00000000000E+00  0.15485437475E+04  0.15485437475E+04  0.00000000000E+00 0.  1.
          2   -1    0    0  501    0  0.00000000000E+00 -0.00000000000E+00 -0.21636303124E+03  0.21636303124E+03  0.00000000000E+00 0. -1.
         23    2    1    2    0    0 -0.59028409475E+02  0.11246302759E+03  0.53881925286E+03  0.56235631683E+03  0.98924992400E+02 0.  0.
        254    2    1    2    0    0  0.59028409475E+02 -0.11246302759E+03  0.79336146335E+03  0.12025504619E+04  0.89474740352E+03 0.  0.
        -24    2    4    4    0    0 -0.11602412444E+03  0.38271232917E+02 -0.16320741697E+03  0.21513672626E+03  0.68708553421E+02 0.  0.
         24    2    4    4    0    0  0.17505253391E+03 -0.15073426051E+03  0.95656888032E+03  0.98741373561E+03  0.81225953673E+02 0.  0.
         11    1    3    3    0    0 -0.18623289824E+02  0.11852240045E+03  0.39081727013E+03  0.40881844988E+03  0.00000000000E+00 0. -1.
        -11    1    3    3    0    0 -0.40405119650E+02 -0.60593728615E+01  0.14800198273E+03  0.15353786695E+03  0.00000000000E+00 0.  1.
          2    1    6    6  502    0  0.14220316638E+03 -0.93154785359E+02  0.55638487960E+03  0.58177632197E+03  0.00000000000E+00 0. -1.
          3    1    5    5  503    0 -0.76410546996E+02 -0.45649567421E+01 -0.62813548237E+02  0.99019959425E+02  0.00000000000E+00 0. -1.
         -2    1    5    5    0  503 -0.39613577441E+02  0.42836189659E+02 -0.10039386873E+03  0.11611676684E+03  0.00000000000E+00 0.  1.
         -1    1    6    6    0  502  0.32849367531E+02 -0.57579475147E+02  0.40018400072E+03  0.40563741363E+03  0.00000000000E+00 0.  1.
<mgrwt>
<rscale>  0 0.11576660E+04</rscale>
<asrwt>0</asrwt>
<pdfrwt beam="1">  1        2 0.33286621E-01 0.11576660E+04</pdfrwt>
<pdfrwt beam="2">  1       -2 0.23823749E+00 0.11576660E+04</pdfrwt>
<totfact> 0.11926524E+01</totfact>
</mgrwt>
</event>
<event>
12    1  0.3883641E-008  0.2178473E+04  0.7818608E-02  0.8527442E-01
         -1   -1    0    0    0  501 -0.00000000000E+00  0.00000000000E+00  0.50680642498E+03  0.50680642498E+03  0.00000000000E+00 0.  1.
          1   -1    0    0  501    0  0.00000000000E+00 -0.00000000000E+00 -0.23410051288E+04  0.23410051288E+04  0.00000000000E+00 0. -1.
         23    2    1    2    0    0 -0.70602670285E+02  0.18469735434E+03  0.38536069610E+03  0.44260215416E+03  0.91082111429E+02 0.  0.
        254    2    1    2    0    0  0.70602670285E+02 -0.18469735434E+03 -0.22195593999E+04  0.24052093997E+04  0.90525713282E+03 0.  0.
        -24    2    4    4    0    0  0.36392178330E+03  0.21089729213E+03 -0.96093737131E+03  0.10512291021E+04  0.69030872996E+02 0.  0.
         24    2    4    4    0    0 -0.29331911301E+03 -0.39559464647E+03 -0.12586220286E+04  0.13539802975E+04  0.81252745761E+02 0.  0.
         11    1    3    3    0    0 -0.77625901880E+02  0.18128878229E+03  0.38724716100E+03  0.43457078472E+03  0.00000000000E+00 0.  1.
        -11    1    3    3    0    0  0.70232315950E+01  0.34085720443E+01 -0.18864648976E+01  0.80313694491E+01  0.00000000000E+00 0. -1.
          4    1    6    6  502    0 -0.28246752993E+03 -0.33971963092E+03 -0.10968993892E+04  0.11825335526E+04  0.00000000000E+00 0. -1.
          3    1    5    5  503    0  0.34132338911E+03  0.17450263926E+03 -0.86943497321E+03  0.95019471674E+03  0.00000000000E+00 0. -1.
         -4    1    5    5    0  503  0.22598394184E+02  0.36394652875E+02 -0.91502398093E+02  0.10103438541E+03  0.00000000000E+00 0.  1.
         -3    1    6    6    0  502 -0.10851583081E+02 -0.55875015548E+02 -0.16172263948E+03  0.17144674490E+03  0.00000000000E+00 0.  1.
<mgrwt>
<rscale>  0 0.21784733E+04</rscale>
<asrwt>0</asrwt>
<pdfrwt beam="1">  1        1 0.36015463E+00 0.21784733E+04</pdfrwt>
<pdfrwt beam="2">  1       -1 0.77970220E-01 0.21784733E+04</pdfrwt>
<totfact> 0.26248801E+00</totfact>
</mgrwt>
</event>
<event>
12    1  0.2502641E-008  0.2047627E+04  0.7818608E-02  0.8584671E-01
         -2   -1    0    0    0  501 -0.00000000000E+00  0.00000000000E+00  0.42320576499E+03  0.42320576499E+03  0.00000000000E+00 0.  1.
          2   -1    0    0  501    0  0.00000000000E+00 -0.00000000000E+00 -0.24767964878E+04  0.24767964878E+04  0.00000000000E+00 0. -1.
         23    2    1    2    0    0  0.46163115695E+03  0.65171309275E+03 -0.97603263303E+03  0.12643867928E+04  0.90559265893E+02 0.  0.
        254    2    1    2    0    0 -0.46163115695E+03 -0.65171309275E+03 -0.10775580898E+04  0.16356154600E+04  0.93609466181E+03 0.  0.
        -24    2    4    4    0    0 -0.11018441878E+03 -0.49422751078E+03 -0.28903603309E+02  0.51554000675E+03  0.92437231254E+02 0.  0.
         24    2    4    4    0    0 -0.35144673818E+03 -0.15748558197E+03 -0.10486544864E+04  0.11200754533E+04  0.81094209017E+02 0.  0.
         13    1    3    3    0    0  0.36590332286E+03  0.44826523640E+03 -0.68787708443E+03  0.89888922963E+03  0.00000000000E+00 0. -1.
        -13    1    3    3    0    0  0.95727834098E+02  0.20344785634E+03 -0.28815554860E+03  0.36549756314E+03  0.00000000000E+00 0.  1.
          4    1    6    6  502    0 -0.34786883192E+03 -0.14964531291E+03 -0.10433673667E+04  0.11099648218E+04  0.00000000000E+00 0. -1.
          3    1    5    5  503    0 -0.70554010114E+02 -0.24415385998E+03  0.29047852506E+02  0.25579826704E+03  0.00000000000E+00 0. -1.
         -4    1    5    5    0  503 -0.39630408663E+02 -0.25007365080E+03 -0.57951455816E+02  0.25974173971E+03  0.00000000000E+00 0.  1.
         -3    1    6    6    0  502 -0.35779062527E+01 -0.78402690582E+01 -0.52871197856E+01  0.10110631419E+02  0.00000000000E+00 0.  1.
<mgrwt>
<rscale>  0 0.20476275E+04</rscale>
<asrwt>0</asrwt>
<pdfrwt beam="1">  1        2 0.38104562E+00 0.20476275E+04</pdfrwt>
<pdfrwt beam="2">  1       -2 0.65108579E-01 0.20476275E+04</pdfrwt>
<totfact> 0.72313221E+00</totfact>
</mgrwt>
</event>
<event>
11    1  0.2502641E-008  0.1170494E+04  0.7818608E-02  0.9139083E-01
          2   -1    0    0  501    0  0.00000000000E+00  0.00000000000E+00  0.42843554089E+03  0.42843554089E+03  0.00000000000E+00 0. -1.
         -2   -1    0    0    0  501 -0.00000000000E+00 -0.00000000000E+00 -0.79945228338E+03  0.79945228338E+03  0.00000000000E+00 0.  1.
         23    2    1    2    0    0  0.21192785758E+03  0.61688483505E+02 -0.10499955065E+03  0.26303911526E+03  0.97189426938E+02 0.  0.
        254    2    1    2    0    0 -0.21192785758E+03 -0.61688483505E+02 -0.26601719184E+03  0.96484870901E+03  0.90080463981E+03 0.  0.
         24    2    4    4    0    0  0.27543789290E+02  0.34277777841E+03  0.76241007539E+02  0.36097991840E+03  0.78984457668E+02 0.  0.
         13    1    3    3    0    0  0.15132098881E+03  0.83738610042E+02 -0.55150078998E+02  0.18152610743E+03  0.00000000000E+00 0.  1.
        -13    1    3    3    0    0  0.60606868768E+02 -0.22050126537E+02 -0.49849471650E+02  0.81513007833E+02  0.00000000000E+00 0. -1.
          2    1    5    5  502    0  0.81986125123E+01  0.35674614935E+02 -0.15695156134E+02  0.39827544789E+02  0.00000000000E+00 0. -1.
          3    1    4    4  503    0 -0.18248752791E+03 -0.25785783116E+03 -0.13464031363E+03  0.34339535959E+03  0.00000000000E+00 0. -1.
         -4    1    4    4    0  503 -0.56984118955E+02 -0.14660843076E+03 -0.20761788575E+03  0.26047343102E+03  0.00000000000E+00 0.  1.
         -1    1    5    5    0  502  0.19345176778E+02  0.30710316348E+03  0.91936163673E+02  0.32115237361E+03  0.00000000000E+00 0.  1.
<mgrwt>
<rscale>  0 0.11704935E+04</rscale>
<asrwt>0</asrwt>
<pdfrwt beam="1">  1        2 0.65913161E-01 0.11704935E+04</pdfrwt>
<pdfrwt beam="2">  1       -2 0.12299266E+00 0.11704935E+04</pdfrwt>
<totfact> 0.36297029E+01</totfact>
</mgrwt>
</event>
<event>
11    1  0.2502641E-008  0.1718049E+04  0.7818608E-02  0.8751137E-01
         -1   -1    0    0    0  501 -0.00000000000E+00  0.00000000000E+00  0.28104686194E+03  0.28104686194E+03  0.00000000000E+00 0.  1.
          1   -1    0    0  501    0  0.00000000000E+00 -0.00000000000E+00 -0.26256231231E+04  0.26256231231E+04  0.00000000000E+00 0. -1.
         23    2    1    2    0    0  0.39178332928E+03  0.82519640596E+02 -0.16226094638E+04  0.16739020297E+04  0.93716941259E+02 0.  0.
        254    2    1    2    0    0 -0.39178332928E+03 -0.82519640596E+02 -0.72196679743E+03  0.12327679553E+04  0.91552012917E+03 0.  0.
         24    2    4    4    0    0 -0.56407202225E+03  0.22339730170E+02 -0.12480603047E+03  0.58360512852E+03  0.79637246095E+02 0.  0.
         11    1    3    3    0    0  0.38685242569E+03  0.84605046605E+02 -0.16204419043E+04  0.16681261279E+04  0.00000000000E+00 0. -1.
        -11    1    3    3    0    0  0.49309035936E+01 -0.20854060091E+01 -0.21675594297E+01  0.57759018649E+01  0.00000000000E+00 0.  1.
          2    1    5    5  502    0 -0.27264993966E+03  0.42200099220E+02 -0.85704618536E+02  0.28890157426E+03  0.00000000000E+00 0. -1.
          1    1    4    4  503    0  0.14232216895E+03 -0.13927522351E+03 -0.40045388701E+03  0.44723204635E+03  0.00000000000E+00 0. -1.
         -4    1    4    4    0  503  0.29966524018E+02  0.34415852743E+02 -0.19670687994E+03  0.20193078047E+03  0.00000000000E+00 0.  1.
         -1    1    5    5    0  502 -0.29142208259E+03 -0.19860369050E+02 -0.39101411935E+02  0.29470355426E+03  0.00000000000E+00 0.  1.
<mgrwt>
<rscale>  0 0.17180491E+04</rscale>
<asrwt>0</asrwt>
<pdfrwt beam="1">  1        1 0.40394200E+00 0.17180491E+04</pdfrwt>
<pdfrwt beam="2">  1       -1 0.43237981E-01 0.17180491E+04</pdfrwt>
<totfact> 0.55607616E+00</totfact>
</mgrwt>
</event>
<event>
12    1  0.2502641E-008  0.1378388E+04  0.7818608E-02  0.8969612E-01
          1   -1    0    0  501    0  0.00000000000E+00  0.00000000000E+00  0.29935639965E+03  0.29935639965E+03  0.00000000000E+00 0. -1.
         -1   -1    0    0    0  501 -0.00000000000E+00 -0.00000000000E+00 -0.15866995247E+04  0.15866995247E+04  0.00000000000E+00 0.  1.
         23    2    1    2    0    0  0.23107372011E+03  0.19715270946E+03 -0.54480597619E+02  0.32252700176E+03  0.93761806581E+02 0.  0.
        254    2    1    2    0    0 -0.23107372011E+03 -0.19715270946E+03 -0.12328625275E+04  0.15635289226E+04  0.91236419552E+03 0.  0.
        -24    2    4    4    0    0 -0.44559707976E+03 -0.16835192368E+03 -0.22791676839E+03  0.53253158932E+03  0.68881874370E+02 0.  0.
         24    2    4    4    0    0  0.21452335964E+03 -0.28800785781E+02 -0.10049457591E+04  0.10309973333E+04  0.78675062650E+02 0.  0.
         11    1    3    3    0    0  0.16196486912E+03  0.17867891431E+03 -0.16980503557E+02  0.24175837265E+03  0.00000000000E+00 0. -1.
        -11    1    3    3    0    0  0.69108850998E+02  0.18473795152E+02 -0.37500094062E+02  0.80768629109E+02  0.00000000000E+00 0.  1.
          4    1    6    6  502    0  0.75017414940E+02 -0.34067138713E+00 -0.52644146914E+03  0.53175967225E+03  0.00000000000E+00 0. -1.
          1    1    5    5  503    0 -0.14807645595E+03 -0.43567779932E+02 -0.41154199138E+02  0.15974497288E+03  0.00000000000E+00 0. -1.
         -2    1    5    5    0  503 -0.29752062381E+03 -0.12478414375E+03 -0.18676256925E+03  0.37278661644E+03  0.00000000000E+00 0.  1.
         -3    1    6    6    0  502  0.13950594470E+03 -0.28460114394E+02 -0.47850428995E+03  0.49923766106E+03  0.00000000000E+00 0.  1.
<mgrwt>
<rscale>  0 0.13783884E+04</rscale>
<asrwt>0</asrwt>
<pdfrwt beam="1">  1        1 0.46054829E-01 0.13783884E+04</pdfrwt>
<pdfrwt beam="2">  1       -1 0.24410763E+00 0.13783884E+04</pdfrwt>
<totfact> 0.65488249E+00</totfact>
</mgrwt>
</event>
<event>
11    1  0.2502641E-008  0.2345810E+04  0.7818608E-02  0.8460075E-01
          1   -1    0    0  501    0  0.00000000000E+00  0.00000000000E+00  0.12693500845E+04  0.12693500845E+04  0.00000000000E+00 0. -1.
         -1   -1    0    0    0  501 -0.00000000000E+00 -0.00000000000E+00 -0.10837874351E+04  0.10837874351E+04  0.00000000000E+00 0.  1.
         23    2    1    2    0    0  0.51497610392E+03 -0.36418524687E+03 -0.69958428294E+03  0.94634551035E+03  0.91216086191E+02 0.  0.
        254    2    1    2    0    0 -0.51497610392E+03  0.36418524687E+03  0.88514693226E+03  0.14067920093E+04  0.89316705266E+03 0.  0.
         24    2    4    4    0    0  0.12261116999E+03  0.28391254497E+03  0.20630340086E+03  0.38172728065E+03  0.86687896419E+02 0.  0.
         11    1    3    3    0    0  0.38738099831E+03 -0.30499562893E+03 -0.50022030779E+03  0.70235797699E+03  0.00000000000E+00 0.  1.
        -11    1    3    3    0    0  0.12759510561E+03 -0.59189617938E+02 -0.19936397515E+03  0.24398753336E+03  0.00000000000E+00 0. -1.
          4    1    5    5  502    0  0.12395157799E+03  0.27593817732E+03  0.21401661554E+03  0.37055226773E+03  0.00000000000E+00 0. -1.
          3    1    4    4  503    0 -0.40520396157E+03 -0.15825629340E+03  0.38986746959E+03  0.58415062160E+03  0.00000000000E+00 0. -1.
         -2    1    4    4    0  503 -0.23238331235E+03  0.23852899530E+03  0.28897606181E+03  0.44091410700E+03  0.00000000000E+00 0.  1.
         -3    1    5    5    0  502 -0.13404079975E+01  0.79743676515E+01 -0.77132146833E+01  0.11175012921E+02  0.00000000000E+00 0.  1.
<mgrwt>
<rscale>  0 0.23458096E+04</rscale>
<asrwt>0</asrwt>
<pdfrwt beam="1">  1        1 0.19528463E+00 0.23458096E+04</pdfrwt>
<pdfrwt beam="2">  1       -1 0.16673653E+00 0.23458096E+04</pdfrwt>
<totfact> 0.22286955E+00</totfact>
</mgrwt>
</event>
<event>
11    1  0.2502641E-008  0.1239550E+04  0.7818608E-02  0.9078926E-01
          2   -1    0    0  501    0  0.00000000000E+00  0.00000000000E+00  0.24816963620E+04  0.24816963620E+04  0.00000000000E+00 0. -1.
         -2   -1    0    0    0  501 -0.00000000000E+00 -0.00000000000E+00 -0.15478171308E+03  0.15478171308E+03  0.00000000000E+00 0.  1.
         23    2    1    2    0    0  0.18934546359E+02  0.82552744737E+02  0.13210268670E+04  0.13269707430E+04  0.92552130304E+02 0.  0.
        254    2    1    2    0    0 -0.18934546359E+02 -0.82552744737E+02  0.10058877820E+04  0.13095073321E+04  0.83416170507E+03 0.  0.
         24    2    4    4    0    0  0.94613295161E+02  0.92177116484E+02 -0.92562931123E+02  0.18053756120E+03  0.81102517607E+02 0.  0.
         11    1    3    3    0    0 -0.28321607498E+02  0.71320030279E+02  0.77741730207E+03  0.78119544400E+03  0.00000000000E+00 0. -1.
        -11    1    3    3    0    0  0.47256153857E+02  0.11232714458E+02  0.54360956489E+03  0.54577529899E+03  0.00000000000E+00 0.  1.
          4    1    5    5  502    0  0.48190026246E+02  0.55479587576E+02 -0.34519776047E+01  0.73567516042E+02  0.00000000000E+00 0. -1.
          1    1    4    4  503    0  0.16574243959E+02 -0.10740599419E+03  0.35667584782E+03  0.37286514126E+03  0.00000000000E+00 0. -1.
         -2    1    4    4    0  503 -0.13012208548E+03 -0.67323867030E+02  0.74177486531E+03  0.75610462967E+03  0.00000000000E+00 0.  1.
         -3    1    5    5    0  502  0.46423268915E+02  0.36697528909E+02 -0.89110953518E+02  0.10697004516E+03  0.00000000000E+00 0.  1.
<mgrwt>
<rscale>  0 0.12395503E+04</rscale>
<asrwt>0</asrwt>
<pdfrwt beam="1">  1        2 0.38179941E+00 0.12395503E+04</pdfrwt>
<pdfrwt beam="2">  1       -2 0.23812573E-01 0.12395503E+04</pdfrwt>
<totfact> 0.55302436E+01</totfact>
</mgrwt>
</event>
<event>
11    1  0.2502641E-008  0.1137634E+04  0.7818608E-02  0.9169269E-01
          2   -1    0    0  501    0  0.00000000000E+00  0.00000000000E+00  0.57109152510E+03  0.57109152510E+03  0.00000000000E+00 0.  1.
         -2   -1    0    0    0  501 -0.00000000000E+00 -0.00000000000E+00 -0.56655105476E+03  0.56655105476E+03  0.00000000000E+00 0. -1.
         23    2    1    2    0    0  0.17979281506E+03  0.60570204533E+02 -0.15754536232E+02  0.21206945983E+03  0.93440057560E+02 0.  0.
        254    2    1    2    0    0 -0.17979281506E+03 -0.60570204533E+02  0.20295006573E+02  0.92557312003E+03  0.90569283270E+03 0.  0.
         24    2    4    4    0    0  0.20302560042E+02  0.35805629548E+03 -0.17554735514E+03  0.40744098509E+03  0.81085003271E+02 0.  0.
         13    1    3    3    0    0  0.90479681655E+01 -0.19039250787E+02  0.72199126881E+01  0.22281964404E+02  0.00000000000E+00 0. -1.
        -13    1    3    3    0    0  0.17074484690E+03  0.79609455320E+02 -0.22974448920E+02  0.18978749543E+03  0.00000000000E+00 0.  1.
          4    1    5    5  502    0  0.72896424227E+00  0.31800238713E+03 -0.12953354427E+03  0.34337295860E+03  0.00000000000E+00 0. -1.
          3    1    4    4  503    0 -0.13332593220E+03 -0.32721012515E+03  0.93421933588E+02  0.36547219850E+03  0.00000000000E+00 0. -1.
         -4    1    4    4    0  503 -0.66769442909E+02 -0.91416374857E+02  0.10242042813E+03  0.15265993645E+03  0.00000000000E+00 0.  1.
         -1    1    5    5    0  502  0.19573595800E+02  0.40053908352E+02 -0.46013810875E+02  0.64068026487E+02  0.00000000000E+00 0.  1.
<mgrwt>
<rscale>  0 0.11376335E+04</rscale>
<asrwt>0</asrwt>
<pdfrwt beam="1">  1        2 0.87860234E-01 0.11376335E+04</pdfrwt>
<pdfrwt beam="2">  1       -2 0.87161701E-01 0.11376335E+04</pdfrwt>
<totfact> 0.59352089E+01</totfact>
</mgrwt>
</event>
<event>
11    1  0.2502641E-008  0.1757252E+04  0.7818608E-02  0.8729369E-01
         -1   -1    0    0    0  501 -0.00000000000E+00  0.00000000000E+00  0.14773881252E+04  0.14773881252E+04  0.00000000000E+00 0.  1.
          1   -1    0    0  501    0  0.00000000000E+00 -0.00000000000E+00 -0.52253244029E+03  0.52253244029E+03  0.00000000000E+00 0. -1.
         23    2    1    2    0    0 -0.10305684549E+03 -0.43142923957E+02  0.10750913642E+04  0.10850082500E+04  0.94548589628E+02 0.  0.
        254    2    1    2    0    0  0.10305684549E+03  0.43142923957E+02 -0.12023567926E+03  0.91491231556E+03  0.90006994245E+03 0.  0.
         24    2    4    4    0    0 -0.10733959271E+03 -0.16501213952E+03  0.17923740952E+03  0.27769072976E+03  0.78963903587E+02 0.  0.
         11    1    3    3    0    0  0.47221918322E+01 -0.16157038791E+01  0.40531171900E+03  0.40534244677E+03  0.00000000000E+00 0. -1.
        -11    1    3    3    0    0 -0.10777903732E+03 -0.41527220078E+02  0.66977964521E+03  0.67966580320E+03  0.00000000000E+00 0.  1.
          2    1    5    5  502    0 -0.10256506967E+03 -0.16301446996E+03  0.18694548599E+03  0.26840626980E+03  0.00000000000E+00 0. -1.
          1    1    4    4  503    0  0.20325814648E+03 -0.41884197461E+02 -0.32518395075E+03  0.38576257197E+03  0.00000000000E+00 0. -1.
         -2    1    4    4    0  503  0.71382917205E+01  0.25003926093E+03  0.25710861967E+02  0.25145901384E+03  0.00000000000E+00 0.  1.
         -1    1    5    5    0  502 -0.47745230382E+01 -0.19976695563E+01 -0.77080764696E+01  0.92844599606E+01  0.00000000000E+00 0.  1.
<mgrwt>
<rscale>  0 0.17572515E+04</rscale>
<asrwt>0</asrwt>
<pdfrwt beam="1">  1        1 0.80389607E-01 0.17572515E+04</pdfrwt>
<pdfrwt beam="2">  1       -1 0.22729048E+00 0.17572515E+04</pdfrwt>
<totfact> 0.38838858E+00</totfact>
</mgrwt>
</event>
<event>
12    1  0.2502641E-008  0.1227241E+04  0.7818608E-02  0.9089341E-01
          2   -1    0    0  501    0  0.00000000000E+00  0.00000000000E+00  0.97941706870E+03  0.97941706870E+03  0.00000000000E+00 0. -1.
         -2   -1    0    0    0  501 -0.00000000000E+00 -0.00000000000E+00 -0.38444309349E+03  0.38444309349E+03  0.00000000000E+00 0.  1.
         23    2    1    2    0    0 -0.82308726177E+02  0.23345055249E+03  0.89340695563E+02  0.27947017419E+03  0.94063444089E+02 0.  0.
        254    2    1    2    0    0  0.82308726177E+02 -0.23345055249E+03  0.50563327966E+03  0.10843899880E+04  0.92680243079E+03 0.  0.
        -24    2    4    4    0    0  0.14927215625E+03  0.24473593386E+03 -0.87624335935E+02  0.31509516258E+03  0.97103466861E+02 0.  0.
         24    2    4    4    0    0 -0.66963430077E+02 -0.47818648635E+03  0.59325761559E+03  0.76929482543E+03  0.81936031659E+02 0.  0.
         11    1    3    3    0    0 -0.11298878800E+02  0.27608659651E+02  0.49964800943E+02  0.58192646297E+02  0.00000000000E+00 0. -1.
        -11    1    3    3    0    0 -0.71009847377E+02  0.20584189284E+03  0.39375894621E+02  0.22127752789E+03  0.00000000000E+00 0.  1.
          2    1    6    6  502    0 -0.63129355970E+02 -0.32253004596E+03  0.34692407019E+03  0.47787786788E+03  0.00000000000E+00 0. -1.
          1    1    5    5  503    0  0.53560858248E+02  0.64045519148E+02  0.17312354645E+02  0.85266122713E+02  0.00000000000E+00 0. -1.
         -2    1    5    5    0  503  0.95711298006E+02  0.18069041471E+03 -0.10493669058E+03  0.22982903986E+03  0.00000000000E+00 0.  1.
         -3    1    6    6    0  502 -0.38340741066E+01 -0.15565644039E+03  0.24633354540E+03  0.29141695755E+03  0.00000000000E+00 0.  1.
<mgrwt>
<rscale>  0 0.12272410E+04</rscale>
<asrwt>0</asrwt>
<pdfrwt beam="1">  1        2 0.15067955E+00 0.12272410E+04</pdfrwt>
<pdfrwt beam="2">  1       -2 0.59145092E-01 0.12272410E+04</pdfrwt>
<totfact> 0.68306610E+01</totfact>
</mgrwt>
</event>
<event>
11    1  0.2502641E-008  0.1411150E+04  0.7818608E-02  0.8945787E-01
         -1   -1    0    0    0  501 -0.00000000000E+00  0.00000000000E+00  0.26438934667E+03  0.26438934667E+03  0.00000000000E+00 0.  1.
          1   -1    0    0  501    0  0.00000000000E+00 -0.00000000000E+00 -0.18829667033E+04  0.18829667033E+04  0.00000000000E+00 0. -1.
         23    2    1    2    0    0  0.21193357951E+03  0.29867099911E+03 -0.66377281767E+03  0.76349748459E+03  0.90630280075E+02 0.  0.
        254    2    1    2    0    0 -0.21193357951E+03 -0.29867099911E+03 -0.95480453891E+03  0.13838585653E+04  0.93235862923E+03 0.  0.
         24    2    4    4    0    0  0.27971923334E+03  0.76165272441E+02 -0.32775525685E+03  0.44442602226E+03  0.77762347191E+02 0.  0.
         11    1    3    3    0    0  0.19572633368E+03  0.22185280391E+03 -0.48291016660E+03  0.56633002155E+03  0.00000000000E+00 0.  1.
        -11    1    3    3    0    0  0.16207245825E+02  0.76818195199E+02 -0.18086265107E+03  0.19716746305E+03  0.00000000000E+00 0. -1.
          4    1    5    5  502    0  0.40898258013E+02  0.41769029783E+02 -0.73384557133E+02  0.93822239278E+02  0.00000000000E+00 0. -1.
          1    1    4    4  503    0 -0.30308837591E+03 -0.40274842760E+03 -0.40361970386E+03  0.64573812408E+03  0.00000000000E+00 0. -1.
         -2    1    4    4    0  503 -0.18856443695E+03  0.27912156053E+02 -0.22342957820E+03  0.29369441900E+03  0.00000000000E+00 0.  1.
         -3    1    5    5    0  502  0.23882097533E+03  0.34396242658E+02 -0.25437069972E+03  0.35060378298E+03  0.00000000000E+00 0.  1.
<mgrwt>
<rscale>  0 0.14111504E+04</rscale>
<asrwt>0</asrwt>
<pdfrwt beam="1">  1        1 0.28968719E+00 0.14111504E+04</pdfrwt>
<pdfrwt beam="2">  1       -1 0.40675284E-01 0.14111504E+04</pdfrwt>
<totfact> 0.20600110E+01</totfact>
</mgrwt>
</event>
<event>
11    1  0.2502641E-008  0.1592593E+04  0.7818608E-02  0.8825111E-01
         -2   -1    0    0    0  501 -0.00000000000E+00  0.00000000000E+00  0.54827050219E+03  0.54827050219E+03  0.00000000000E+00 0.  1.
          2   -1    0    0  501    0  0.00000000000E+00 -0.00000000000E+00 -0.11565240271E+04  0.11565240271E+04  0.00000000000E+00 0. -1.
         23    2    1    2    0    0 -0.34713607795E+03 -0.31636983887E+03 -0.48119344775E+03  0.67856610365E+03  0.91167380722E+02 0.  0.
        254    2    1    2    0    0  0.34713607795E+03  0.31636983887E+03 -0.12706007718E+03  0.10262284257E+04  0.90355253686E+03 0.  0.
         24    2    4    4    0    0  0.56778902829E+03  0.16424033506E+03  0.61909106432E+02  0.59954044628E+03  0.79099563594E+02 0.  0.
         11    1    3    3    0    0 -0.32225117418E+01 -0.61717376777E+01  0.38199501539E+01  0.79414700822E+01  0.00000000000E+00 0. -1.
        -11    1    3    3    0    0 -0.34391356620E+03 -0.31019810119E+03 -0.48501339790E+03  0.67062463357E+03  0.00000000000E+00 0.  1.
          4    1    5    5  502    0  0.30288860865E+03  0.11782251861E+03  0.60607130096E+02  0.33060078548E+03  0.00000000000E+00 0. -1.
          1    1    4    4  503    0 -0.21448270191E+03  0.86638226220E+02 -0.24740425072E+03  0.33870027301E+03  0.00000000000E+00 0. -1.
         -2    1    4    4    0  503 -0.61702484311E+01  0.65491277591E+02  0.58435067104E+02  0.87987706377E+02  0.00000000000E+00 0.  1.
         -3    1    5    5    0  502  0.26490041964E+03  0.46417816449E+02  0.13019763355E+01  0.26893966080E+03  0.00000000000E+00 0.  1.
<mgrwt>
<rscale>  0 0.15925929E+04</rscale>
<asrwt>0</asrwt>
<pdfrwt beam="1">  1        2 0.17792677E+00 0.15925929E+04</pdfrwt>
<pdfrwt beam="2">  1       -2 0.84349308E-01 0.15925929E+04</pdfrwt>
<totfact> 0.23672730E+01</totfact>
</mgrwt>
</event>
<event>
12    1  0.3614477E-008  0.1758441E+04  0.7818608E-02  0.8728718E-01
         -1   -1    0    0    0  501 -0.00000000000E+00  0.00000000000E+00  0.53582691329E+03  0.53582691329E+03  0.00000000000E+00 0.  1.
          1   -1    0    0  501    0  0.00000000000E+00 -0.00000000000E+00 -0.14426839302E+04  0.14426839302E+04  0.00000000000E+00 0. -1.
         23    2    1    2    0    0 -0.42135818061E+03 -0.27612880335E+03  0.12014372358E+03  0.52589626648E+03  0.91337486128E+02 0.  0.
        254    2    1    2    0    0  0.42135818061E+03  0.27612880335E+03 -0.10270007405E+04  0.14526145770E+04  0.89530372276E+03 0.  0.
        -24    2    4    4    0    0  0.60671487148E+03  0.14174223811E+03 -0.10329795040E+04  0.12109184122E+04  0.10527558132E+03 0.  0.
         24    2    4    4    0    0 -0.18535669087E+03  0.13438656524E+03  0.59787635499E+01  0.24169616477E+03  0.77229778472E+02 0.  0.
         11    1    3    3    0    0 -0.30249675257E+03 -0.19630164749E+03  0.42737932563E+02  0.36313241800E+03  0.00000000000E+00 0.  1.
        -11    1    3    3    0    0 -0.11886142804E+03 -0.79827155861E+02  0.77405791014E+02  0.16276384848E+03  0.00000000000E+00 0. -1.
          4    1    6    6  502    0 -0.14128729668E+03  0.96377927849E+02  0.38104288264E+02  0.17522197911E+03  0.00000000000E+00 0. -1.
          1    1    5    5  503    0  0.60574645641E+03  0.14940963704E+03 -0.10161266159E+04  0.11923780058E+04  0.00000000000E+00 0. -1.
         -2    1    5    5    0  503  0.96841506887E+00 -0.76673989300E+01 -0.16852888072E+02  0.18540406427E+02  0.00000000000E+00 0.  1.
         -3    1    6    6    0  502 -0.44069394189E+02  0.38008637395E+02 -0.32125524714E+02  0.66474185658E+02  0.00000000000E+00 0.  1.
<mgrwt>
<rscale>  0 0.17584412E+04</rscale>
<asrwt>0</asrwt>
<pdfrwt beam="1">  1        1 0.22195137E+00 0.17584412E+04</pdfrwt>
<pdfrwt beam="2">  1       -1 0.82434911E-01 0.17584412E+04</pdfrwt>
<totfact> 0.99338175E+00</totfact>
</mgrwt>
</event>
<event>
11    1  0.2502641E-008  0.2065324E+04  0.7818608E-02  0.8576674E-01
          2   -1    0    0  501    0  0.00000000000E+00  0.00000000000E+00  0.22552032205E+04  0.22552032205E+04  0.00000000000E+00 0. -1.
         -2   -1    0    0    0  501 -0.00000000000E+00 -0.00000000000E+00 -0.47285776254E+03  0.47285776254E+03  0.00000000000E+00 0.  1.
         23    2    1    2    0    0 -0.17634361986E+03 -0.81427593051E+03  0.76479673682E+03  0.11343029354E+04  0.87101879228E+02 0.  0.
        254    2    1    2    0    0  0.17634361986E+03  0.81427593051E+03  0.10175487212E+04  0.15937580477E+04  0.90028714932E+03 0.  0.
         24    2    4    4    0    0 -0.25931119001E+03  0.17159005659E+03  0.17699051255E+02  0.32154648034E+03  0.79959000860E+02 0.  0.
         11    1    3    3    0    0 -0.13893478757E+03 -0.73315843459E+03  0.70673312994E+03  0.10277625613E+04  0.00000000000E+00 0. -1.
        -11    1    3    3    0    0 -0.37408832289E+02 -0.81117495918E+02  0.58063606887E+02  0.10654037414E+03  0.00000000000E+00 0.  1.
          2    1    5    5  502    0 -0.16301808766E+03  0.11785592803E+03 -0.26200989831E+02  0.20285809952E+03  0.00000000000E+00 0. -1.
          3    1    4    4  503    0  0.31202342414E+03  0.42147244083E+03  0.58096066317E+03  0.78263205132E+03  0.00000000000E+00 0. -1.
         -4    1    4    4    0  503  0.12363138573E+03  0.22121343308E+03  0.41888900674E+03  0.48957951599E+03  0.00000000000E+00 0.  1.
         -1    1    5    5    0  502 -0.96293102356E+02  0.53734128562E+02  0.43900041086E+02  0.11868838082E+03  0.00000000000E+00 0.  1.
<mgrwt>
<rscale>  0 0.20653236E+04</rscale>
<asrwt>0</asrwt>
<pdfrwt beam="1">  1        2 0.34695434E+00 0.20653236E+04</pdfrwt>
<pdfrwt beam="2">  1       -2 0.72747349E-01 0.20653236E+04</pdfrwt>
<totfact> 0.75880013E+00</totfact>
</mgrwt>
</event>
<event>
11    1  0.2502641E-008  0.1728554E+04  0.7818608E-02  0.8745245E-01
          1   -1    0    0  501    0  0.00000000000E+00  0.00000000000E+00  0.85595900189E+03  0.85595900189E+03  0.00000000000E+00 0. -1.
         -1   -1    0    0    0  501 -0.00000000000E+00 -0.00000000000E+00 -0.87267540734E+03  0.87267540734E+03  0.00000000000E+00 0.  1.
         23    2    1    2    0    0 -0.37089307419E+03 -0.25590959924E+03  0.42895709057E+03  0.62867126517E+03  0.90398996840E+02 0.  0.
        254    2    1    2    0    0  0.37089307419E+03  0.25590959924E+03 -0.44567349603E+03  0.10999631441E+04  0.89902316865E+03 0.  0.
         24    2    4    4    0    0  0.63853590726E+03  0.27830505011E+03 -0.28509946578E+03  0.75730933787E+03  0.83987630401E+02 0.  0.
         13    1    3    3    0    0 -0.11101018888E+03 -0.67653833915E+02  0.71746999023E+02  0.14848547117E+03  0.00000000000E+00 0.  1.
        -13    1    3    3    0    0 -0.25988288531E+03 -0.18825576532E+03  0.35721009155E+03  0.48018579400E+03  0.00000000000E+00 0. -1.
          2    1    5    5  502    0  0.19678812871E+02  0.12958350953E+02 -0.27891846308E+02  0.36512047682E+02  0.00000000000E+00 0. -1.
          1    1    4    4  503    0 -0.43351554219E+02  0.48955840012E+02 -0.51526369821E+02  0.83252617445E+02  0.00000000000E+00 0. -1.
         -2    1    4    4    0  503 -0.22429127885E+03 -0.71351290892E+02 -0.10904766043E+03  0.25940118875E+03  0.00000000000E+00 0.  1.
         -1    1    5    5    0  502  0.61885709439E+03  0.26534669916E+03 -0.25720761947E+03  0.72079729019E+03  0.00000000000E+00 0.  1.
<mgrwt>
<rscale>  0 0.17285536E+04</rscale>
<asrwt>0</asrwt>
<pdfrwt beam="1">  1        1 0.13168600E+00 0.17285536E+04</pdfrwt>
<pdfrwt beam="2">  1       -1 0.13425775E+00 0.17285536E+04</pdfrwt>
<totfact> 0.87821400E+00</totfact>
</mgrwt>
</event>
<event>
12    1  0.2502641E-008  0.1268121E+04  0.7818608E-02  0.9055235E-01
         -2   -1    0    0    0  501 -0.00000000000E+00  0.00000000000E+00  0.30482138714E+03  0.30482138714E+03  0.00000000000E+00 0.  1.
          2   -1    0    0  501    0  0.00000000000E+00 -0.00000000000E+00 -0.13189116758E+04  0.13189116758E+04  0.00000000000E+00 0. -1.
         23    2    1    2    0    0  0.16791701442E+03 -0.75802849773E+01  0.53677271549E+02  0.19860936635E+03  0.91163844081E+02 0.  0.
        254    2    1    2    0    0 -0.16791701442E+03  0.75802849773E+01 -0.10677675602E+04  0.14251236966E+04  0.92876068148E+03 0.  0.
        -24    2    4    4    0    0  0.35525546867E+03 -0.13324941797E+03 -0.37036698451E+03  0.53821017191E+03  0.92393887884E+02 0.  0.
         24    2    4    4    0    0 -0.52317248310E+03  0.14082970295E+03 -0.69740057568E+03  0.88691352466E+03  0.81887636133E+02 0.  0.
         11    1    3    3    0    0  0.58907397439E+02 -0.77867797491E+01 -0.24698790770E+02  0.64348626072E+02  0.00000000000E+00 0. -1.
        -11    1    3    3    0    0  0.10900961699E+03  0.20649477180E+00  0.78376062319E+02  0.13426074028E+03  0.00000000000E+00 0.  1.
          2    1    6    6  502    0 -0.47096840640E+03  0.99539951416E+02 -0.61497826233E+03  0.78097228177E+03  0.00000000000E+00 0. -1.
          1    1    5    5  503    0  0.26878107234E+03 -0.11940400573E+03 -0.23263111324E+03  0.37499042158E+03  0.00000000000E+00 0. -1.
         -2    1    5    5    0  503  0.86474396334E+02 -0.13845412244E+02 -0.13773587127E+03  0.16321975032E+03  0.00000000000E+00 0.  1.
         -1    1    6    6    0  502 -0.52204076694E+02  0.41289751536E+02 -0.82422313350E+02  0.10594124288E+03  0.00000000000E+00 0.  1.
<mgrwt>
<rscale>  0 0.12681206E+04</rscale>
<asrwt>0</asrwt>
<pdfrwt beam="1">  1        2 0.20290949E+00 0.12681206E+04</pdfrwt>
<pdfrwt beam="2">  1       -2 0.46895597E-01 0.12681206E+04</pdfrwt>
<totfact> 0.68215616E+01</totfact>
</mgrwt>
</event>
<event>
12    1  0.2502641E-008  0.1918000E+04  0.7818608E-02  0.8645948E-01
         -2   -1    0    0    0  501 -0.00000000000E+00  0.00000000000E+00  0.10870043675E+04  0.10870043675E+04  0.00000000000E+00 0.  1.
          2   -1    0    0  501    0  0.00000000000E+00 -0.00000000000E+00 -0.84606926913E+03  0.84606926913E+03  0.00000000000E+00 0. -1.
         23    2    1    2    0    0 -0.45291651985E+03  0.42295363477E+03 -0.33289303885E+03  0.70959146563E+03  0.93161803673E+02 0.  0.
        254    2    1    2    0    0  0.45291651985E+03 -0.42295363477E+03  0.57382813725E+03  0.12234821710E+04  0.88521564639E+03 0.  0.
        -24    2    4    4    0    0  0.30137838231E+03 -0.24142435367E+03 -0.17478868905E+03  0.43432946330E+03  0.94743596110E+02 0.  0.
         24    2    4    4    0    0  0.15153813754E+03 -0.18152928111E+03  0.74861682630E+03  0.78915270773E+03  0.80113397615E+02 0.  0.
         13    1    3    3    0    0 -0.31755670595E+03  0.34701390485E+03 -0.26792274833E+03  0.54133493396E+03  0.00000000000E+00 0. -1.
        -13    1    3    3    0    0 -0.13535981391E+03  0.75939729919E+02 -0.64970290525E+02  0.16825653168E+03  0.00000000000E+00 0.  1.
          4    1    6    6  502    0  0.13527071705E+02 -0.57107968255E+02  0.25637626898E+03  0.26300778126E+03  0.00000000000E+00 0. -1.
          3    1    5    5  503    0  0.22882397468E+03 -0.14146214829E+03 -0.86800882260E+02  0.28267710192E+03  0.00000000000E+00 0. -1.
         -4    1    5    5    0  503  0.72554407635E+02 -0.99962205372E+02 -0.87987806786E+02  0.15165236138E+03  0.00000000000E+00 0.  1.
         -3    1    6    6    0  502  0.13801106584E+03 -0.12442131285E+03  0.49224055732E+03  0.52614492648E+03  0.00000000000E+00 0.  1.
<mgrwt>
<rscale>  0 0.19180000E+04</rscale>
<asrwt>0</asrwt>
<pdfrwt beam="1">  1        2 0.13016450E+00 0.19180000E+04</pdfrwt>
<pdfrwt beam="2">  1       -2 0.16723144E+00 0.19180000E+04</pdfrwt>
<totfact> 0.66610121E+00</totfact>
</mgrwt>
</event>
<event>
12    1  0.2502641E-008  0.2283577E+04  0.7818608E-02  0.8484425E-01
          2   -1    0    0  501    0  0.00000000000E+00  0.00000000000E+00  0.18778900744E+04  0.18778900744E+04  0.00000000000E+00 0. -1.
         -2   -1    0    0    0  501 -0.00000000000E+00 -0.00000000000E+00 -0.69422659244E+03  0.69422659244E+03  0.00000000000E+00 0.  1.
         23    2    1    2    0    0 -0.90395296911E+03  0.16960763661E+03  0.18576112897E+03  0.94271139960E+03  0.91103595697E+02 0.  0.
        254    2    1    2    0    0  0.90395296911E+03 -0.16960763661E+03  0.99790235294E+03  0.16294052672E+04  0.90180635282E+03 0.  0.
        -24    2    4    4    0    0  0.57295383425E+03 -0.16759508302E+03  0.11165252317E+04  0.12697080170E+04  0.95737386597E+02 0.  0.
         24    2    4    4    0    0  0.33099913486E+03 -0.20125535909E+01 -0.11862287880E+03  0.35969725022E+03  0.75804002473E+02 0.  0.
         11    1    3    3    0    0 -0.89591875896E+03  0.15759760368E+03  0.18459549703E+03  0.92821491308E+03  0.00000000000E+00 0.  1.
        -11    1    3    3    0    0 -0.80342101501E+01  0.12010032930E+02  0.11656319407E+01  0.14496486524E+02  0.00000000000E+00 0. -1.
          2    1    6    6  502    0  0.17882883966E+03 -0.11575702631E+02 -0.25421929106E+02  0.18099730734E+03  0.00000000000E+00 0. -1.
          1    1    5    5  503    0  0.30381917398E+03 -0.47293478288E+02  0.62541037892E+03  0.69690810415E+03  0.00000000000E+00 0. -1.
         -4    1    5    5    0  503  0.26913466026E+03 -0.12030160473E+03  0.49111485282E+03  0.57279991281E+03  0.00000000000E+00 0.  1.
         -1    1    6    6    0  502  0.15217029521E+03  0.95631490397E+01 -0.93200949697E+02  0.17869994289E+03  0.00000000000E+00 0.  1.
<mgrwt>
<rscale>  0 0.22835772E+04</rscale>
<asrwt>0</asrwt>
<pdfrwt beam="1">  1        2 0.28890616E+00 0.22835772E+04</pdfrwt>
<pdfrwt beam="2">  1       -2 0.10680409E+00 0.22835772E+04</pdfrwt>
<totfact> 0.50032062E+00</totfact>
</mgrwt>
</event>
<event>
11    1  0.2502641E-008  0.1129518E+04  0.7818608E-02  0.9176890E-01
         -2   -1    0    0    0  501 -0.00000000000E+00  0.00000000000E+00  0.13875822088E+03  0.13875822088E+03  0.00000000000E+00 0.  1.
          2   -1    0    0  501    0  0.00000000000E+00 -0.00000000000E+00 -0.22986222135E+04  0.22986222135E+04  0.00000000000E+00 0. -1.
         23    2    1    2    0    0 -0.13958089260E+03  0.40771391012E+02 -0.70631007581E+03  0.72688413814E+03  0.91331786289E+02 0.  0.
        254    2    1    2    0    0  0.13958089260E+03 -0.40771391012E+02 -0.14535539168E+04  0.17104962962E+04  0.88985024495E+03 0.  0.
         24    2    4    4    0    0  0.28606209484E+03 -0.18717269436E+03 -0.22474054101E+03  0.41715139749E+03  0.81497472585E+02 0.  0.
         13    1    3    3    0    0 -0.98581008434E+02  0.69446102116E+02 -0.45991001119E+03  0.47545577577E+03  0.00000000000E+00 0. -1.
        -13    1    3    3    0    0 -0.40999884164E+02 -0.28674711104E+02 -0.24640006462E+03  0.25142836237E+03  0.00000000000E+00 0.  1.
          2    1    5    5  502    0  0.12400757392E+02 -0.68932706487E+01 -0.36656559017E+02  0.39306478895E+02  0.00000000000E+00 0. -1.
          3    1    4    4  503    0 -0.17412578812E+03  0.27012945847E+02 -0.24420997533E+03  0.30114448589E+03  0.00000000000E+00 0. -1.
         -4    1    4    4    0  503  0.27644585882E+02  0.11938835750E+03 -0.98460340048E+03  0.99220041286E+03  0.00000000000E+00 0.  1.
         -1    1    5    5    0  502  0.27366133745E+03 -0.18027942371E+03 -0.18808398200E+03  0.37784491860E+03  0.00000000000E+00 0.  1.
<mgrwt>
<rscale>  0 0.11295180E+04</rscale>
<asrwt>0</asrwt>
<pdfrwt beam="1">  1        2 0.35363420E+00 0.11295180E+04</pdfrwt>
<pdfrwt beam="2">  1       -2 0.21347418E-01 0.11295180E+04</pdfrwt>
<totfact> 0.86187486E+01</totfact>
</mgrwt>
</event>
<event>
12    1  0.2502641E-008  0.1510956E+04  0.7818608E-02  0.8877200E-01
         -2   -1    0    0    0  501 -0.00000000000E+00  0.00000000000E+00  0.11168169590E+04  0.11168169590E+04  0.00000000000E+00 0.  1.
          2   -1    0    0  501    0  0.00000000000E+00 -0.00000000000E+00 -0.51104803848E+03  0.51104803848E+03  0.00000000000E+00 0. -1.
         23    2    1    2    0    0 -0.82991496054E+02 -0.46781963693E+03  0.16165254464E+03  0.51048906985E+03  0.93406338825E+02 0.  0.
        254    2    1    2    0    0  0.82991496054E+02  0.46781963693E+03  0.44411637587E+03  0.11173759276E+04  0.90859606382E+03 0.  0.
        -24    2    4    4    0    0  0.14108946556E+03  0.70089128107E+03  0.16392773950E+03  0.74033017188E+03  0.10030769888E+03 0.  0.
         24    2    4    4    0    0 -0.58097969504E+02 -0.23307164414E+03  0.28018863637E+03  0.37704575574E+03  0.77201454695E+02 0.  0.
         13    1    3    3    0    0 -0.39196199209E+02 -0.29082884061E+03  0.14521188519E+03  0.32742059826E+03  0.00000000000E+00 0.  1.
        -13    1    3    3    0    0 -0.43795296845E+02 -0.17699079632E+03  0.16440659448E+02  0.18306847159E+03  0.00000000000E+00 0. -1.
          4    1    6    6  502    0 -0.15173992125E+02 -0.90510634170E+02  0.16499953520E+03  0.18880485045E+03  0.00000000000E+00 0. -1.
          1    1    5    5  503    0  0.87646248256E+02  0.30747179467E+03  0.29154326796E+02  0.32104632706E+03  0.00000000000E+00 0. -1.
         -2    1    5    5    0  503  0.53443217302E+02  0.39341948640E+03  0.13477341271E+03  0.41928384482E+03  0.00000000000E+00 0.  1.
         -3    1    6    6    0  502 -0.42923977379E+02 -0.14256100997E+03  0.11518910117E+03  0.18824090529E+03  0.00000000000E+00 0.  1.
<mgrwt>
<rscale>  0 0.15109561E+04</rscale>
<asrwt>0</asrwt>
<pdfrwt beam="1">  1        2 0.78622776E-01 0.15109561E+04</pdfrwt>
<pdfrwt beam="2">  1       -2 0.17181799E+00 0.15109561E+04</pdfrwt>
<totfact> 0.11977154E+01</totfact>
</mgrwt>
</event>
<event>
12    1  0.2502641E-008  0.1492427E+04  0.7818608E-02  0.8889504E-01
         -1   -1    0    0    0  501 -0.00000000000E+00  0.00000000000E+00  0.67891726012E+03  0.67891726012E+03  0.00000000000E+00 0.  1.
          1   -1    0    0  501    0  0.00000000000E+00 -0.00000000000E+00 -0.82018069785E+03  0.82018069785E+03  0.00000000000E+00 0. -1.
         23    2    1    2    0    0  0.20908834501E+03 -0.32721073607E+02 -0.46652729245E+03  0.52023791258E+03  0.90615486578E+02 0.  0.
        254    2    1    2    0    0 -0.20908834501E+03  0.32721073607E+02  0.32526385472E+03  0.97886004538E+03  0.89865555614E+03 0.  0.
        -24    2    4    4    0    0 -0.37937399383E+03 -0.27809615671E+03  0.37784832340E+03  0.61067875983E+03  0.94324401083E+02 0.  0.
         24    2    4    4    0    0  0.17028564882E+03  0.31081723031E+03 -0.52584468677E+02  0.36818128555E+03  0.84780775135E+02 0.  0.
         13    1    3    3    0    0  0.23289018340E+02 -0.33870939739E+02 -0.12293676011E+03  0.12962664047E+03  0.00000000000E+00 0.  1.
        -13    1    3    3    0    0  0.18579932667E+03  0.11498661313E+01 -0.34359053235E+03  0.39061127211E+03  0.00000000000E+00 0. -1.
          2    1    6    6  502    0  0.66793583303E+02  0.17008480999E+03 -0.62731252887E+02  0.19319791782E+03  0.00000000000E+00 0. -1.
          1    1    5    5  503    0 -0.12878581555E+03 -0.14294186253E+03  0.18413719202E+03  0.26631685608E+03  0.00000000000E+00 0. -1.
         -2    1    5    5    0  503 -0.25058817828E+03 -0.13515429417E+03  0.19371113138E+03  0.34436190374E+03  0.00000000000E+00 0.  1.
         -1    1    6    6    0  502  0.10349206552E+03  0.14073242032E+03  0.10146784209E+02  0.17498336774E+03  0.00000000000E+00 0.  1.
<mgrwt>
<rscale>  0 0.14924273E+04</rscale>
<asrwt>0</asrwt>
<pdfrwt beam="1">  1        1 0.12618164E+00 0.14924273E+04</pdfrwt>
<pdfrwt beam="2">  1       -1 0.10444881E+00 0.14924273E+04</pdfrwt>
<totfact> 0.17722309E+01</totfact>
</mgrwt>
</event>
<event>
12    1  0.2502641E-008  0.1645993E+04  0.7818608E-02  0.8792780E-01
          2   -1    0    0  501    0  0.00000000000E+00  0.00000000000E+00  0.10673311558E+04  0.10673311558E+04  0.00000000000E+00 0. -1.
         -2   -1    0    0    0  501 -0.00000000000E+00 -0.00000000000E+00 -0.63459530888E+03  0.63459530888E+03  0.00000000000E+00 0.  1.
         23    2    1    2    0    0  0.83869494724E+02  0.44861672298E+03  0.52547640928E+03  0.70217145972E+03  0.92888351556E+02 0.  0.
        254    2    1    2    0    0 -0.83869494724E+02 -0.44861672298E+03 -0.92740562382E+02  0.99975500493E+03  0.88465710967E+03 0.  0.
        -24    2    4    4    0    0 -0.18701362678E+03 -0.65185857687E+03 -0.22824150017E+03  0.72246744747E+03  0.99856544115E+02 0.  0.
         24    2    4    4    0    0  0.10314413206E+03  0.20324185390E+03  0.13550093779E+03  0.27728755747E+03  0.81129046781E+02 0.  0.
         13    1    3    3    0    0  0.74313097348E+02  0.41926636666E+03  0.51775039644E+03  0.67035229220E+03  0.00000000000E+00 0. -1.
        -13    1    3    3    0    0  0.95563973762E+01  0.29350356322E+02  0.77260128363E+01  0.31819167515E+02  0.00000000000E+00 0.  1.
          4    1    6    6  502    0  0.15939166939E+02  0.16839679224E+02  0.48700380488E+02  0.53938473271E+02  0.00000000000E+00 0. -1.
          1    1    5    5  503    0 -0.18039646845E+03 -0.52490209832E+03 -0.21268463950E+03  0.59439032170E+03  0.00000000000E+00 0. -1.
         -2    1    5    5    0  503 -0.66171583336E+01 -0.12695647855E+03 -0.15556860670E+02  0.12807712577E+03  0.00000000000E+00 0.  1.
         -3    1    6    6    0  502  0.87204965118E+02  0.18640217467E+03  0.86800557297E+02  0.22334908420E+03  0.00000000000E+00 0.  1.
<mgrwt>
<rscale>  0 0.16459931E+04</rscale>
<asrwt>0</asrwt>
<pdfrwt beam="1">  1        2 0.16420479E+00 0.16459931E+04</pdfrwt>
<pdfrwt beam="2">  1       -2 0.97630047E-01 0.16459931E+04</pdfrwt>
<totfact> 0.19072858E+01</totfact>
</mgrwt>
</event>
<event>
11    1  0.2502641E-008  0.2074998E+04  0.7818608E-02  0.8572338E-01
         -2   -1    0    0    0  501 -0.00000000000E+00  0.00000000000E+00  0.62554910287E+03  0.62554910287E+03  0.00000000000E+00 0.  1.
          2   -1    0    0  501    0  0.00000000000E+00 -0.00000000000E+00 -0.17207347152E+04  0.17207347152E+04  0.00000000000E+00 0. -1.
         23    2    1    2    0    0 -0.18537716731E+03 -0.11942388731E+03  0.47291794821E+03  0.52961209329E+03  0.90613600510E+02 0.  0.
        254    2    1    2    0    0  0.18537716731E+03  0.11942388731E+03 -0.15681035605E+04  0.18166717248E+04  0.89034859469E+03 0.  0.
         24    2    4    4    0    0  0.34650445290E+03 -0.28439495264E+03 -0.65726757059E+03  0.79981542115E+03  0.82208415631E+02 0.  0.
         13    1    3    3    0    0 -0.18889051553E+03 -0.95695765027E+02  0.39624062511E+03  0.44927045228E+03  0.00000000000E+00 0.  1.
        -13    1    3    3    0    0  0.35133482180E+01 -0.23728122280E+02  0.76677323093E+02  0.80341641004E+02  0.00000000000E+00 0. -1.
          4    1    5    5  502    0  0.15302232260E+03 -0.74388296285E+02 -0.23961693438E+03  0.29388046052E+03  0.00000000000E+00 0. -1.
          3    1    4    4  503    0 -0.48836693013E+02  0.21916614440E+02 -0.12387504989E+03  0.13494587270E+03  0.00000000000E+00 0. -1.
         -4    1    4    4    0  503 -0.11229059257E+03  0.38190222551E+03 -0.78696094007E+03  0.88191043095E+03  0.00000000000E+00 0.  1.
         -3    1    5    5    0  502  0.19348213030E+03 -0.21000665635E+03 -0.41765063621E+03  0.50593496063E+03  0.00000000000E+00 0.  1.
<mgrwt>
<rscale>  0 0.20749979E+04</rscale>
<asrwt>0</asrwt>
<pdfrwt beam="1">  1        2 0.26472841E+00 0.20749979E+04</pdfrwt>
<pdfrwt beam="2">  1       -2 0.96238325E-01 0.20749979E+04</pdfrwt>
<totfact> 0.79734619E+00</totfact>
</mgrwt>
</event>
<event>
11    1  0.2502641E-008  0.2318978E+04  0.7818608E-02  0.8470476E-01
          2   -1    0    0  501    0  0.00000000000E+00  0.00000000000E+00  0.21717173670E+04  0.21717173670E+04  0.00000000000E+00 0. -1.
         -2   -1    0    0    0  501 -0.00000000000E+00 -0.00000000000E+00 -0.61905588227E+03  0.61905588227E+03  0.00000000000E+00 0.  1.
         23    2    1    2    0    0  0.15319661393E+03 -0.98883955922E+03  0.65750501714E+03  0.12010289531E+04  0.94259335015E+02 0.  0.
        254    2    1    2    0    0 -0.15319661393E+03  0.98883955922E+03  0.89515646755E+03  0.15897442961E+04  0.85129839025E+03 0.  0.
         24    2    4    4    0    0  0.10056205576E+03  0.96157908034E+03  0.84665882930E+03  0.12876295597E+04  0.80072811035E+02 0.  0.
         13    1    3    3    0    0  0.10295335131E+03 -0.86546025347E+03  0.57991984521E+03  0.10468657363E+04  0.00000000000E+00 0.  1.
        -13    1    3    3    0    0  0.50243262614E+02 -0.12337930575E+03  0.77585171930E+02  0.15416321684E+03  0.00000000000E+00 0. -1.
          2    1    5    5  502    0  0.37846123754E+02  0.47011446518E+03  0.36199156353E+03  0.59454001675E+03  0.00000000000E+00 0. -1.
          1    1    4    4  503    0 -0.90929422376E+02 -0.44109839487E+02  0.70140487720E+02  0.12301839623E+03  0.00000000000E+00 0. -1.
         -2    1    4    4    0  503 -0.16282924731E+03  0.71370318368E+02 -0.21642849474E+02  0.17909634015E+03  0.00000000000E+00 0.  1.
         -1    1    5    5    0  502  0.62715932001E+02  0.49146461516E+03  0.48466726577E+03  0.69308954299E+03  0.00000000000E+00 0.  1.
<mgrwt>
<rscale>  0 0.23189777E+04</rscale>
<asrwt>0</asrwt>
<pdfrwt beam="1">  1        2 0.33411036E+00 0.23189777E+04</pdfrwt>
<pdfrwt beam="2">  1       -2 0.95239367E-01 0.23189777E+04</pdfrwt>
<totfact> 0.44919458E+00</totfact>
</mgrwt>
</event>
<event>
12    1  0.2502641E-008  0.1756398E+04  0.7818608E-02  0.8729836E-01
         -2   -1    0    0    0  501 -0.00000000000E+00  0.00000000000E+00  0.76140451538E+03  0.76140451538E+03  0.00000000000E+00 0. -1.
          2   -1    0    0  501    0  0.00000000000E+00 -0.00000000000E+00 -0.10129092924E+04  0.10129092924E+04  0.00000000000E+00 0.  1.
         23    2    1    2    0    0 -0.67642769566E+02 -0.72362227167E+02  0.54632099906E+03  0.56258160427E+03  0.90661961437E+02 0.  0.
        254    2    1    2    0    0  0.67642769566E+02  0.72362227167E+02 -0.79782577613E+03  0.12117322036E+04  0.90661851287E+03 0.  0.
        -24    2    4    4    0    0  0.36149650246E+03  0.18161326607E+03 -0.78338369184E+03  0.88784193994E+03  0.10445191230E+03 0.  0.
         24    2    4    4    0    0 -0.29385373289E+03 -0.10925103890E+03 -0.14442084293E+02  0.32389026361E+03  0.80065743171E+02 0.  0.
         13    1    3    3    0    0 -0.55227100652E+02 -0.52446659815E+02  0.52615564889E+03  0.53163940000E+03  0.00000000000E+00 0. -1.
        -13    1    3    3    0    0 -0.12415668914E+02 -0.19915567353E+02  0.20165350170E+02  0.30942204269E+02  0.00000000000E+00 0.  1.
          4    1    6    6  502    0 -0.29133965944E+03 -0.10298460398E+03 -0.11797521020E+01  0.30900811904E+03  0.00000000000E+00 0. -1.
          1    1    5    5  503    0  0.21574812897E+03  0.50070423053E+02 -0.41289176889E+03  0.46854446453E+03  0.00000000000E+00 0. -1.
         -2    1    5    5    0  503  0.14574837349E+03  0.13154284301E+03 -0.37049192295E+03  0.41929747542E+03  0.00000000000E+00 0.  1.
         -3    1    6    6    0  502 -0.25140734551E+01 -0.62664349223E+01 -0.13262332191E+02  0.14882144574E+02  0.00000000000E+00 0.  1.
<mgrwt>
<rscale>  0 0.17563983E+04</rscale>
<asrwt>0</asrwt>
<pdfrwt beam="1">  1        2 0.15583220E+00 0.17563983E+04</pdfrwt>
<pdfrwt beam="2">  1       -2 0.11713916E+00 0.17563983E+04</pdfrwt>
<totfact> 0.13196492E+01</totfact>
</mgrwt>
</event>
<event>
12    1  0.2502641E-008  0.1715152E+04  0.7818608E-02  0.8752770E-01
         -1   -1    0    0    0  501 -0.00000000000E+00  0.00000000000E+00  0.48831077035E+03  0.48831077035E+03  0.00000000000E+00 0.  1.
          1   -1    0    0  501    0  0.00000000000E+00 -0.00000000000E+00 -0.15060824437E+04  0.15060824437E+04  0.00000000000E+00 0. -1.
         23    2    1    2    0    0 -0.27830065122E+03  0.54413412867E+03 -0.46556250260E+03  0.77374336344E+03  0.91635943753E+02 0.  0.
        254    2    1    2    0    0  0.27830065122E+03 -0.54413412867E+03 -0.55220917078E+03  0.12206498507E+04  0.90084287595E+03 0.  0.
        -24    2    4    4    0    0 -0.31858640009E+03 -0.26979247889E+03 -0.16675292029E+03  0.45471624832E+03  0.68374367038E+02 0.  0.
         24    2    4    4    0    0  0.59688705131E+03 -0.27434164978E+03 -0.38545625049E+03  0.76593360234E+03  0.80871931621E+02 0.  0.
         13    1    3    3    0    0 -0.33059921663E+01  0.29156660201E+02 -0.41904297538E+01  0.29641189582E+02  0.00000000000E+00 0.  1.
        -13    1    3    3    0    0 -0.27499465905E+03  0.51497746847E+03 -0.46137207285E+03  0.74410217386E+03  0.00000000000E+00 0. -1.
          2    1    6    6  502    0  0.36216242772E+03 -0.19259754006E+03 -0.20347723301E+03  0.45788472441E+03  0.00000000000E+00 0. -1.
          1    1    5    5  503    0 -0.27975218278E+03 -0.26053934956E+03 -0.15908409826E+03  0.41406495476E+03  0.00000000000E+00 0. -1.
         -2    1    5    5    0  503 -0.38834217307E+02 -0.92531293275E+01 -0.76688220303E+01  0.40651293553E+02  0.00000000000E+00 0.  1.
         -1    1    6    6    0  502  0.23472462359E+03 -0.81744109719E+02 -0.18197901748E+03  0.30804887793E+03  0.00000000000E+00 0.  1.
<mgrwt>
<rscale>  0 0.17151516E+04</rscale>
<asrwt>0</asrwt>
<pdfrwt beam="1">  1        1 0.23170499E+00 0.17151516E+04</pdfrwt>
<pdfrwt beam="2">  1       -1 0.75124734E-01 0.17151516E+04</pdfrwt>
<totfact> 0.10969593E+01</totfact>
</mgrwt>
</event>
<event>
12    1  0.2502641E-008  0.1481852E+04  0.7818608E-02  0.8896611E-01
          1   -1    0    0  501    0  0.00000000000E+00  0.00000000000E+00  0.33157697421E+03  0.33157697421E+03  0.00000000000E+00 0. -1.
         -1   -1    0    0    0  501 -0.00000000000E+00 -0.00000000000E+00 -0.16556381252E+04  0.16556381252E+04  0.00000000000E+00 0.  1.
         23    2    1    2    0    0 -0.33224166894E+03  0.74792596740E+02 -0.82780392636E+03  0.89974732524E+03  0.91145211988E+02 0.  0.
        254    2    1    2    0    0  0.33224166894E+03 -0.74792596740E+02 -0.49625722465E+03  0.10874677742E+04  0.90572427801E+03 0.  0.
        -24    2    4    4    0    0  0.28226304138E+03  0.38590769093E+03 -0.34675560858E+03  0.59398960430E+03  0.63142913159E+02 0.  0.
         24    2    4    4    0    0  0.49978627563E+02 -0.46070028767E+03 -0.14950161608E+03  0.49347816990E+03  0.80170772001E+02 0.  0.
         11    1    3    3    0    0 -0.37882373140E+02 -0.75710660546E+01 -0.44570924892E+02  0.58982731215E+02  0.00000000000E+00 0. -1.
        -11    1    3    3    0    0 -0.29435929580E+03  0.82363662794E+02 -0.78323300147E+03  0.84076459402E+03  0.00000000000E+00 0.  1.
          2    1    6    6  502    0  0.71796457437E+02 -0.37386781370E+03 -0.12402594379E+03  0.40039269244E+03  0.00000000000E+00 0. -1.
          1    1    5    5  503    0  0.25023658758E+03  0.35033045336E+03 -0.33271535894E+03  0.54410411356E+03  0.00000000000E+00 0. -1.
         -2    1    5    5    0  503  0.32026453802E+02  0.35577237569E+02 -0.14040249634E+02  0.49885490736E+02  0.00000000000E+00 0.  1.
         -1    1    6    6    0  502 -0.21817829874E+02 -0.86832473966E+02 -0.25475672287E+02  0.93085477460E+02  0.00000000000E+00 0.  1.
<mgrwt>
<rscale>  0 0.14818522E+04</rscale>
<asrwt>0</asrwt>
<pdfrwt beam="1">  1        1 0.51011842E-01 0.14818522E+04</pdfrwt>
<pdfrwt beam="2">  1       -1 0.25471356E+00 0.14818522E+04</pdfrwt>
<totfact> 0.48428213E+00</totfact>
</mgrwt>
</event>
<event>
12    1  0.2502641E-008  0.2935227E+04  0.7818608E-02  0.8262473E-01
         -1   -1    0    0    0  501 -0.00000000000E+00  0.00000000000E+00  0.14886835837E+04  0.14886835837E+04  0.00000000000E+00 0.  1.
          1   -1    0    0  501    0  0.00000000000E+00 -0.00000000000E+00 -0.14468419283E+04  0.14468419283E+04  0.00000000000E+00 0. -1.
         23    2    1    2    0    0  0.55360170793E+02 -0.83310716940E+03  0.10520231345E+04  0.13461000909E+04  0.90002639227E+02 0.  0.
        254    2    1    2    0    0 -0.55360170793E+02  0.83310716940E+03 -0.10101814790E+04  0.15894254210E+04  0.89926316740E+03 0.  0.
        -24    2    4    4    0    0 -0.34508165633E+03  0.84621469490E+03 -0.84461122678E+03  0.12463084887E+04  0.68964230919E+02 0.  0.
         24    2    4    4    0    0  0.28972148553E+03 -0.13107525503E+02 -0.16557025226E+03  0.34311693237E+03  0.78774199057E+02 0.  0.
         13    1    3    3    0    0 -0.22115089692E+02 -0.10932834437E+03  0.15280562556E+03  0.18918594894E+03  0.00000000000E+00 0. -1.
        -13    1    3    3    0    0  0.77475260485E+02 -0.72377882503E+03  0.89921750893E+03  0.11569141420E+04  0.00000000000E+00 0.  1.
          4    1    6    6  502    0  0.26229508489E+03  0.44220481442E+01 -0.12356671975E+03  0.28997758585E+03  0.00000000000E+00 0. -1.
          3    1    5    5  503    0 -0.32026352800E+03  0.77749763053E+03 -0.74985521473E+03  0.11266561747E+04  0.00000000000E+00 0. -1.
         -4    1    5    5    0  503 -0.24818128325E+02  0.68717064376E+02 -0.94756012056E+02  0.11965231402E+03  0.00000000000E+00 0.  1.
         -3    1    6    6    0  502  0.27426400648E+02 -0.17529573647E+02 -0.42003532511E+02  0.53139346516E+02  0.00000000000E+00 0.  1.
<mgrwt>
<rscale>  0 0.29352273E+04</rscale>
<asrwt>0</asrwt>
<pdfrwt beam="1">  1        1 0.22259107E+00 0.29352273E+04</pdfrwt>
<pdfrwt beam="2">  1       -1 0.22902824E+00 0.29352273E+04</pdfrwt>
<totfact> 0.58406012E-01</totfact>
</mgrwt>
</event>
<event>
12    1  0.2502641E-008  0.1495545E+04  0.7818608E-02  0.8887421E-01
          2   -1    0    0  501    0  0.00000000000E+00  0.00000000000E+00  0.23863058762E+04  0.23863058762E+04  0.00000000000E+00 0. -1.
         -2   -1    0    0    0  501 -0.00000000000E+00 -0.00000000000E+00 -0.23432193885E+03  0.23432193885E+03  0.00000000000E+00 0.  1.
         23    2    1    2    0    0 -0.41438024405E+03  0.73775932759E+01  0.10448214501E+04  0.11274557801E+04  0.87973052506E+02 0.  0.
        254    2    1    2    0    0  0.41438024405E+03 -0.73775932759E+01  0.11071624873E+04  0.14931720350E+04  0.91213405663E+03 0.  0.
        -24    2    4    4    0    0  0.58919512155E+03  0.27019334393E+03  0.63360810537E+03  0.91150130576E+03  0.96021168688E+02 0.  0.
         24    2    4    4    0    0 -0.17481487750E+03 -0.27757093721E+03  0.47355438190E+03  0.58167072921E+03  0.80506012385E+02 0.  0.
         13    1    3    3    0    0 -0.27935194285E+03 -0.17280891868E+02  0.60270342298E+03  0.66452054391E+03  0.00000000000E+00 0.  1.
        -13    1    3    3    0    0 -0.13502830120E+03  0.24658485143E+02  0.44211802712E+03  0.46293523620E+03  0.00000000000E+00 0. -1.
          2    1    6    6  502    0 -0.10437659485E+03 -0.20202244301E+03  0.37705409055E+03  0.44031503293E+03  0.00000000000E+00 0. -1.
          3    1    5    5  503    0  0.35169912671E+03  0.11592719921E+03  0.32577386713E+03  0.49321395332E+03  0.00000000000E+00 0. -1.
         -4    1    5    5    0  503  0.23749599485E+03  0.15426614472E+03  0.30783423825E+03  0.41828735244E+03  0.00000000000E+00 0.  1.
         -1    1    6    6    0  502 -0.70438282657E+02 -0.75548494200E+02  0.96500291352E+02  0.14135569628E+03  0.00000000000E+00 0.  1.
<mgrwt>
<rscale>  0 0.14955451E+04</rscale>
<asrwt>0</asrwt>
<pdfrwt beam="1">  1        2 0.36712397E+00 0.14955451E+04</pdfrwt>
<pdfrwt beam="2">  1       -2 0.36049531E-01 0.14955451E+04</pdfrwt>
<totfact> 0.28378216E+01</totfact>
</mgrwt>
</event>
<event>
12    1  0.2502641E-008  0.1961203E+04  0.7818608E-02  0.8624977E-01
         -2   -1    0    0    0  501 -0.00000000000E+00  0.00000000000E+00  0.55698953931E+03  0.55698953931E+03  0.00000000000E+00 0.  1.
          2   -1    0    0  501    0  0.00000000000E+00 -0.00000000000E+00 -0.17263871391E+04  0.17263871391E+04  0.00000000000E+00 0. -1.
         23    2    1    2    0    0 -0.67703345375E+03 -0.33836373379E+03 -0.62328279212E+03  0.98435611871E+03  0.87242281301E+02 0.  0.
        254    2    1    2    0    0  0.67703345375E+03  0.33836373379E+03 -0.54611480771E+03  0.12990205597E+04  0.90352018107E+03 0.  0.
        -24    2    4    4    0    0 -0.13980087125E+03  0.24253101790E+03  0.19653824084E+02  0.29732998926E+03  0.98251063441E+02 0.  0.
         24    2    4    4    0    0  0.81683432500E+03  0.95832715891E+02 -0.56576863180E+03  0.10016905705E+04  0.82991748650E+02 0.  0.
         11    1    3    3    0    0 -0.65280674063E+03 -0.34192526882E+03 -0.59675429225E+03  0.94825377162E+03  0.00000000000E+00 0.  1.
        -11    1    3    3    0    0 -0.24226713120E+02  0.35615350234E+01 -0.26528499867E+02  0.36102347091E+02  0.00000000000E+00 0. -1.
          4    1    6    6  502    0  0.81107944674E+03  0.96982877037E+02 -0.56850499952E+03  0.99521529422E+03  0.00000000000E+00 0. -1.
          1    1    5    5  503    0 -0.13423581807E+03  0.19080992530E+03  0.47859201361E+02  0.23815580111E+03  0.00000000000E+00 0. -1.
         -2    1    5    5    0  503 -0.55650531832E+01  0.51721092599E+02 -0.28205377277E+02  0.59174188156E+02  0.00000000000E+00 0.  1.
         -3    1    6    6    0  502  0.57548782580E+01 -0.11501611459E+01  0.27363677248E+01  0.64752762683E+01  0.00000000000E+00 0.  1.
<mgrwt>
<rscale>  0 0.19612033E+04</rscale>
<asrwt>0</asrwt>
<pdfrwt beam="1">  1        2 0.26559802E+00 0.19612033E+04</pdfrwt>
<pdfrwt beam="2">  1       -2 0.85690699E-01 0.19612033E+04</pdfrwt>
<totfact> 0.10451322E+01</totfact>
</mgrwt>
</event>
<event>
12    1  0.2502641E-008  0.1340170E+04  0.7818608E-02  0.8998302E-01
          2   -1    0    0  501    0  0.00000000000E+00  0.00000000000E+00  0.28611157780E+04  0.28611157780E+04  0.00000000000E+00 0. -1.
         -2   -1    0    0    0  501 -0.00000000000E+00 -0.00000000000E+00 -0.15693673886E+03  0.15693673886E+03  0.00000000000E+00 0.  1.
         23    2    1    2    0    0 -0.51349273550E+02  0.18957567043E+03  0.16017770657E+04  0.16164484553E+04  0.92952449314E+02 0.  0.
        254    2    1    2    0    0  0.51349273550E+02 -0.18957567043E+03  0.11024019735E+04  0.14016040616E+04  0.84298763428E+03 0.  0.
        -24    2    4    4    0    0 -0.29576554391E+03  0.20722306160E+02  0.88246261079E+03  0.93306219407E+03  0.62913652122E+02 0.  0.
         24    2    4    4    0    0  0.34711481746E+03 -0.21029797659E+03  0.21993936268E+03  0.46854186749E+03  0.80275917163E+02 0.  0.
         13    1    3    3    0    0 -0.40384435307E+02  0.10148682434E+03  0.53810610953E+03  0.54907983322E+03  0.00000000000E+00 0.  1.
        -13    1    3    3    0    0 -0.10964838243E+02  0.88088846090E+02  0.10636709562E+04  0.10673686221E+04  0.00000000000E+00 0. -1.
          4    1    6    6  502    0  0.32147358667E+02  0.13993747021E+01  0.54927722182E+01  0.32643245327E+02  0.00000000000E+00 0. -1.
          3    1    5    5  503    0 -0.31191759226E+02  0.22557149703E+02  0.10869830268E+03  0.11531293011E+03  0.00000000000E+00 0. -1.
         -4    1    5    5    0  503 -0.26457378468E+03 -0.18348435432E+01  0.77376430812E+03  0.81774926396E+03  0.00000000000E+00 0.  1.
         -3    1    6    6    0  502  0.31496745879E+03 -0.21169735129E+03  0.21444659046E+03  0.43589862216E+03  0.00000000000E+00 0.  1.
<mgrwt>
<rscale>  0 0.13401704E+04</rscale>
<asrwt>0</asrwt>
<pdfrwt beam="1">  1        2 0.44017162E+00 0.13401704E+04</pdfrwt>
<pdfrwt beam="2">  1       -2 0.24144116E-01 0.13401704E+04</pdfrwt>
<totfact> 0.31972283E+01</totfact>
</mgrwt>
</event>
<event>
12    1  0.2502641E-008  0.2198011E+04  0.7818608E-02  0.8519256E-01
         -1   -1    0    0    0  501 -0.00000000000E+00  0.00000000000E+00  0.84092767983E+03  0.84092767983E+03  0.00000000000E+00 0.  1.
          1   -1    0    0  501    0  0.00000000000E+00 -0.00000000000E+00 -0.14362865048E+04  0.14362865048E+04  0.00000000000E+00 0. -1.
         23    2    1    2    0    0 -0.59453900634E+03 -0.10198860147E+03 -0.95454153041E+03  0.11329870954E+04  0.92908127330E+02 0.  0.
        254    2    1    2    0    0  0.59453900634E+03  0.10198860147E+03  0.35918270545E+03  0.11442270892E+04  0.90352925298E+03 0.  0.
        -24    2    4    4    0    0  0.22998163218E+03 -0.30250504393E+03  0.44356130236E+03  0.58751925408E+03  0.63493245474E+02 0.  0.
         24    2    4    4    0    0  0.36455737415E+03  0.40449364540E+03 -0.84378596909E+02  0.55670783516E+03  0.79288573546E+02 0.  0.
         11    1    3    3    0    0 -0.58400429492E+03 -0.11155358940E+03 -0.91746226567E+03  0.10932713427E+04  0.00000000000E+00 0. -1.
        -11    1    3    3    0    0 -0.10534711419E+02  0.95649879301E+01 -0.37079264734E+02  0.39715752693E+02  0.00000000000E+00 0.  1.
          2    1    6    6  502    0  0.31358106829E+03  0.33198449299E+03 -0.42396338235E+02  0.45863301176E+03  0.00000000000E+00 0. -1.
          3    1    5    5  503    0  0.47118496308E+02 -0.10354465193E+03  0.11016247736E+03  0.15835851431E+03  0.00000000000E+00 0. -1.
         -4    1    5    5    0  503  0.18286313587E+03 -0.19896039200E+03  0.33339882500E+03  0.42916073977E+03  0.00000000000E+00 0.  1.
         -1    1    6    6    0  502  0.50976305861E+02  0.72509152411E+02 -0.41982258674E+02  0.98074823405E+02  0.00000000000E+00 0.  1.
<mgrwt>
<rscale>  0 0.21980110E+04</rscale>
<asrwt>0</asrwt>
<pdfrwt beam="1">  1        1 0.22096715E+00 0.21980110E+04</pdfrwt>
<pdfrwt beam="2">  1       -1 0.12937349E+00 0.21980110E+04</pdfrwt>
<totfact> 0.33920205E+00</totfact>
</mgrwt>
</event>
<event>
11    1  0.2502641E-008  0.1302166E+04  0.7818608E-02  0.9027849E-01
         -2   -1    0    0    0  501 -0.00000000000E+00  0.00000000000E+00  0.20200777576E+03  0.20200777576E+03  0.00000000000E+00 0.  1.
          2   -1    0    0  501    0  0.00000000000E+00 -0.00000000000E+00 -0.20984788886E+04  0.20984788886E+04  0.00000000000E+00 0. -1.
         23    2    1    2    0    0  0.34940200208E+02 -0.27893783419E+03 -0.17593194718E+03  0.34440700187E+03  0.92935461266E+02 0.  0.
        254    2    1    2    0    0 -0.34940200208E+02  0.27893783419E+03 -0.17205391656E+04  0.19560796625E+04  0.88711075548E+03 0.  0.
         24    2    4    4    0    0  0.34269184989E+03  0.39292650217E+02 -0.10474606137E+04  0.11056701517E+04  0.79693981733E+02 0.  0.
         13    1    3    3    0    0 -0.15246698447E+02 -0.36947078127E+02 -0.58336708913E+02  0.70715769122E+02  0.00000000000E+00 0. -1.
        -13    1    3    3    0    0  0.50186898655E+02 -0.24199075607E+03 -0.11759523827E+03  0.27369123275E+03  0.00000000000E+00 0.  1.
          4    1    5    5  502    0  0.26523935026E+03  0.92715839863E+00 -0.84136879026E+03  0.88218717615E+03  0.00000000000E+00 0. -1.
          1    1    4    4  503    0 -0.17435028660E+03  0.25920804140E+03 -0.36035259659E+03  0.47690756445E+03  0.00000000000E+00 0. -1.
         -2    1    4    4    0  503 -0.20328176350E+03 -0.19562857419E+02 -0.31272595532E+03  0.37350194630E+03  0.00000000000E+00 0.  1.
         -3    1    5    5    0  502  0.77452499637E+02  0.38365491819E+02 -0.20609182346E+03  0.22348297555E+03  0.00000000000E+00 0.  1.
<mgrwt>
<rscale>  0 0.13021660E+04</rscale>
<asrwt>0</asrwt>
<pdfrwt beam="1">  1        2 0.32284291E+00 0.13021660E+04</pdfrwt>
<pdfrwt beam="2">  1       -2 0.31078119E-01 0.13021660E+04</pdfrwt>
<totfact> 0.55458559E+01</totfact>
</mgrwt>
</event>
<event>
11    1  0.2502641E-008  0.2647309E+04  0.7818608E-02  0.8352307E-01
         -1   -1    0    0    0  501 -0.00000000000E+00  0.00000000000E+00  0.14214334410E+04  0.14214334410E+04  0.00000000000E+00 0.  1.
          1   -1    0    0  501    0  0.00000000000E+00 -0.00000000000E+00 -0.12326014243E+04  0.12326014243E+04  0.00000000000E+00 0. -1.
         23    2    1    2    0    0  0.95030505089E+03  0.12526482182E+03  0.75019594760E+03  0.12204416590E+04  0.88954583195E+02 0.  0.
        254    2    1    2    0    0 -0.95030505089E+03 -0.12526482182E+03 -0.56136393097E+03  0.14335932063E+04  0.90624999465E+03 0.  0.
         24    2    4    4    0    0 -0.89007940733E+03 -0.39825844387E+03 -0.55824319503E+03  0.11265154120E+04  0.80934351907E+02 0.  0.
         13    1    3    3    0    0  0.14263597602E+03 -0.61495606284E+01  0.87371263786E+02  0.16738152971E+03  0.00000000000E+00 0. -1.
        -13    1    3    3    0    0  0.80766907487E+03  0.13141438244E+03  0.66282468381E+03  0.10530601293E+04  0.00000000000E+00 0.  1.
          2    1    5    5  502    0 -0.75469248131E+03 -0.34643787050E+03 -0.50597549285E+03  0.97241510623E+03  0.00000000000E+00 0. -1.
          1    1    4    4  503    0 -0.96705169144E+01  0.17525290953E+03 -0.57014959508E+02  0.18454757329E+03  0.00000000000E+00 0. -1.
         -2    1    4    4    0  503 -0.50555126653E+02  0.97740712521E+02  0.53894223570E+02  0.12253022096E+03  0.00000000000E+00 0.  1.
         -1    1    5    5    0  502 -0.13538692602E+03 -0.51820573367E+02 -0.52267702177E+02  0.15410030581E+03  0.00000000000E+00 0.  1.
<mgrwt>
<rscale>  0 0.26473087E+04</rscale>
<asrwt>0</asrwt>
<pdfrwt beam="1">  1        1 0.18963099E+00 0.26473087E+04</pdfrwt>
<pdfrwt beam="2">  1       -1 0.21868207E+00 0.26473087E+04</pdfrwt>
<totfact> 0.99662435E-01</totfact>
</mgrwt>
</event>
<event>
12    1  0.2502641E-008  0.1282031E+04  0.7818608E-02  0.9043937E-01
          2   -1    0    0  501    0  0.00000000000E+00  0.00000000000E+00  0.22006489783E+04  0.22006489783E+04  0.00000000000E+00 0. -1.
         -2   -1    0    0    0  501 -0.00000000000E+00 -0.00000000000E+00 -0.18671804000E+03  0.18671804000E+03  0.00000000000E+00 0.  1.
         23    2    1    2    0    0 -0.32204201038E+03 -0.16809076483E+02  0.79338729255E+03  0.86107906354E+03  0.89443592217E+02 0.  0.
        254    2    1    2    0    0  0.32204201038E+03  0.16809076483E+02  0.12205436458E+04  0.15262879548E+04  0.85780797861E+03 0.  0.
        -24    2    4    4    0    0  0.24298319032E+03  0.34394010995E+03  0.26275240126E+03  0.50789032369E+03  0.10760170313E+03 0.  0.
         24    2    4    4    0    0  0.79058820053E+02 -0.32713103347E+03  0.95779124452E+03  0.10183976311E+04  0.80651452889E+02 0.  0.
         11    1    3    3    0    0 -0.15173275417E+02 -0.16354082913E+02  0.10572634950E+03  0.10805436268E+03  0.00000000000E+00 0.  1.
        -11    1    3    3    0    0 -0.30686873496E+03 -0.45499357048E+00  0.68766094304E+03  0.75302470086E+03  0.00000000000E+00 0. -1.
          4    1    6    6  502    0  0.38244432191E+02 -0.51494692790E+02  0.12990925225E+03  0.14488186153E+03  0.00000000000E+00 0. -1.
          1    1    5    5  503    0  0.61407423902E+02  0.16526868788E+03  0.13991172014E+03  0.22507754294E+03  0.00000000000E+00 0. -1.
         -2    1    5    5    0  503  0.18157576642E+03  0.17867142207E+03  0.12284068112E+03  0.28281278075E+03  0.00000000000E+00 0.  1.
         -3    1    6    6    0  502  0.40814387862E+02 -0.27563634068E+03  0.82788199227E+03  0.87351576957E+03  0.00000000000E+00 0.  1.
<mgrwt>
<rscale>  0 0.12820310E+04</rscale>
<asrwt>0</asrwt>
<pdfrwt beam="1">  1        2 0.33856136E+00 0.12820310E+04</pdfrwt>
<pdfrwt beam="2">  1       -2 0.28725854E-01 0.12820310E+04</pdfrwt>
<totfact> 0.56418220E+01</totfact>
</mgrwt>
</event>
<event>
12    1  0.2502641E-008  0.1534699E+04  0.7818608E-02  0.8861701E-01
         -1   -1    0    0    0  501 -0.00000000000E+00  0.00000000000E+00  0.13674542827E+04  0.13674542827E+04  0.00000000000E+00 0.  1.
          1   -1    0    0  501    0  0.00000000000E+00 -0.00000000000E+00 -0.43059939465E+03  0.43059939465E+03  0.00000000000E+00 0. -1.
         23    2    1    2    0    0 -0.38993673580E+03  0.20992364806E+03  0.32603237563E+02  0.45315456061E+03  0.90374159799E+02 0.  0.
        254    2    1    2    0    0  0.38993673580E+03 -0.20992364806E+03  0.90425165049E+03  0.13448991167E+04  0.89160753186E+03 0.  0.
        -24    2    4    4    0    0  0.10940268299E+03  0.25619693879E+03  0.70542930423E+03  0.76020261295E+03  0.51688402808E+02 0.  0.
         24    2    4    4    0    0  0.28053405281E+03 -0.46612058685E+03  0.19882234626E+03  0.58469650379E+03  0.79824306447E+02 0.  0.
         11    1    3    3    0    0 -0.87086216185E+02  0.88991518651E+02  0.24797854053E+02  0.12695839085E+03  0.00000000000E+00 0.  1.
        -11    1    3    3    0    0 -0.30285051961E+03  0.12093212941E+03  0.78053835106E+01  0.32619616976E+03  0.00000000000E+00 0. -1.
          4    1    6    6  502    0  0.43988739607E+02 -0.53295205124E+02  0.52908156216E+02  0.87032528951E+02  0.00000000000E+00 0. -1.
          3    1    5    5  503    0  0.10864843334E+02  0.19646219903E+02  0.27762487118E+02  0.35703983925E+02  0.00000000000E+00 0. -1.
         -4    1    5    5    0  503  0.98537839659E+02  0.23655071889E+03  0.67766681711E+03  0.72449862903E+03  0.00000000000E+00 0.  1.
         -3    1    6    6    0  502  0.23654531320E+03 -0.41282538173E+03  0.14591419004E+03  0.49766397484E+03  0.00000000000E+00 0.  1.
<mgrwt>
<rscale>  0 0.15346986E+04</rscale>
<asrwt>0</asrwt>
<pdfrwt beam="1">  1        1 0.66246061E-01 0.15346986E+04</pdfrwt>
<pdfrwt beam="2">  1       -1 0.21037758E+00 0.15346986E+04</pdfrwt>
<totfact> 0.66994682E+00</totfact>
</mgrwt>
</event>
<event>
11    1  0.2502641E-008  0.1349896E+04  0.7818608E-02  0.8990907E-01
          1   -1    0    0  501    0  0.00000000000E+00  0.00000000000E+00  0.12327679912E+04  0.12327679912E+04  0.00000000000E+00 0. -1.
         -1   -1    0    0    0  501 -0.00000000000E+00 -0.00000000000E+00 -0.36953831146E+03  0.36953831146E+03  0.00000000000E+00 0.  1.
         23    2    1    2    0    0 -0.34744143112E+03  0.12685930002E+03  0.32210602665E+03  0.49907024959E+03  0.92249615484E+02 0.  0.
        254    2    1    2    0    0  0.34744143112E+03 -0.12685930002E+03  0.54112365309E+03  0.11032360531E+04  0.88741543305E+03 0.  0.
         24    2    4    4    0    0 -0.19010178677E+03 -0.23557303559E+03 -0.32591668206E+01  0.31271096381E+03  0.78384821813E+02 0.  0.
         13    1    3    3    0    0 -0.21862086500E+03  0.91633905113E+02  0.14729796983E+03  0.27908519684E+03  0.00000000000E+00 0. -1.
        -13    1    3    3    0    0 -0.12882056612E+03  0.35225394911E+02  0.17480805683E+03  0.21998505275E+03  0.00000000000E+00 0.  1.
          4    1    5    5  502    0 -0.12333887557E+03 -0.18539264527E+03 -0.30747493738E+02  0.22478505181E+03  0.00000000000E+00 0. -1.
          3    1    4    4  503    0  0.52638529131E+03  0.13235252027E+03  0.53662225918E+03  0.76325756700E+03  0.00000000000E+00 0. -1.
         -4    1    4    4    0  503  0.11157926573E+02 -0.23638784702E+02  0.77605607294E+01  0.27267522264E+02  0.00000000000E+00 0.  1.
         -3    1    5    5    0  502 -0.66762911198E+02 -0.50180390319E+02  0.27488326918E+02  0.87925911999E+02  0.00000000000E+00 0.  1.
<mgrwt>
<rscale>  0 0.13498963E+04</rscale>
<asrwt>0</asrwt>
<pdfrwt beam="1">  1        1 0.18965661E+00 0.13498963E+04</pdfrwt>
<pdfrwt beam="2">  1       -1 0.56852048E-01 0.13498963E+04</pdfrwt>
<totfact> 0.31003290E+01</totfact>
</mgrwt>
</event>
<event>
12    1  0.2502641E-008  0.1620446E+04  0.7818608E-02  0.8808085E-01
          1   -1    0    0  501    0  0.00000000000E+00  0.00000000000E+00  0.90717430701E+03  0.90717430701E+03  0.00000000000E+00 0. -1.
         -1   -1    0    0    0  501 -0.00000000000E+00 -0.00000000000E+00 -0.72363280525E+03  0.72363280525E+03  0.00000000000E+00 0.  1.
         23    2    1    2    0    0  0.31328770953E+03 -0.45095854633E+03 -0.41940889383E+02  0.55786789268E+03  0.89133316030E+02 0.  0.
        254    2    1    2    0    0 -0.31328770953E+03  0.45095854633E+03  0.22548239114E+03  0.10729392196E+04  0.89378043207E+03 0.  0.
        -24    2    4    4    0    0 -0.46994346618E+03  0.53209267188E+03 -0.70310167428E+02  0.71970320482E+03  0.95182511520E+02 0.  0.
         24    2    4    4    0    0  0.15665575665E+03 -0.81134125550E+02  0.29579255856E+03  0.35323601477E+03  0.78477206920E+02 0.  0.
         13    1    3    3    0    0  0.17996657541E+03 -0.25731262050E+03 -0.68136471199E+02  0.32131033541E+03  0.00000000000E+00 0.  1.
        -13    1    3    3    0    0  0.13332113413E+03 -0.19364592583E+03  0.26195581815E+02  0.23655755727E+03  0.00000000000E+00 0. -1.
          4    1    6    6  502    0  0.13582348088E+03 -0.49182280401E+02  0.17696800446E+03  0.22843946521E+03  0.00000000000E+00 0. -1.
          1    1    5    5  503    0 -0.31008398512E+03  0.28403746708E+03 -0.26265334320E+02  0.42133030786E+03  0.00000000000E+00 0. -1.
         -2    1    5    5    0  503 -0.15985948106E+03  0.24805520480E+03 -0.44044833108E+02  0.29837289695E+03  0.00000000000E+00 0.  1.
         -3    1    6    6    0  502  0.20832275766E+02 -0.31951845148E+02  0.11882455411E+03  0.12479654955E+03  0.00000000000E+00 0.  1.
<mgrwt>
<rscale>  0 0.16204457E+04</rscale>
<asrwt>0</asrwt>
<pdfrwt beam="1">  1        1 0.13956528E+00 0.16204457E+04</pdfrwt>
<pdfrwt beam="2">  1       -1 0.11132812E+00 0.16204457E+04</pdfrwt>
<totfact> 0.12758870E+01</totfact>
</mgrwt>
</event>
<event>
11    1  0.2502641E-008  0.2013314E+04  0.7818608E-02  0.8600421E-01
         -1   -1    0    0    0  501 -0.00000000000E+00  0.00000000000E+00  0.93820604178E+03  0.93820604178E+03  0.00000000000E+00 0.  1.
          1   -1    0    0  501    0  0.00000000000E+00 -0.00000000000E+00 -0.10801016201E+04  0.10801016201E+04  0.00000000000E+00 0. -1.
         23    2    1    2    0    0 -0.46474100637E+03 -0.59801183328E+03  0.20512866288E+03  0.78959335452E+03  0.88190370387E+02 0.  0.
        254    2    1    2    0    0  0.46474100637E+03  0.59801183328E+03 -0.34702424122E+03  0.12287143074E+04  0.90316702189E+03 0.  0.
         24    2    4    4    0    0  0.10985299965E+02  0.48264585145E+02 -0.47473596818E+03  0.48387288122E+03  0.79426561703E+02 0.  0.
         11    1    3    3    0    0 -0.20403597631E+03 -0.22810881100E+03  0.12206184863E+03  0.32948961164E+03  0.00000000000E+00 0. -1.
        -11    1    3    3    0    0 -0.26070503006E+03 -0.36990302228E+03  0.83066814248E+02  0.46010374289E+03  0.00000000000E+00 0.  1.
          4    1    5    5  502    0 -0.22234496397E+02  0.45649558280E+02 -0.38143543592E+03  0.38480026868E+03  0.00000000000E+00 0. -1.
          3    1    4    4  503    0  0.40430453432E+03  0.55208278956E+03  0.12012372684E+03  0.69475698827E+03  0.00000000000E+00 0. -1.
         -4    1    4    4    0  503  0.49451172080E+02 -0.23355414185E+01  0.75880001152E+01  0.50084437898E+02  0.00000000000E+00 0.  1.
         -3    1    5    5    0  502  0.33219796361E+02  0.26150268648E+01 -0.93300532260E+02  0.99072612541E+02  0.00000000000E+00 0.  1.
<mgrwt>
<rscale>  0 0.20133136E+04</rscale>
<asrwt>0</asrwt>
<pdfrwt beam="1">  1        1 0.16616948E+00 0.20133136E+04</pdfrwt>
<pdfrwt beam="2">  1       -1 0.14433939E+00 0.20133136E+04</pdfrwt>
<totfact> 0.47041802E+00</totfact>
</mgrwt>
</event>
<event>
12    1  0.2502641E-008  0.1613373E+04  0.7818608E-02  0.8812375E-01
          1   -1    0    0  501    0  0.00000000000E+00  0.00000000000E+00  0.11055258290E+04  0.11055258290E+04  0.00000000000E+00 0. -1.
         -1   -1    0    0    0  501 -0.00000000000E+00 -0.00000000000E+00 -0.58862746640E+03  0.58862746640E+03  0.00000000000E+00 0.  1.
         23    2    1    2    0    0  0.53988787607E+03 -0.44015559031E+02  0.24867118974E+03  0.60315181882E+03  0.92403829838E+02 0.  0.
        254    2    1    2    0    0 -0.53988787607E+03  0.44015559031E+02  0.26822717289E+03  0.10910014766E+04  0.90825223233E+03 0.  0.
        -24    2    4    4    0    0 -0.49664081712E+03  0.39609480845E+03  0.54354391629E+01  0.64305077458E+03  0.99707352685E+02 0.  0.
         24    2    4    4    0    0 -0.43247058951E+02 -0.35207924942E+03  0.26279173372E+03  0.44795070203E+03  0.75962031024E+02 0.  0.
         13    1    3    3    0    0  0.39814413891E+03 -0.29608274367E+02  0.22633730358E+03  0.45893788278E+03  0.00000000000E+00 0. -1.
        -13    1    3    3    0    0  0.14174373716E+03 -0.14407284664E+02  0.22333886159E+02  0.14421393603E+03  0.00000000000E+00 0.  1.
          2    1    6    6  502    0  0.57535296601E+01 -0.19785533414E+03  0.11573162449E+03  0.22928943556E+03  0.00000000000E+00 0. -1.
          3    1    5    5  503    0 -0.36982170734E+03  0.29403801350E+03  0.47697678330E+02  0.47487000023E+03  0.00000000000E+00 0. -1.
         -4    1    5    5    0  503 -0.12681910978E+03  0.10205679495E+03 -0.42262239167E+02  0.16818077435E+03  0.00000000000E+00 0.  1.
         -1    1    6    6    0  502 -0.49000588612E+02 -0.15422391528E+03  0.14706010923E+03  0.21866126647E+03  0.00000000000E+00 0.  1.
<mgrwt>
<rscale>  0 0.16133727E+04</rscale>
<asrwt>0</asrwt>
<pdfrwt beam="1">  1        1 0.17008090E+00 0.16133727E+04</pdfrwt>
<pdfrwt beam="2">  1       -1 0.90558072E-01 0.16133727E+04</pdfrwt>
<totfact> 0.14344115E+01</totfact>
</mgrwt>
</event>
<event>
12    1  0.2502641E-008  0.2011746E+04  0.7818608E-02  0.8601149E-01
         -2   -1    0    0    0  501 -0.00000000000E+00  0.00000000000E+00  0.54466974852E+03  0.54466974852E+03  0.00000000000E+00 0. -1.
          2   -1    0    0  501    0  0.00000000000E+00 -0.00000000000E+00 -0.18576028517E+04  0.18576028517E+04  0.00000000000E+00 0.  1.
         23    2    1    2    0    0 -0.55520681724E+03  0.47251077443E+03 -0.12263922487E+03  0.74430198829E+03  0.86162801930E+02 0.  0.
        254    2    1    2    0    0  0.55520681724E+03 -0.47251077443E+03 -0.11902938783E+04  0.16579706120E+04  0.89473235745E+03 0.  0.
        -24    2    4    4    0    0  0.41676731796E+02 -0.12817782415E+03  0.12205502943E+03  0.20491624664E+03  0.94481391556E+02 0.  0.
         24    2    4    4    0    0  0.51353008545E+03 -0.34433295028E+03 -0.13123489078E+04  0.14530543653E+04  0.82637785405E+02 0.  0.
         13    1    3    3    0    0 -0.14376409120E+03  0.15092382687E+03 -0.67962710929E+02  0.21923741814E+03  0.00000000000E+00 0.  1.
        -13    1    3    3    0    0 -0.41144272605E+03  0.32158694756E+03 -0.54676513942E+02  0.52506457016E+03  0.00000000000E+00 0. -1.
          2    1    6    6  502    0  0.17522185973E+03 -0.13470741725E+03 -0.55750271762E+03  0.59971498943E+03  0.00000000000E+00 0. -1.
          1    1    5    5  503    0 -0.25227784932E+02 -0.74595468876E+02  0.62636055975E+02  0.10061908675E+03  0.00000000000E+00 0. -1.
         -2    1    5    5    0  503  0.66904516728E+02 -0.53582355275E+02  0.59418973452E+02  0.10429715989E+03  0.00000000000E+00 0.  1.
         -1    1    6    6    0  502  0.33830822571E+03 -0.20962553303E+03 -0.75484619014E+03  0.85333937589E+03  0.00000000000E+00 0.  1.
<mgrwt>
<rscale>  0 0.20117456E+04</rscale>
<asrwt>0</asrwt>
<pdfrwt beam="1">  1        2 0.28578506E+00 0.20117456E+04</pdfrwt>
<pdfrwt beam="2">  1       -2 0.83795344E-01 0.20117456E+04</pdfrwt>
<totfact> 0.92605730E+00</totfact>
</mgrwt>
</event>
<event>
12    1  0.2502641E-008  0.1540690E+04  0.7818608E-02  0.8857836E-01
          2   -1    0    0  501    0  0.00000000000E+00  0.00000000000E+00  0.47552917420E+03  0.47552917420E+03  0.00000000000E+00 0. -1.
         -2   -1    0    0    0  501 -0.00000000000E+00 -0.00000000000E+00 -0.12479389707E+04  0.12479389707E+04  0.00000000000E+00 0.  1.
         23    2    1    2    0    0 -0.17312108906E+03 -0.18090385488E+03 -0.77468623977E+03  0.81943978662E+03  0.92982135989E+02 0.  0.
        254    2    1    2    0    0  0.17312108906E+03  0.18090385488E+03  0.22764433068E+01  0.90402835824E+03  0.86865699452E+03 0.  0.
        -24    2    4    4    0    0  0.11031760168E+03  0.52533916909E+03 -0.57769746249E+01  0.54507549033E+03  0.94460049202E+02 0.  0.
         24    2    4    4    0    0  0.62803487380E+02 -0.34443531422E+03  0.80534179317E+01  0.35895286791E+03  0.78754937219E+02 0.  0.
         13    1    3    3    0    0 -0.26502817356E+02 -0.70392792148E+01 -0.19187009493E+03  0.19381972064E+03  0.00000000000E+00 0. -1.
        -13    1    3    3    0    0 -0.14661827170E+03 -0.17386457566E+03 -0.58281614484E+03  0.62562006597E+03  0.00000000000E+00 0.  1.
          4    1    6    6  502    0 -0.60129203754E+01 -0.19745588108E+02 -0.16093539943E+02  0.26173373666E+02  0.00000000000E+00 0. -1.
          3    1    5    5  503    0  0.18340656940E+02  0.12562660935E+03  0.38163192203E+02  0.13257018486E+03  0.00000000000E+00 0. -1.
         -4    1    5    5    0  503  0.91976944740E+02  0.39971255975E+03 -0.43940166828E+02  0.41250530547E+03  0.00000000000E+00 0.  1.
         -3    1    6    6    0  502  0.68816407755E+02 -0.32468972611E+03  0.24146957875E+02  0.33277949425E+03  0.00000000000E+00 0.  1.
<mgrwt>
<rscale>  0 0.15406900E+04</rscale>
<asrwt>0</asrwt>
<pdfrwt beam="1">  1        2 0.73158334E-01 0.15406900E+04</pdfrwt>
<pdfrwt beam="2">  1       -2 0.19199061E+00 0.15406900E+04</pdfrwt>
<totfact> 0.94403109E+00</totfact>
</mgrwt>
</event>
<event>
12    1  0.2502641E-008  0.1636728E+04  0.7818608E-02  0.8798297E-01
          2   -1    0    0  501    0  0.00000000000E+00  0.00000000000E+00  0.13291645432E+04  0.13291645432E+04  0.00000000000E+00 0. -1.
         -2   -1    0    0    0  501 -0.00000000000E+00 -0.00000000000E+00 -0.50386526731E+03  0.50386526731E+03  0.00000000000E+00 0.  1.
         23    2    1    2    0    0  0.15119397139E+03  0.23859354315E+03 -0.25811633357E+03  0.39314554410E+03  0.90293307475E+02 0.  0.
        254    2    1    2    0    0 -0.15119397139E+03 -0.23859354315E+03  0.10834156095E+04  0.14398842664E+04  0.90536778274E+03 0.  0.
        -24    2    4    4    0    0 -0.16512404629E+03 -0.17521683053E+03  0.12328500206E+04  0.12579815327E+04  0.68054939526E+02 0.  0.
         24    2    4    4    0    0  0.13930074902E+02 -0.63376712615E+02 -0.14943441117E+03  0.18190273374E+03  0.80915428768E+02 0.  0.
         11    1    3    3    0    0  0.13281426642E+03  0.14896991602E+03 -0.21025240059E+03  0.28989263047E+03  0.00000000000E+00 0.  1.
        -11    1    3    3    0    0  0.18379704969E+02  0.89623627126E+02 -0.47863932978E+02  0.10325291363E+03  0.00000000000E+00 0. -1.
          2    1    6    6  502    0 -0.69196742932E+01 -0.53010467248E+02 -0.32265092683E+02  0.62442195156E+02  0.00000000000E+00 0. -1.
          1    1    5    5  503    0 -0.15721184948E+02 -0.39874985893E+01  0.18834965521E+03  0.18904668318E+03  0.00000000000E+00 0. -1.
         -2    1    5    5    0  503 -0.14940286135E+03 -0.17122933195E+03  0.10445003654E+04  0.10689348495E+04  0.00000000000E+00 0.  1.
         -1    1    6    6    0  502  0.20849749195E+02 -0.10366245367E+02 -0.11716931849E+03  0.11946053859E+03  0.00000000000E+00 0.  1.
<mgrwt>
<rscale>  0 0.16367283E+04</rscale>
<asrwt>0</asrwt>
<pdfrwt beam="1">  1        2 0.20448685E+00 0.16367283E+04</pdfrwt>
<pdfrwt beam="2">  1       -2 0.77517734E-01 0.16367283E+04</pdfrwt>
<totfact> 0.22554289E+01</totfact>
</mgrwt>
</event>
<event>
11    1  0.2502641E-008  0.2037770E+04  0.7818608E-02  0.8589163E-01
         -2   -1    0    0    0  501 -0.00000000000E+00  0.00000000000E+00  0.17177933353E+04  0.17177933353E+04  0.00000000000E+00 0.  1.
          2   -1    0    0  501    0  0.00000000000E+00 -0.00000000000E+00 -0.60433757546E+03  0.60433757546E+03  0.00000000000E+00 0. -1.
         23    2    1    2    0    0 -0.79854078672E+03 -0.18101878088E+02  0.24838793339E+03  0.84099848226E+03  0.87102328768E+02 0.  0.
        254    2    1    2    0    0  0.79854078672E+03  0.18101878088E+02  0.86506782647E+03  0.14811324285E+04  0.89856322002E+03 0.  0.
         24    2    4    4    0    0  0.59246945430E+03  0.26380230571E+03  0.16431469335E+03  0.67370459443E+03  0.79163446898E+02 0.  0.
         11    1    3    3    0    0 -0.47371509879E+03 -0.79399549497E+01  0.10235817879E+03  0.48471252766E+03  0.00000000000E+00 0.  1.
        -11    1    3    3    0    0 -0.32482568793E+03 -0.10161923138E+02  0.14602975460E+03  0.35628595460E+03  0.00000000000E+00 0. -1.
          2    1    5    5  502    0  0.75276722417E+02  0.55371458958E+02  0.43864175450E+02  0.10323104810E+03  0.00000000000E+00 0. -1.
          1    1    4    4  503    0 -0.26519948402E+00 -0.69392024696E+01 -0.19703536971E+02  0.20891439176E+02  0.00000000000E+00 0. -1.
         -2    1    4    4    0  503  0.20633653190E+03 -0.23876122516E+03  0.72045667010E+03  0.78653639491E+03  0.00000000000E+00 0.  1.
         -1    1    5    5    0  502  0.51719273189E+03  0.20843084676E+03  0.12045051790E+03  0.57047354633E+03  0.00000000000E+00 0.  1.
<mgrwt>
<rscale>  0 0.20377704E+04</rscale>
<asrwt>0</asrwt>
<pdfrwt beam="1">  1        2 0.92975012E-01 0.20377704E+04</pdfrwt>
<pdfrwt beam="2">  1       -2 0.26427590E+00 0.20377704E+04</pdfrwt>
<totfact> 0.23923641E+00</totfact>
</mgrwt>
</event>
<event>
11    1  0.2502641E-008  0.1274506E+04  0.7818608E-02  0.9050030E-01
          1   -1    0    0  501    0  0.00000000000E+00  0.00000000000E+00  0.48574689467E+03  0.48574689467E+03  0.00000000000E+00 0. -1.
         -1   -1    0    0    0  501 -0.00000000000E+00 -0.00000000000E+00 -0.83601389787E+03  0.83601389787E+03  0.00000000000E+00 0.  1.
         23    2    1    2    0    0 -0.30409733847E+03  0.58387642147E+02 -0.98896060857E+02  0.33763699074E+03  0.91290736880E+02 0.  0.
        254    2    1    2    0    0  0.30409733847E+03 -0.58387642147E+02 -0.25137094234E+03  0.98412380181E+03  0.89968216533E+03 0.  0.
         24    2    4    4    0    0 -0.27420599590E+03  0.12133985154E+03 -0.13592221053E+03  0.33886218926E+03  0.80252403307E+02 0.  0.
         13    1    3    3    0    0 -0.30637783458E+02  0.16114068949E+02  0.15859800634E+02  0.38077162045E+02  0.00000000000E+00 0. -1.
        -13    1    3    3    0    0 -0.27345955501E+03  0.42273573198E+02 -0.11475586149E+03  0.29955982869E+03  0.00000000000E+00 0.  1.
          4    1    5    5  502    0 -0.27870705549E+03  0.11349624246E+03 -0.12873132602E+03  0.32730837773E+03  0.00000000000E+00 0. -1.
          3    1    4    4  503    0  0.54644163877E+03 -0.18009285068E+03 -0.56332528579E+02  0.57810488081E+03  0.00000000000E+00 0. -1.
         -4    1    4    4    0  503  0.31861695602E+02  0.36535698834E+00 -0.59116203229E+02  0.67156731729E+02  0.00000000000E+00 0.  1.
         -3    1    5    5    0  502  0.45010595912E+01  0.78436090815E+01 -0.71908845161E+01  0.11553811535E+02  0.00000000000E+00 0.  1.
<mgrwt>
<rscale>  0 0.12745056E+04</rscale>
<asrwt>0</asrwt>
<pdfrwt beam="1">  1        1 0.74730292E-01 0.12745056E+04</pdfrwt>
<pdfrwt beam="2">  1       -1 0.12861752E+00 0.12745056E+04</pdfrwt>
<totfact> 0.23664619E+01</totfact>
</mgrwt>
</event>
<event>
12    1  0.2502641E-008  0.1612797E+04  0.7818608E-02  0.8812725E-01
         -2   -1    0    0    0  501 -0.00000000000E+00  0.00000000000E+00  0.31184139257E+03  0.31184139257E+03  0.00000000000E+00 0.  1.
          2   -1    0    0  501    0  0.00000000000E+00 -0.00000000000E+00 -0.20852858349E+04  0.20852858349E+04  0.00000000000E+00 0. -1.
         23    2    1    2    0    0 -0.20656293281E+03  0.50169507888E+02 -0.13702200478E+04  0.13904643611E+04  0.10345499145E+03 0.  0.
        254    2    1    2    0    0  0.20656293281E+03 -0.50169507888E+02 -0.40322439451E+03  0.10066628664E+04  0.89754943569E+03 0.  0.
        -24    2    4    4    0    0  0.97541166623E+02  0.33016530527E+03 -0.47820790792E+03  0.59636675875E+03  0.91908104927E+02 0.  0.
         24    2    4    4    0    0  0.10902176618E+03 -0.38033481316E+03  0.74983513414E+02  0.41029610764E+03  0.78613313471E+02 0.  0.
         11    1    3    3    0    0 -0.46445214902E+01  0.33287401496E+02 -0.21431447280E+03  0.21693389760E+03  0.00000000000E+00 0.  1.
        -11    1    3    3    0    0 -0.20191841132E+03  0.16882106392E+02 -0.11559055750E+04  0.11735304635E+04  0.00000000000E+00 0. -1.
          4    1    6    6  502    0  0.11995382235E+02 -0.76672905246E+02 -0.15024972451E+02  0.79046653256E+02  0.00000000000E+00 0. -1.
          3    1    5    5  503    0  0.82391230463E+02  0.14636951316E+03 -0.18398614296E+03  0.24912496872E+03  0.00000000000E+00 0. -1.
         -4    1    5    5    0  503  0.15149936160E+02  0.18379579212E+03 -0.29422176497E+03  0.34724179003E+03  0.00000000000E+00 0.  1.
         -3    1    6    6    0  502  0.97026383949E+02 -0.30366190791E+03  0.90008485864E+02  0.33124945438E+03  0.00000000000E+00 0.  1.
<mgrwt>
<rscale>  0 0.16127969E+04</rscale>
<asrwt>0</asrwt>
<pdfrwt beam="1">  1        2 0.32081321E+00 0.16127969E+04</pdfrwt>
<pdfrwt beam="2">  1       -2 0.47975599E-01 0.16127969E+04</pdfrwt>
<totfact> 0.23623445E+01</totfact>
</mgrwt>
</event>
<event>
11    1  0.2502641E-008  0.1539485E+04  0.7818608E-02  0.8858613E-01
          1   -1    0    0  501    0  0.00000000000E+00  0.00000000000E+00  0.73638051224E+03  0.73638051224E+03  0.00000000000E+00 0. -1.
         -1   -1    0    0    0  501 -0.00000000000E+00 -0.00000000000E+00 -0.80461545620E+03  0.80461545620E+03  0.00000000000E+00 0.  1.
         23    2    1    2    0    0  0.37074947150E+03 -0.16482035686E+03 -0.28871640963E+03  0.50630351779E+03  0.91461282996E+02 0.  0.
        254    2    1    2    0    0 -0.37074947150E+03  0.16482035686E+03  0.22048146567E+03  0.10346924506E+04  0.92593491676E+03 0.  0.
         24    2    4    4    0    0  0.41758890166E+01 -0.16434512369E+03 -0.24642053424E+03  0.30674594514E+03  0.79644443830E+02 0.  0.
         13    1    3    3    0    0  0.31833773572E+03 -0.10604840114E+03 -0.25075803057E+03  0.41888514806E+03  0.00000000000E+00 0.  1.
        -13    1    3    3    0    0  0.52411735780E+02 -0.58771955716E+02 -0.37958379058E+02  0.87418369733E+02  0.00000000000E+00 0. -1.
          4    1    5    5  502    0  0.12419237683E+02 -0.30757549248E+01 -0.82734372586E+00  0.12821163388E+02  0.00000000000E+00 0. -1.
          3    1    4    4  503    0 -0.21117492583E+02 -0.38688506627E+02  0.63931041773E+02  0.77652605495E+02  0.00000000000E+00 0. -1.
         -4    1    4    4    0  503 -0.35380786793E+03  0.36785398718E+03  0.40297095814E+03  0.65029390002E+03  0.00000000000E+00 0.  1.
         -3    1    5    5    0  502 -0.82433486662E+01 -0.16126936876E+03 -0.24559319052E+03  0.29392478175E+03  0.00000000000E+00 0.  1.
<mgrwt>
<rscale>  0 0.15394845E+04</rscale>
<asrwt>0</asrwt>
<pdfrwt beam="1">  1        1 0.11328931E+00 0.15394845E+04</pdfrwt>
<pdfrwt beam="2">  1       -1 0.12378699E+00 0.15394845E+04</pdfrwt>
<totfact> 0.13937608E+01</totfact>
</mgrwt>
</event>
<event>
11    1  0.2502641E-008  0.1981547E+04  0.7818608E-02  0.8615297E-01
         -1   -1    0    0    0  501 -0.00000000000E+00  0.00000000000E+00  0.18518745067E+04  0.18518745067E+04  0.00000000000E+00 0.  1.
          1   -1    0    0  501    0  0.00000000000E+00 -0.00000000000E+00 -0.53007499548E+03  0.53007499548E+03  0.00000000000E+00 0. -1.
         23    2    1    2    0    0 -0.21091966810E+03  0.64404688328E+03  0.45990853576E+02  0.68477806829E+03  0.86731481830E+02 0.  0.
        254    2    1    2    0    0  0.21091966810E+03 -0.64404688328E+03  0.12758086576E+04  0.16971714339E+04  0.89074106836E+03 0.  0.
         24    2    4    4    0    0  0.10065263712E+03 -0.23840041545E+03  0.11023809791E+04  0.11351987139E+04  0.80415081911E+02 0.  0.
         13    1    3    3    0    0 -0.10188127901E+03  0.30318490650E+03  0.65051959041E+02  0.32639338216E+03  0.00000000000E+00 0.  1.
        -13    1    3    3    0    0 -0.10903838910E+03  0.34086197678E+03 -0.19061105465E+02  0.35838468613E+03  0.00000000000E+00 0. -1.
          2    1    5    5  502    0  0.54159260512E+02 -0.19785686034E+03  0.92254611486E+03  0.94507771994E+03  0.00000000000E+00 0. -1.
          1    1    4    4  503    0  0.20934042479E+03 -0.20606620340E+03  0.26209806264E+02  0.29491294915E+03  0.00000000000E+00 0. -1.
         -2    1    4    4    0  503 -0.99073393805E+02 -0.19958026443E+03  0.14721787227E+03  0.26705977088E+03  0.00000000000E+00 0.  1.
         -3    1    5    5    0  502  0.46493376607E+02 -0.40543555111E+02  0.17983486425E+03  0.19012099392E+03  0.00000000000E+00 0.  1.
<mgrwt>
<rscale>  0 0.19815472E+04</rscale>
<asrwt>0</asrwt>
<pdfrwt beam="1">  1        1 0.81550000E-01 0.19815472E+04</pdfrwt>
<pdfrwt beam="2">  1       -1 0.28490377E+00 0.19815472E+04</pdfrwt>
<totfact> 0.15712564E+00</totfact>
</mgrwt>
</event>
<event>
12    1  0.2502641E-008  0.2268748E+04  0.7818608E-02  0.8490346E-01
         -1   -1    0    0    0  501 -0.00000000000E+00  0.00000000000E+00  0.16286803310E+04  0.16286803310E+04  0.00000000000E+00 0.  1.
          1   -1    0    0  501    0  0.00000000000E+00 -0.00000000000E+00 -0.79009026108E+03  0.79009026108E+03  0.00000000000E+00 0. -1.
         23    2    1    2    0    0 -0.64744372534E+03 -0.39658515118E+03 -0.31631386438E+03  0.82763254760E+03  0.91967458554E+02 0.  0.
        254    2    1    2    0    0  0.64744372534E+03  0.39658515118E+03  0.11549039343E+04  0.15911380445E+04  0.78832355001E+03 0.  0.
        -24    2    4    4    0    0  0.88430209769E+02  0.42574241455E+03  0.20086843220E+03  0.48230191098E+03  0.56484517696E+02 0.  0.
         24    2    4    4    0    0  0.55901351557E+03 -0.29157263371E+02  0.95403550208E+03  0.11088361335E+04  0.77379422816E+02 0.  0.
         11    1    3    3    0    0 -0.53123077387E+03 -0.34255578665E+03 -0.29562698397E+03  0.69781510138E+03  0.00000000000E+00 0. -1.
        -11    1    3    3    0    0 -0.11621295147E+03 -0.54029364527E+02 -0.20686880418E+02  0.12981744622E+03  0.00000000000E+00 0.  1.
          4    1    6    6  502    0  0.23998814057E+03 -0.47872614590E+01  0.33655363511E+03  0.41338308479E+03  0.00000000000E+00 0. -1.
          1    1    5    5  503    0  0.18287582928E+02  0.16951538657E+03  0.10298612731E+03  0.19918846451E+03  0.00000000000E+00 0. -1.
         -4    1    5    5    0  503  0.70142626841E+02  0.25622702798E+03  0.97882304885E+02  0.28311344648E+03  0.00000000000E+00 0.  1.
         -3    1    6    6    0  502  0.31902537500E+03 -0.24370001912E+02  0.61748186697E+03  0.69545304869E+03  0.00000000000E+00 0.  1.
<mgrwt>
<rscale>  0 0.22687481E+04</rscale>
<asrwt>0</asrwt>
<pdfrwt beam="1">  1        1 0.12155235E+00 0.22687481E+04</pdfrwt>
<pdfrwt beam="2">  1       -1 0.25056620E+00 0.22687481E+04</pdfrwt>
<totfact> 0.14131142E+00</totfact>
</mgrwt>
</event>
<event>
12    1  0.2502641E-008  0.1947290E+04  0.7818608E-02  0.8631669E-01
         -1   -1    0    0    0  501 -0.00000000000E+00  0.00000000000E+00  0.36679944236E+03  0.36679944236E+03  0.00000000000E+00 0.  1.
          1   -1    0    0  501    0  0.00000000000E+00 -0.00000000000E+00 -0.25844762625E+04  0.25844762625E+04  0.00000000000E+00 0. -1.
         23    2    1    2    0    0  0.66456161604E+03  0.27293704022E+03 -0.48637501314E+03  0.87233310895E+03  0.90926509477E+02 0.  0.
        254    2    1    2    0    0 -0.66456161604E+03 -0.27293704022E+03 -0.17313018070E+04  0.20789425959E+04  0.89914381538E+03 0.  0.
        -24    2    4    4    0    0 -0.53931399878E+03  0.79722486173E+02 -0.37055120012E+03  0.66540827057E+03  0.90800388447E+02 0.  0.
         24    2    4    4    0    0 -0.12524761726E+03 -0.35265952639E+03 -0.13607506068E+04  0.14135343253E+04  0.79883462852E+02 0.  0.
         11    1    3    3    0    0  0.60235884160E+03  0.22850631212E+03 -0.40647833714E+03  0.76175845732E+03  0.00000000000E+00 0.  1.
        -11    1    3    3    0    0  0.62202774442E+02  0.44430728097E+02 -0.79896676004E+02  0.11057465163E+03  0.00000000000E+00 0. -1.
          2    1    6    6  502    0 -0.11858606474E+03 -0.31695273801E+03 -0.12942426735E+04  0.13377540099E+04  0.00000000000E+00 0. -1.
          1    1    5    5  503    0 -0.47402230836E+03  0.40435511336E+02 -0.30714042910E+03  0.56627504147E+03  0.00000000000E+00 0. -1.
         -2    1    5    5    0  503 -0.65291690420E+02  0.39286974837E+02 -0.63410771027E+02  0.99133229101E+02  0.00000000000E+00 0.  1.
         -1    1    6    6    0  502 -0.66615525191E+01 -0.35706788381E+02 -0.66507933309E+02  0.75780315462E+02  0.00000000000E+00 0.  1.
<mgrwt>
<rscale>  0 0.19472899E+04</rscale>
<asrwt>0</asrwt>
<pdfrwt beam="1">  1        1 0.39761174E+00 0.19472899E+04</pdfrwt>
<pdfrwt beam="2">  1       -1 0.56430683E-01 0.19472899E+04</pdfrwt>
<totfact> 0.35063909E+00</totfact>
</mgrwt>
</event>
<event>
12    1  0.2502641E-008  0.1250530E+04  0.7818608E-02  0.9069742E-01
          2   -1    0    0  501    0  0.00000000000E+00  0.00000000000E+00  0.67132339185E+03  0.67132339185E+03  0.00000000000E+00 0. -1.
         -2   -1    0    0    0  501 -0.00000000000E+00 -0.00000000000E+00 -0.58236684040E+03  0.58236684040E+03  0.00000000000E+00 0.  1.
         23    2    1    2    0    0 -0.51164801602E+02 -0.26451108920E+03 -0.47034474740E+02  0.28840712903E+03  0.91555868371E+02 0.  0.
        254    2    1    2    0    0  0.51164801602E+02  0.26451108920E+03  0.13599102618E+03  0.96528310321E+03  0.91689364537E+03 0.  0.
        -24    2    4    4    0    0 -0.10710606863E+03  0.56081524254E+03 -0.31497720370E+02  0.57971048332E+03  0.95324141133E+02 0.  0.
         24    2    4    4    0    0  0.15827087024E+03 -0.29630415334E+03  0.16748874655E+03  0.38557261989E+03  0.88135948047E+02 0.  0.
         11    1    3    3    0    0 -0.25919741531E+02 -0.11444468486E+02 -0.15044815626E+02  0.32080451012E+02  0.00000000000E+00 0.  1.
        -11    1    3    3    0    0 -0.25245060071E+02 -0.25306662071E+03 -0.31989659114E+02  0.25632667802E+03  0.00000000000E+00 0. -1.
          2    1    6    6  502    0  0.95866420298E+02 -0.95093337007E+02  0.83625006035E+02  0.15882775236E+03  0.00000000000E+00 0. -1.
          1    1    5    5  503    0 -0.74906290838E+02  0.17327555909E+03 -0.27861999334E+02  0.19081840265E+03  0.00000000000E+00 0. -1.
         -2    1    5    5    0  503 -0.32199777796E+02  0.38753968345E+03 -0.36357210359E+01  0.38889208067E+03  0.00000000000E+00 0.  1.
         -1    1    6    6    0  502  0.62404449937E+02 -0.20121081633E+03  0.83863740519E+02  0.22674486754E+03  0.00000000000E+00 0.  1.
<mgrwt>
<rscale>  0 0.12505303E+04</rscale>
<asrwt>0</asrwt>
<pdfrwt beam="1">  1        2 0.10328052E+00 0.12505303E+04</pdfrwt>
<pdfrwt beam="2">  1       -2 0.89594899E-01 0.12505303E+04</pdfrwt>
<totfact> 0.45378315E+01</totfact>
</mgrwt>
</event>
<event>
12    1  0.2502641E-008  0.1475268E+04  0.7818608E-02  0.8901068E-01
         -1   -1    0    0    0  501 -0.00000000000E+00  0.00000000000E+00  0.36032085796E+03  0.36032085796E+03  0.00000000000E+00 0.  1.
          1   -1    0    0  501    0  0.00000000000E+00 -0.00000000000E+00 -0.15100545741E+04  0.15100545741E+04  0.00000000000E+00 0. -1.
         23    2    1    2    0    0 -0.33903812164E+03 -0.83712011999E+02  0.11719402677E+02  0.36117393053E+03  0.91404129097E+02 0.  0.
        254    2    1    2    0    0  0.33903812164E+03  0.83712011999E+02 -0.11614531188E+04  0.15092015015E+04  0.89819890677E+03 0.  0.
        -24    2    4    4    0    0 -0.27580691982E+03 -0.11296139809E+03 -0.41227289559E+03  0.51691861303E+03  0.91685209190E+02 0.  0.
         24    2    4    4    0    0  0.61484504146E+03  0.19667341008E+03 -0.74918022325E+03  0.99228288851E+03  0.81482934922E+02 0.  0.
         13    1    3    3    0    0 -0.10730659111E+03 -0.53742237622E+02 -0.30267287498E+02  0.12377011470E+03  0.00000000000E+00 0. -1.
        -13    1    3    3    0    0 -0.23173153053E+03 -0.29969774377E+02  0.41986690175E+02  0.23740381583E+03  0.00000000000E+00 0.  1.
          4    1    6    6  502    0  0.49129137548E+03  0.14435937604E+03 -0.63767885761E+03  0.81782710307E+03  0.00000000000E+00 0. -1.
          3    1    5    5  503    0 -0.20138365600E+03 -0.99069536606E+02 -0.36237292882E+03  0.42624440117E+03  0.00000000000E+00 0. -1.
         -2    1    5    5    0  503 -0.74423263819E+02 -0.13891861480E+02 -0.49899966761E+02  0.90674211855E+02  0.00000000000E+00 0.  1.
         -3    1    6    6    0  502  0.12355366598E+03  0.52314034047E+02 -0.11150136564E+03  0.17445578544E+03  0.00000000000E+00 0.  1.
<mgrwt>
<rscale>  0 0.14752683E+04</rscale>
<asrwt>0</asrwt>
<pdfrwt beam="1">  1        1 0.23231609E+00 0.14752683E+04</pdfrwt>
<pdfrwt beam="2">  1       -1 0.55433979E-01 0.14752683E+04</pdfrwt>
<totfact> 0.20529804E+01</totfact>
</mgrwt>
</event>
<event>
12    1  0.2502641E-008  0.1139855E+04  0.7818608E-02  0.9167194E-01
          2   -1    0    0  501    0  0.00000000000E+00  0.00000000000E+00  0.18226590703E+04  0.18226590703E+04  0.00000000000E+00 0. -1.
         -2   -1    0    0    0  501 -0.00000000000E+00 -0.00000000000E+00 -0.17821064546E+03  0.17821064546E+03  0.00000000000E+00 0.  1.
         23    2    1    2    0    0  0.10005036675E+03 -0.23092746842E+02 -0.12787696078E+02  0.13839782511E+03  0.91908008252E+02 0.  0.
        254    2    1    2    0    0 -0.10005036675E+03  0.23092746842E+02  0.16572361209E+04  0.18624718906E+04  0.84369818784E+03 0.  0.
        -24    2    4    4    0    0  0.30034556175E+03 -0.16459750680E+03  0.41667984406E+03  0.54304754072E+03  0.63077280662E+02 0.  0.
         24    2    4    4    0    0 -0.40039592850E+03  0.18769025364E+03  0.12405562768E+04  0.13194243499E+04  0.79725831922E+02 0.  0.
         11    1    3    3    0    0  0.91817514525E+02 -0.34088736138E+00  0.23505168793E+02  0.94779033218E+02  0.00000000000E+00 0. -1.
        -11    1    3    3    0    0  0.82328522247E+01 -0.22751859480E+02 -0.36292864871E+02  0.43618791892E+02  0.00000000000E+00 0.  1.
          2    1    6    6  502    0 -0.18551459017E+02 -0.38131064305E+01  0.93704246208E+02  0.95599069921E+02  0.00000000000E+00 0. -1.
          1    1    5    5  503    0  0.12869158595E+03 -0.87698014833E+02  0.14625877772E+03  0.21364478969E+03  0.00000000000E+00 0. -1.
         -2    1    5    5    0  503  0.17165397580E+03 -0.76899491963E+02  0.27042106633E+03  0.32940275103E+03  0.00000000000E+00 0.  1.
         -1    1    6    6    0  502 -0.38184446948E+03  0.19150336007E+03  0.11468520306E+04  0.12238252800E+04  0.00000000000E+00 0.  1.
<mgrwt>
<rscale>  0 0.11398548E+04</rscale>
<asrwt>0</asrwt>
<pdfrwt beam="1">  1        2 0.28040908E+00 0.11398548E+04</pdfrwt>
<pdfrwt beam="2">  1       -2 0.27417024E-01 0.11398548E+04</pdfrwt>
<totfact> 0.10066969E+02</totfact>
</mgrwt>
</event>
<event>
12    1  0.2502641E-008  0.1521558E+04  0.7818608E-02  0.8870242E-01
         -2   -1    0    0    0  501 -0.00000000000E+00  0.00000000000E+00  0.17481109262E+03  0.17481109262E+03  0.00000000000E+00 0. -1.
          2   -1    0    0  501    0  0.00000000000E+00 -0.00000000000E+00 -0.33109159957E+04  0.33109159957E+04  0.00000000000E+00 0.  1.
         23    2    1    2    0    0  0.89137354607E+02 -0.15774280736E+03 -0.20660755688E+04  0.20761103631E+04  0.93475785521E+02 0.  0.
        254    2    1    2    0    0 -0.89137354607E+02  0.15774280736E+03 -0.10700293343E+04  0.14096167253E+04  0.89957116151E+03 0.  0.
        -24    2    4    4    0    0 -0.97562422267E+02  0.15256136250E+02  0.13271372612E+03  0.19586483760E+03  0.10487576259E+03 0.  0.
         24    2    4    4    0    0  0.84250676600E+01  0.14248667111E+03 -0.12027430604E+04  0.12137518877E+04  0.78926181946E+02 0.  0.
         13    1    3    3    0    0  0.80842226336E+02 -0.16875482581E+03 -0.19914733080E+04  0.20002448834E+04  0.00000000000E+00 0.  1.
        -13    1    3    3    0    0  0.82951282710E+01  0.11012018451E+02 -0.74602260747E+02  0.75865479712E+02  0.00000000000E+00 0. -1.
          4    1    6    6  502    0 -0.30898267907E+02  0.10075569183E+03 -0.73869313422E+03  0.74617287470E+03  0.00000000000E+00 0. -1.
          1    1    5    5  503    0 -0.25983918250E+02  0.23354333051E+02 -0.97093184016E+01  0.36260994798E+02  0.00000000000E+00 0. -1.
         -2    1    5    5    0  503 -0.71578504017E+02 -0.80981968007E+01  0.14242304452E+03  0.15960384281E+03  0.00000000000E+00 0.  1.
         -3    1    6    6    0  502  0.39323335567E+02  0.41730979275E+02 -0.46404992621E+03  0.46757901296E+03  0.00000000000E+00 0.  1.
<mgrwt>
<rscale>  0 0.15215582E+04</rscale>
<asrwt>0</asrwt>
<pdfrwt beam="1">  1        2 0.50937163E+00 0.15215582E+04</pdfrwt>
<pdfrwt beam="2">  1       -2 0.26894018E-01 0.15215582E+04</pdfrwt>
<totfact> 0.13410043E+01</totfact>
</mgrwt>
</event>
<event>
11    1  0.2502641E-008  0.1777275E+04  0.7818608E-02  0.8718479E-01
          1   -1    0    0  501    0  0.00000000000E+00  0.00000000000E+00  0.12427473505E+04  0.12427473505E+04  0.00000000000E+00 0. -1.
         -1   -1    0    0    0  501 -0.00000000000E+00 -0.00000000000E+00 -0.63542815632E+03  0.63542815632E+03  0.00000000000E+00 0.  1.
         23    2    1    2    0    0 -0.63072526112E+03 -0.43905727186E+02  0.42440312075E+03  0.76683149138E+03  0.90390593357E+02 0.  0.
        254    2    1    2    0    0  0.63072526112E+03  0.43905727186E+02  0.18291607346E+03  0.11113440155E+04  0.89548040899E+03 0.  0.
         24    2    4    4    0    0  0.74721789483E+03  0.24935089394E+03 -0.12583817060E+01  0.79185305427E+03  0.80741720225E+02 0.  0.
         11    1    3    3    0    0 -0.17762596914E+03 -0.35870271579E+02  0.82271460321E+02  0.19901320177E+03  0.00000000000E+00 0. -1.
        -11    1    3    3    0    0 -0.45309929198E+03 -0.80354556065E+01  0.34213166043E+03  0.56781828960E+03  0.00000000000E+00 0.  1.
          2    1    5    5  502    0  0.45116859539E+03  0.18084928563E+03 -0.27557850325E+02  0.48684597225E+03  0.00000000000E+00 0. -1.
          1    1    4    4  503    0  0.19003824225E+02 -0.53262380516E+02  0.50307407124E+02  0.75689244447E+02  0.00000000000E+00 0. -1.
         -2    1    4    4    0  503 -0.13549645793E+03 -0.15218278623E+03  0.13386704804E+03  0.24380171675E+03  0.00000000000E+00 0.  1.
         -1    1    5    5    0  502  0.29604929943E+03  0.68501608303E+02  0.26299468618E+02  0.30500708202E+03  0.00000000000E+00 0.  1.
<mgrwt>
<rscale>  0 0.17772751E+04</rscale>
<asrwt>0</asrwt>
<pdfrwt beam="1">  1        1 0.19119190E+00 0.17772751E+04</pdfrwt>
<pdfrwt beam="2">  1       -1 0.97758178E-01 0.17772751E+04</pdfrwt>
<totfact> 0.94391420E+00</totfact>
</mgrwt>
</event>
<event>
11    1  0.2502641E-008  0.1708672E+04  0.7818608E-02  0.8756434E-01
         -1   -1    0    0    0  501 -0.00000000000E+00  0.00000000000E+00  0.71273031113E+03  0.71273031113E+03  0.00000000000E+00 0.  1.
          1   -1    0    0  501    0  0.00000000000E+00 -0.00000000000E+00 -0.10240764172E+04  0.10240764172E+04  0.00000000000E+00 0. -1.
         23    2    1    2    0    0 -0.29540047572E+03  0.48829186199E+03  0.12199252813E+03  0.59079840547E+03  0.92033664720E+02 0.  0.
        254    2    1    2    0    0  0.29540047572E+03 -0.48829186199E+03 -0.43333863420E+03  0.11460083229E+04  0.89435022259E+03 0.  0.
         24    2    4    4    0    0 -0.15622364403E+03  0.13424674135E+03  0.48475296317E+02  0.22628503188E+03  0.80168864162E+02 0.  0.
         11    1    3    3    0    0 -0.92939742709E+00  0.80681068445E+01  0.15504614544E+02  0.17502891184E+02  0.00000000000E+00 0. -1.
        -11    1    3    3    0    0 -0.29447107830E+03  0.48022375515E+03  0.10648791358E+03  0.57329551429E+03  0.00000000000E+00 0.  1.
          4    1    5    5  502    0 -0.65643430792E+02  0.76703239048E+02  0.61453339883E+02  0.11819035438E+03  0.00000000000E+00 0. -1.
          1    1    4    4  503    0  0.13820247262E+03 -0.18149917304E+03 -0.22641189618E+03  0.32140973847E+03  0.00000000000E+00 0. -1.
         -2    1    4    4    0  503  0.31342164714E+03 -0.44103943031E+03 -0.25540203434E+03  0.59831355252E+03  0.00000000000E+00 0.  1.
         -3    1    5    5    0  502 -0.90580213240E+02  0.57543502307E+02 -0.12978043565E+02  0.10809467750E+03  0.00000000000E+00 0.  1.
<mgrwt>
<rscale>  0 0.17086724E+04</rscale>
<asrwt>0</asrwt>
<pdfrwt beam="1">  1        1 0.15755022E+00 0.17086724E+04</pdfrwt>
<pdfrwt beam="2">  1       -1 0.10965082E+00 0.17086724E+04</pdfrwt>
<totfact> 0.10598285E+01</totfact>
</mgrwt>
</event>
<event>
11    1  0.2502641E-008  0.3453786E+04  0.7818608E-02  0.8124830E-01
         -2   -1    0    0    0  501 -0.00000000000E+00  0.00000000000E+00  0.80647148906E+03  0.80647148906E+03  0.00000000000E+00 0.  1.
          2   -1    0    0  501    0  0.00000000000E+00 -0.00000000000E+00 -0.36977869202E+04  0.36977869202E+04  0.00000000000E+00 0. -1.
         23    2    1    2    0    0  0.82427296581E+03 -0.26413878511E+03 -0.31169278980E+04  0.32362209552E+04  0.93227300769E+02 0.  0.
        254    2    1    2    0    0 -0.82427296581E+03  0.26413878511E+03  0.22561246684E+03  0.12680374541E+04  0.89878961929E+03 0.  0.
         24    2    4    4    0    0 -0.40249967586E+03 -0.21376948040E+03  0.37739550280E+03  0.59706538538E+03  0.79726589483E+02 0.  0.
         13    1    3    3    0    0  0.70045533406E+03 -0.25593590234E+03 -0.27167636708E+04  0.28172585441E+04  0.00000000000E+00 0. -1.
        -13    1    3    3    0    0  0.12381763175E+03 -0.82028827639E+01 -0.40016422715E+03  0.41896241109E+03  0.00000000000E+00 0.  1.
          2    1    5    5  502    0 -0.18118047997E+03 -0.99815126601E+02  0.12072532303E+03  0.23950789014E+03  0.00000000000E+00 0. -1.
          3    1    4    4  503    0 -0.17070764002E+03  0.12887611830E+03 -0.10562372490E+03  0.23855088239E+03  0.00000000000E+00 0. -1.
         -4    1    4    4    0  503 -0.25106564994E+03  0.34903214720E+03 -0.46159311056E+02  0.43242118629E+03  0.00000000000E+00 0.  1.
         -1    1    5    5    0  502 -0.22131919589E+03 -0.11395435379E+03  0.25667017976E+03  0.35755749524E+03  0.00000000000E+00 0.  1.
<mgrwt>
<rscale>  0 0.34537862E+04</rscale>
<asrwt>0</asrwt>
<pdfrwt beam="1">  1        2 0.56889030E+00 0.34537862E+04</pdfrwt>
<pdfrwt beam="2">  1       -2 0.12407253E+00 0.34537862E+04</pdfrwt>
<totfact> 0.23562820E-01</totfact>
</mgrwt>
</event>
<event>
11    1  0.2502641E-008  0.2123211E+04  0.7818608E-02  0.8551087E-01
          1   -1    0    0  501    0  0.00000000000E+00  0.00000000000E+00  0.17804469248E+04  0.17804469248E+04  0.00000000000E+00 0. -1.
         -1   -1    0    0    0  501 -0.00000000000E+00 -0.00000000000E+00 -0.63299039573E+03  0.63299039573E+03  0.00000000000E+00 0.  1.
         23    2    1    2    0    0  0.52852370394E+03 -0.12455204644E+03 -0.29741825638E+03  0.62584725966E+03  0.91524069525E+02 0.  0.
        254    2    1    2    0    0 -0.52852370394E+03  0.12455204644E+03  0.14448747854E+04  0.17875900608E+04  0.90164547477E+03 0.  0.
         24    2    4    4    0    0 -0.31693120454E+03  0.42347073832E+03  0.12329186493E+04  0.13439170333E+04  0.79067956846E+02 0.  0.
         13    1    3    3    0    0  0.36519141708E+02  0.14416381294E+02 -0.24976131494E+02  0.46532643436E+02  0.00000000000E+00 0. -1.
        -13    1    3    3    0    0  0.49200456223E+03 -0.13896842774E+03 -0.27244212488E+03  0.57931461623E+03  0.00000000000E+00 0.  1.
          4    1    5    5  502    0 -0.10632530830E+03  0.13970092223E+03  0.50736135906E+03  0.53687705066E+03  0.00000000000E+00 0. -1.
          1    1    4    4  503    0 -0.42846088508E+02 -0.28838893921E+02 -0.13619485250E+02  0.53413102152E+02  0.00000000000E+00 0. -1.
         -2    1    4    4    0  503 -0.16874641089E+03 -0.27007979796E+03  0.22557562134E+03  0.39025992543E+03  0.00000000000E+00 0.  1.
         -3    1    5    5    0  502 -0.21060589624E+03  0.28376981609E+03  0.72555729026E+03  0.80703998260E+03  0.00000000000E+00 0.  1.
<mgrwt>
<rscale>  0 0.21232106E+04</rscale>
<asrwt>0</asrwt>
<pdfrwt beam="1">  1        1 0.27391491E+00 0.21232106E+04</pdfrwt>
<pdfrwt beam="2">  1       -1 0.97383139E-01 0.21232106E+04</pdfrwt>
<totfact> 0.39032185E+00</totfact>
</mgrwt>
</event>
<event>
11    1  0.2502641E-008  0.1280498E+04  0.7818608E-02  0.9045175E-01
          2   -1    0    0  501    0  0.00000000000E+00  0.00000000000E+00  0.91707985713E+03  0.91707985713E+03  0.00000000000E+00 0. -1.
         -2   -1    0    0    0  501 -0.00000000000E+00 -0.00000000000E+00 -0.44698245370E+03  0.44698245370E+03  0.00000000000E+00 0.  1.
         23    2    1    2    0    0 -0.10305335161E+03  0.26433459186E+03 -0.20555282696E+02  0.29920225270E+03  0.92772294600E+02 0.  0.
        254    2    1    2    0    0  0.10305335161E+03 -0.26433459186E+03  0.49065268613E+03  0.10648600581E+04  0.90149548821E+03 0.  0.
         24    2    4    4    0    0 -0.16512246567E+03 -0.11469552921E+03  0.52705181342E+03  0.57092026075E+03  0.88010437018E+02 0.  0.
         13    1    3    3    0    0  0.32918404020E+01  0.49430476621E+02  0.24438832773E+02  0.55240064985E+02  0.00000000000E+00 0. -1.
        -13    1    3    3    0    0 -0.10634519201E+03  0.21490411523E+03 -0.44994115469E+02  0.24396218772E+03  0.00000000000E+00 0.  1.
          2    1    5    5  502    0 -0.80670301602E+02 -0.82453267654E+02  0.19292173072E+03  0.22477774154E+03  0.00000000000E+00 0. -1.
          1    1    4    4  503    0  0.23728132599E+02 -0.12508771366E+03  0.14170148786E+03  0.19049743317E+03  0.00000000000E+00 0. -1.
         -2    1    4    4    0  503  0.24444768468E+03 -0.24551348986E+02 -0.17810061514E+03  0.30344236420E+03  0.00000000000E+00 0.  1.
         -1    1    5    5    0  502 -0.84452164068E+02 -0.32242261557E+02  0.33413008269E+03  0.34614251921E+03  0.00000000000E+00 0.  1.
<mgrwt>
<rscale>  0 0.12804977E+04</rscale>
<asrwt>0</asrwt>
<pdfrwt beam="1">  1        2 0.14108921E+00 0.12804977E+04</pdfrwt>
<pdfrwt beam="2">  1       -2 0.68766531E-01 0.12804977E+04</pdfrwt>
<totfact> 0.54174520E+01</totfact>
</mgrwt>
</event>
<event>
11    1  0.2502641E-008  0.2149295E+04  0.7818608E-02  0.8539834E-01
         -2   -1    0    0    0  501 -0.00000000000E+00  0.00000000000E+00  0.13949892352E+04  0.13949892352E+04  0.00000000000E+00 0.  1.
          2   -1    0    0  501    0  0.00000000000E+00 -0.00000000000E+00 -0.82786797361E+03  0.82786797361E+03  0.00000000000E+00 0. -1.
         23    2    1    2    0    0 -0.34610267505E+03  0.60958215325E+03  0.79213929501E+03  0.10615662875E+04  0.89782274682E+02 0.  0.
        254    2    1    2    0    0  0.34610267505E+03 -0.60958215325E+03 -0.22501803340E+03  0.11612909213E+04  0.89810134470E+03 0.  0.
         24    2    4    4    0    0 -0.41544112609E+02  0.18925443898E+03  0.17847963962E+02  0.21031365931E+03  0.79813091091E+02 0.  0.
         13    1    3    3    0    0 -0.34083029828E+02  0.44876778300E+02  0.33003560174E+02  0.65305536802E+02  0.00000000000E+00 0.  1.
        -13    1    3    3    0    0 -0.31201964523E+03  0.56470537495E+03  0.75913573484E+03  0.99626075071E+03  0.00000000000E+00 0. -1.
          4    1    5    5  502    0  0.13446518292E+02  0.16049203651E+02  0.19455379091E+02  0.28581419972E+02  0.00000000000E+00 0. -1.
          1    1    4    4  503    0  0.41848101216E+01  0.15691813907E+02 -0.15461588411E+02  0.22423344435E+02  0.00000000000E+00 0. -1.
         -2    1    4    4    0  503  0.38346197754E+03 -0.81452840614E+03 -0.22740440895E+03  0.92855391757E+03  0.00000000000E+00 0.  1.
         -3    1    5    5    0  502 -0.54990630901E+02  0.17320523533E+03 -0.16074151287E+01  0.18173223934E+03  0.00000000000E+00 0.  1.
<mgrwt>
<rscale>  0 0.21492947E+04</rscale>
<asrwt>0</asrwt>
<pdfrwt beam="1">  1        2 0.12736430E+00 0.21492947E+04</pdfrwt>
<pdfrwt beam="2">  1       -2 0.21461373E+00 0.21492947E+04</pdfrwt>
<totfact> 0.32283234E+00</totfact>
</mgrwt>
</event>
<event>
12    1  0.2502642E-008  0.1286998E+04  0.7818608E-02  0.9039940E-01
          2   -1    0    0  501    0  0.00000000000E+00  0.00000000000E+00  0.33812178712E+03  0.33812178712E+03  0.00000000000E+00 0. -1.
         -2   -1    0    0    0  501 -0.00000000000E+00 -0.00000000000E+00 -0.12246804918E+04  0.12246804918E+04  0.00000000000E+00 0.  1.
         23    2    1    2    0    0 -0.24488921041E+03 -0.10360383084E+02  0.10182573043E+02  0.26385460721E+03  0.97146827213E+02 0.  0.
        254    2    1    2    0    0  0.24488921041E+03  0.10360383084E+02 -0.89674127768E+03  0.12989476717E+04  0.90721666197E+03 0.  0.
        -24    2    4    4    0    0  0.57102568003E+02 -0.41889389681E+03 -0.59573875025E+03  0.73628104468E+03  0.92045196253E+02 0.  0.
         24    2    4    4    0    0  0.18778664241E+03  0.42925427990E+03 -0.30100252744E+03  0.56266662700E+03  0.80424820405E+02 0.  0.
         13    1    3    3    0    0 -0.89020927140E+02 -0.23570754169E+02  0.46653699649E+02  0.10323213459E+03  0.00000000000E+00 0.  1.
        -13    1    3    3    0    0 -0.15586828327E+03  0.13210371085E+02 -0.36471126606E+02  0.16062247262E+03  0.00000000000E+00 0. -1.
          4    1    6    6  502    0  0.19222128626E+03  0.38076258688E+03 -0.26565445711E+03  0.50249523484E+03  0.00000000000E+00 0. -1.
          3    1    5    5  503    0  0.44644948707E+02 -0.41736764004E+03 -0.58312411042E+03  0.71848635794E+03  0.00000000000E+00 0. -1.
         -4    1    5    5    0  503  0.12457619297E+02 -0.15262567785E+01 -0.12614639827E+02  0.17794686742E+02  0.00000000000E+00 0.  1.
         -3    1    6    6    0  502 -0.44346438540E+01  0.48491693021E+02 -0.35348070326E+02  0.60171392155E+02  0.00000000000E+00 0.  1.
<mgrwt>
<rscale>  0 0.12869983E+04</rscale>
<asrwt>0</asrwt>
<pdfrwt beam="1">  1        2 0.52018735E-01 0.12869983E+04</pdfrwt>
<pdfrwt beam="2">  1       -2 0.18841239E+00 0.12869983E+04</pdfrwt>
<totfact> 0.14954015E+01</totfact>
</mgrwt>
</event>
<event>
11    1  0.2502641E-008  0.1954240E+04  0.7818608E-02  0.8628319E-01
         -1   -1    0    0    0  501 -0.00000000000E+00  0.00000000000E+00  0.74409842839E+03  0.74409842839E+03  0.00000000000E+00 0.  1.
          1   -1    0    0  501    0  0.00000000000E+00 -0.00000000000E+00 -0.12831146802E+04  0.12831146802E+04  0.00000000000E+00 0. -1.
         23    2    1    2    0    0  0.76499745529E+03 -0.20641804703E+02 -0.18082200197E+03  0.79155180268E+03  0.90611639619E+02 0.  0.
        254    2    1    2    0    0 -0.76499745529E+03  0.20641804703E+02 -0.35819424986E+03  0.12356613059E+04  0.90161441406E+03 0.  0.
         24    2    4    4    0    0 -0.43391242921E+03 -0.90655735807E+01  0.26081949607E+03  0.51266705722E+03  0.80240396178E+02 0.  0.
         13    1    3    3    0    0  0.86596034888E+02 -0.26933330494E+02 -0.37570745851E+02  0.98162306888E+02  0.00000000000E+00 0. -1.
        -13    1    3    3    0    0  0.67840142040E+03  0.62915257904E+01 -0.14325125612E+03  0.69338949580E+03  0.00000000000E+00 0.  1.
          2    1    5    5  502    0 -0.27248720822E+03  0.12496563965E+02  0.12259206059E+03  0.29905560700E+03  0.00000000000E+00 0. -1.
          3    1    4    4  503    0 -0.27779890871E+03 -0.31947174857E+02 -0.54661843969E+03  0.61399069559E+03  0.00000000000E+00 0. -1.
         -4    1    4    4    0  503 -0.53286117367E+02  0.61654553141E+02 -0.72395306241E+02  0.10900355312E+03  0.00000000000E+00 0.  1.
         -1    1    5    5    0  502 -0.16142522099E+03 -0.21562137546E+02  0.13822743548E+03  0.21361145023E+03  0.00000000000E+00 0.  1.
<mgrwt>
<rscale>  0 0.19542401E+04</rscale>
<asrwt>0</asrwt>
<pdfrwt beam="1">  1        1 0.19740226E+00 0.19542401E+04</pdfrwt>
<pdfrwt beam="2">  1       -1 0.11447668E+00 0.19542401E+04</pdfrwt>
<totfact> 0.60116913E+00</totfact>
</mgrwt>
</event>
<event>
12    1  0.2502641E-008  0.2771063E+04  0.7818608E-02  0.8312309E-01
          2   -1    0    0  501    0  0.00000000000E+00  0.00000000000E+00  0.16145178794E+04  0.16145178794E+04  0.00000000000E+00 0. -1.
         -2   -1    0    0    0  501 -0.00000000000E+00 -0.00000000000E+00 -0.11890218497E+04  0.11890218497E+04  0.00000000000E+00 0.  1.
         23    2    1    2    0    0 -0.25951937263E+03 -0.87711150627E+03 -0.64938709896E+03  0.11257239826E+04  0.94212427291E+02 0.  0.
        254    2    1    2    0    0  0.25951937263E+03  0.87711150627E+03  0.10748831287E+04  0.16778157465E+04  0.90720286580E+03 0.  0.
        -24    2    4    4    0    0  0.37276186943E+03  0.37817593134E+03  0.10235359403E+04  0.11569870098E+04  0.94998281370E+02 0.  0.
         24    2    4    4    0    0 -0.11324249680E+03  0.49893557494E+03  0.51347188399E+02  0.52082873670E+03  0.82858120889E+02 0.  0.
         13    1    3    3    0    0 -0.80221065918E+02 -0.14779528095E+03 -0.10707443328E+03  0.19935846797E+03  0.00000000000E+00 0. -1.
        -13    1    3    3    0    0 -0.17929830671E+03 -0.72931622532E+03 -0.54231266568E+03  0.92636551461E+03  0.00000000000E+00 0.  1.
          4    1    6    6  502    0 -0.82170270994E+02  0.18031395152E+03  0.20645610486E+02  0.19922679484E+03  0.00000000000E+00 0. -1.
          3    1    5    5  503    0  0.67111728246E+01  0.38346511886E+02  0.57060573927E+02  0.69075349520E+02  0.00000000000E+00 0. -1.
         -4    1    5    5    0  503  0.36605069661E+03  0.33982941945E+03  0.96647536639E+03  0.10879116603E+04  0.00000000000E+00 0.  1.
         -3    1    6    6    0  502 -0.31072225808E+02  0.31862162341E+03  0.30701577913E+02  0.32160194186E+03  0.00000000000E+00 0.  1.
<mgrwt>
<rscale>  0 0.27710626E+04</rscale>
<asrwt>0</asrwt>
<pdfrwt beam="1">  1        2 0.24838737E+00 0.27710626E+04</pdfrwt>
<pdfrwt beam="2">  1       -2 0.18292644E+00 0.27710626E+04</pdfrwt>
<totfact> 0.16528375E+00</totfact>
</mgrwt>
</event>
<event>
11    1  0.2502641E-008  0.2494600E+04  0.7818608E-02  0.8404912E-01
          1   -1    0    0  501    0  0.00000000000E+00  0.00000000000E+00  0.15231056703E+04  0.15231056703E+04  0.00000000000E+00 0. -1.
         -1   -1    0    0    0  501 -0.00000000000E+00 -0.00000000000E+00 -0.10214373338E+04  0.10214373338E+04  0.00000000000E+00 0.  1.
         23    2    1    2    0    0  0.63761093466E+03  0.52119051952E+03 -0.49940943921E+03  0.96745919119E+03  0.91543634487E+02 0.  0.
        254    2    1    2    0    0 -0.63761093466E+03 -0.52119051952E+03  0.10010777758E+04  0.15770838129E+04  0.89824794912E+03 0.  0.
         24    2    4    4    0    0  0.13518466392E+03  0.34464458391E+02 -0.32344773633E+02  0.16518112369E+03  0.82316019038E+02 0.  0.
         13    1    3    3    0    0  0.51371855639E+03  0.41661228168E+03 -0.35670824149E+03  0.75147409667E+03  0.00000000000E+00 0.  1.
        -13    1    3    3    0    0  0.12389237827E+03  0.10457823784E+03 -0.14270119772E+03  0.21598509452E+03  0.00000000000E+00 0. -1.
          2    1    5    5  502    0  0.10452687087E+03  0.60945372440E+02 -0.29673409295E+02  0.12458216716E+03  0.00000000000E+00 0. -1.
          3    1    4    4  503    0 -0.75927753971E+03 -0.53599855290E+03  0.10307595313E+04  0.13878984266E+04  0.00000000000E+00 0. -1.
         -4    1    4    4    0  503 -0.13518058871E+02 -0.19656425008E+02  0.26630180895E+01  0.24004262644E+02  0.00000000000E+00 0.  1.
         -1    1    5    5    0  502  0.30657793057E+02 -0.26480914049E+02 -0.26713643379E+01  0.40598956531E+02  0.00000000000E+00 0.  1.
<mgrwt>
<rscale>  0 0.24945998E+04</rscale>
<asrwt>0</asrwt>
<pdfrwt beam="1">  1        1 0.23432395E+00 0.24945998E+04</pdfrwt>
<pdfrwt beam="2">  1       -1 0.15714421E+00 0.24945998E+04</pdfrwt>
<totfact> 0.17218839E+00</totfact>
</mgrwt>
</event>
<event>
11    1  0.2502641E-008  0.3785744E+04  0.7818608E-02  0.8049221E-01
          2   -1    0    0  501    0  0.00000000000E+00  0.00000000000E+00  0.24935768090E+04  0.24935768090E+04  0.00000000000E+00 0. -1.
         -2   -1    0    0    0  501 -0.00000000000E+00 -0.00000000000E+00 -0.14368772145E+04  0.14368772145E+04  0.00000000000E+00 0.  1.
         23    2    1    2    0    0  0.15386329411E+04 -0.78778754778E+03  0.46764298281E+02  0.17315256125E+04  0.89406371651E+02 0.  0.
        254    2    1    2    0    0 -0.15386329411E+04  0.78778754778E+03  0.10099352962E+04  0.21989284110E+04  0.90956929712E+03 0.  0.
         24    2    4    4    0    0 -0.16115993328E+04  0.60563628743E+03  0.77407605922E+03  0.18892357141E+04  0.77266524886E+02 0.  0.
         13    1    3    3    0    0  0.13201600383E+03 -0.73898885905E+02  0.28851109621E+02  0.15401836621E+03  0.00000000000E+00 0. -1.
        -13    1    3    3    0    0  0.14066169373E+04 -0.71388866188E+03  0.17913188660E+02  0.15775072463E+04  0.00000000000E+00 0.  1.
          4    1    5    5  502    0 -0.66010596181E+01  0.76135657168E+01  0.82892730707E+01  0.13048081048E+02  0.00000000000E+00 0. -1.
          1    1    4    4  503    0  0.31163957812E+02  0.51398619304E+02  0.47452931590E+02  0.76581923777E+02  0.00000000000E+00 0. -1.
         -2    1    4    4    0  503  0.41802433909E+02  0.13075264105E+03  0.18840630537E+03  0.23311077307E+03  0.00000000000E+00 0.  1.
         -3    1    5    5    0  502 -0.16049982732E+04  0.59802272172E+03  0.76578678614E+03  0.18761876331E+04  0.00000000000E+00 0.  1.
<mgrwt>
<rscale>  0 0.37857436E+04</rscale>
<asrwt>0</asrwt>
<pdfrwt beam="1">  1        2 0.38362720E+00 0.37857436E+04</pdfrwt>
<pdfrwt beam="2">  1       -2 0.22105803E+00 0.37857436E+04</pdfrwt>
<totfact> 0.27429501E-01</totfact>
</mgrwt>
</event>
<event>
11    1  0.2502641E-008  0.1171461E+04  0.7818608E-02  0.9138210E-01
          2   -1    0    0  501    0  0.00000000000E+00  0.00000000000E+00  0.51156755161E+03  0.51156755161E+03  0.00000000000E+00 0. -1.
         -2   -1    0    0    0  501 -0.00000000000E+00 -0.00000000000E+00 -0.67064480993E+03  0.67064480993E+03  0.00000000000E+00 0.  1.
         23    2    1    2    0    0  0.18644859849E+03 -0.23549888999E+01 -0.19496689046E+03  0.27642923849E+03  0.60269475411E+02 0.  0.
        254    2    1    2    0    0 -0.18644859849E+03  0.23549888999E+01  0.35889632130E+02  0.90578312305E+03  0.88565590071E+03 0.  0.
         24    2    4    4    0    0  0.30140101003E+03 -0.49549886641E+02 -0.10940495105E+03  0.33426305901E+03  0.80402669039E+02 0.  0.
         13    1    3    3    0    0  0.16499193733E+03 -0.20996321419E+02 -0.15473481406E+03  0.22716964494E+03  0.00000000000E+00 0.  1.
        -13    1    3    3    0    0  0.21456661160E+02  0.18641332519E+02 -0.40232076395E+02  0.49259593555E+02  0.00000000000E+00 0. -1.
          2    1    5    5  502    0  0.21157851062E+03 -0.71076590652E+02 -0.83832699227E+02  0.23842245983E+03  0.00000000000E+00 0. -1.
          1    1    4    4  503    0 -0.30590682344E+03  0.15287288519E+03  0.62873087201E+02  0.34770983413E+03  0.00000000000E+00 0. -1.
         -2    1    4    4    0  503 -0.18194278508E+03 -0.10096800965E+03  0.82421495980E+02  0.22381022991E+03  0.00000000000E+00 0.  1.
         -1    1    5    5    0  502  0.89822499414E+02  0.21526704011E+02 -0.25572251824E+02  0.95840599173E+02  0.00000000000E+00 0.  1.
<mgrwt>
<rscale>  0 0.11714608E+04</rscale>
<asrwt>0</asrwt>
<pdfrwt beam="1">  1        2 0.78702701E-01 0.11714608E+04</pdfrwt>
<pdfrwt beam="2">  1       -2 0.10317612E+00 0.11714608E+04</pdfrwt>
<totfact> 0.45446035E+01</totfact>
</mgrwt>
</event>
<event>
12    1  0.2502641E-008  0.2436331E+04  0.7818608E-02  0.8426026E-01
          2   -1    0    0  501    0  0.00000000000E+00  0.00000000000E+00  0.10604183880E+04  0.10604183880E+04  0.00000000000E+00 0. -1.
         -2   -1    0    0    0  501 -0.00000000000E+00 -0.00000000000E+00 -0.13993788565E+04  0.13993788565E+04  0.00000000000E+00 0.  1.
         23    2    1    2    0    0  0.68741533042E+03 -0.23292285173E+03 -0.90955512110E+03  0.11672084403E+04  0.91061152746E+02 0.  0.
        254    2    1    2    0    0 -0.68741533042E+03  0.23292285173E+03  0.57059465263E+03  0.12925888042E+04  0.90466273698E+03 0.  0.
        -24    2    4    4    0    0 -0.83141803849E+03  0.11088376311E+03  0.65729590446E+03  0.10696987419E+04  0.93093118528E+02 0.  0.
         24    2    4    4    0    0  0.14400270807E+03  0.12203908861E+03 -0.86701251826E+02  0.22289006229E+03  0.80824214922E+02 0.  0.
         13    1    3    3    0    0  0.49701775002E+03 -0.16760932452E+03 -0.71933206365E+03  0.89025734892E+03  0.00000000000E+00 0.  1.
        -13    1    3    3    0    0  0.19039758040E+03 -0.65313527207E+02 -0.19022305744E+03  0.27695109143E+03  0.00000000000E+00 0. -1.
          2    1    6    6  502    0  0.83494008014E+02  0.82509581226E+02 -0.10483036980E+02  0.11785149313E+03  0.00000000000E+00 0. -1.
          1    1    5    5  503    0 -0.18866492681E+03 -0.99688294935E+01  0.12617818237E+03  0.22718883307E+03  0.00000000000E+00 0. -1.
         -2    1    5    5    0  503 -0.64275311168E+03  0.12085259261E+03  0.53111772209E+03  0.84250990880E+03  0.00000000000E+00 0.  1.
         -1    1    6    6    0  502  0.60508700052E+02  0.39529507386E+02 -0.76218214846E+02  0.10503856916E+03  0.00000000000E+00 0.  1.
<mgrwt>
<rscale>  0 0.24363309E+04</rscale>
<asrwt>0</asrwt>
<pdfrwt beam="1">  1        2 0.16314129E+00 0.24363309E+04</pdfrwt>
<pdfrwt beam="2">  1       -2 0.21528905E+00 0.24363309E+04</pdfrwt>
<totfact> 0.21889091E+00</totfact>
</mgrwt>
</event>
<event>
11    1  0.2502641E-008  0.1557262E+04  0.7818608E-02  0.8847242E-01
         -2   -1    0    0    0  501 -0.00000000000E+00  0.00000000000E+00  0.36692001436E+03  0.36692001436E+03  0.00000000000E+00 0.  1.
          2   -1    0    0  501    0  0.00000000000E+00 -0.00000000000E+00 -0.16523125412E+04  0.16523125412E+04  0.00000000000E+00 0. -1.
         23    2    1    2    0    0  0.19672386409E+03 -0.12549842769E+03  0.16346495446E+03  0.29858263652E+03  0.89334570240E+02 0.  0.
        254    2    1    2    0    0 -0.19672386409E+03  0.12549842769E+03 -0.14488574813E+04  0.17206499190E+04  0.89833067892E+03 0.  0.
         24    2    4    4    0    0 -0.28017742070E+03  0.37982080907E+03 -0.12517196017E+04  0.13402820197E+04  0.82405685656E+02 0.  0.
         13    1    3    3    0    0  0.33525526975E+02  0.12220123184E+02  0.31181061710E+02  0.47387244897E+02  0.00000000000E+00 0. -1.
        -13    1    3    3    0    0  0.16319833711E+03 -0.13771855087E+03  0.13228389275E+03  0.25119539162E+03  0.00000000000E+00 0.  1.
          4    1    5    5  502    0 -0.27391513398E+03  0.34847793035E+03 -0.11148958747E+04  0.11997746372E+04  0.00000000000E+00 0. -1.
          1    1    4    4  503    0  0.98099128003E+02 -0.15636065352E+03 -0.31328284514E+02  0.18722594450E+03  0.00000000000E+00 0. -1.
         -2    1    4    4    0  503 -0.14645571394E+02 -0.97961727854E+02 -0.16580959508E+03  0.19314195480E+03  0.00000000000E+00 0.  1.
         -3    1    5    5    0  502 -0.62622867139E+01  0.31342878716E+02 -0.13682372698E+03  0.14050738253E+03  0.00000000000E+00 0.  1.
<mgrwt>
<rscale>  0 0.15572624E+04</rscale>
<asrwt>0</asrwt>
<pdfrwt beam="1">  1        2 0.25420193E+00 0.15572624E+04</pdfrwt>
<pdfrwt beam="2">  1       -2 0.56449233E-01 0.15572624E+04</pdfrwt>
<totfact> 0.29531795E+01</totfact>
</mgrwt>
</event>
<event>
12    1  0.2502641E-008  0.1456137E+04  0.7818608E-02  0.8914157E-01
         -1   -1    0    0    0  501 -0.00000000000E+00  0.00000000000E+00  0.25219340834E+03  0.25219340834E+03  0.00000000000E+00 0.  1.
          1   -1    0    0  501    0  0.00000000000E+00 -0.00000000000E+00 -0.21018940921E+04  0.21018940921E+04  0.00000000000E+00 0. -1.
         23    2    1    2    0    0  0.28309100200E+03  0.27983311871E+03 -0.24865569224E+03  0.47733612534E+03  0.87023178112E+02 0.  0.
        254    2    1    2    0    0 -0.28309100200E+03 -0.27983311871E+03 -0.16010449915E+04  0.18767513751E+04  0.89465276466E+03 0.  0.
        -24    2    4    4    0    0 -0.31661725702E+03 -0.99804958526E+02 -0.16420200486E+04  0.16766082831E+04  0.67660756415E+02 0.  0.
         24    2    4    4    0    0  0.33526255023E+02 -0.18002816019E+03  0.40975057083E+02  0.20014309194E+03  0.69599954819E+02 0.  0.
         13    1    3    3    0    0  0.19738994029E+03  0.17998273907E+03 -0.21117552621E+03  0.34051678043E+03  0.00000000000E+00 0. -1.
        -13    1    3    3    0    0  0.85701061710E+02  0.99850379647E+02 -0.37480166031E+02  0.13681934490E+03  0.00000000000E+00 0.  1.
          2    1    6    6  502    0  0.55200286927E+02 -0.12763061336E+03  0.25610136212E+02  0.14139492290E+03  0.00000000000E+00 0. -1.
          1    1    5    5  503    0 -0.26562236131E+03 -0.10215846376E+03 -0.12989048313E+04  0.13297162672E+04  0.00000000000E+00 0. -1.
         -2    1    5    5    0  503 -0.50994895710E+02  0.23535052325E+01 -0.34311521733E+03  0.34689201597E+03  0.00000000000E+00 0.  1.
         -1    1    6    6    0  502 -0.21674031904E+02 -0.52397546823E+02  0.15364920871E+02  0.58748169039E+02  0.00000000000E+00 0.  1.
<mgrwt>
<rscale>  0 0.14561371E+04</rscale>
<asrwt>0</asrwt>
<pdfrwt beam="1">  1        1 0.32336830E+00 0.14561371E+04</pdfrwt>
<pdfrwt beam="2">  1       -1 0.38798988E-01 0.14561371E+04</pdfrwt>
<totfact> 0.15902376E+01</totfact>
</mgrwt>
</event>
<event>
12    1  0.2502641E-008  0.1238751E+04  0.7818608E-02  0.9079598E-01
         -1   -1    0    0    0  501 -0.00000000000E+00  0.00000000000E+00  0.50702182309E+03  0.50702182309E+03  0.00000000000E+00 0.  1.
          1   -1    0    0  501    0  0.00000000000E+00 -0.00000000000E+00 -0.75662681075E+03  0.75662681075E+03  0.00000000000E+00 0. -1.
         23    2    1    2    0    0  0.19113177785E+03  0.19552590911E+03  0.24212192601E+02  0.28939949276E+03  0.91673870346E+02 0.  0.
        254    2    1    2    0    0 -0.19113177785E+03 -0.19552590911E+03 -0.27381718026E+03  0.97424914108E+03  0.89410502910E+03 0.  0.
        -24    2    4    4    0    0 -0.16583794415E+03 -0.22019454809E+03 -0.58342955283E+03  0.65202148570E+03  0.93563411454E+02 0.  0.
         24    2    4    4    0    0 -0.25293833709E+02  0.24668638985E+02  0.30961237257E+03  0.32222765539E+03  0.81990980437E+02 0.  0.
         11    1    3    3    0    0  0.44574574565E+02  0.88981531828E+02  0.40562996559E+02  0.10747075134E+03  0.00000000000E+00 0.  1.
        -11    1    3    3    0    0  0.14655720329E+03  0.10654437728E+03 -0.16350803958E+02  0.18192874142E+03  0.00000000000E+00 0. -1.
          4    1    6    6  502    0  0.15169443422E+01  0.21232309395E+02  0.28461723535E+03  0.28541212788E+03  0.00000000000E+00 0. -1.
          3    1    5    5  503    0 -0.15990217816E+03 -0.15291617045E+03 -0.47936199088E+03  0.52795831282E+03  0.00000000000E+00 0. -1.
         -4    1    5    5    0  503 -0.59357659857E+01 -0.67278377636E+02 -0.10406756195E+03  0.12406317288E+03  0.00000000000E+00 0.  1.
         -3    1    6    6    0  502 -0.26810778051E+02  0.34363295898E+01  0.24995137217E+02  0.36815527502E+02  0.00000000000E+00 0.  1.
<mgrwt>
<rscale>  0 0.12387515E+04</rscale>
<asrwt>0</asrwt>
<pdfrwt beam="1">  1        1 0.11640412E+00 0.12387515E+04</pdfrwt>
<pdfrwt beam="2">  1       -1 0.78003358E-01 0.12387515E+04</pdfrwt>
<totfact> 0.39261335E+01</totfact>
</mgrwt>
</event>
<event>
11    1  0.2502641E-008  0.1415156E+04  0.7818608E-02  0.8942921E-01
          2   -1    0    0  501    0  0.00000000000E+00  0.00000000000E+00  0.59560568030E+03  0.59560568030E+03  0.00000000000E+00 0. -1.
         -2   -1    0    0    0  501 -0.00000000000E+00 -0.00000000000E+00 -0.84060056956E+03  0.84060056956E+03  0.00000000000E+00 0.  1.
         23    2    1    2    0    0 -0.14513018434E+03  0.16332418694E+03 -0.35364349802E+03  0.42601766269E+03  0.93218907858E+02 0.  0.
        254    2    1    2    0    0  0.14513018434E+03 -0.16332418694E+03  0.10864860876E+03  0.10101885872E+04  0.98027491094E+03 0.  0.
         24    2    4    4    0    0  0.13195138816E+03 -0.31029208298E+03 -0.36072396675E+03  0.49911880434E+03  0.72838554772E+02 0.  0.
         13    1    3    3    0    0 -0.32691888497E+02  0.25706826928E+01 -0.10077460994E+03  0.10597589344E+03  0.00000000000E+00 0. -1.
        -13    1    3    3    0    0 -0.11243829584E+03  0.16075350425E+03 -0.25286888808E+03  0.32004176925E+03  0.00000000000E+00 0.  1.
          2    1    5    5  502    0  0.10621549107E+03 -0.20316142292E+03 -0.19984880668E+03  0.30413128717E+03  0.00000000000E+00 0. -1.
          1    1    4    4  503    0 -0.57305678866E+01  0.12678012748E+03  0.46627362626E+03  0.48323610655E+03  0.00000000000E+00 0. -1.
         -2    1    4    4    0  503  0.18909364069E+02  0.20187768559E+02  0.30989492449E+01  0.27833676281E+02  0.00000000000E+00 0.  1.
         -1    1    5    5    0  502  0.25735897089E+02 -0.10713066006E+03 -0.16087516007E+03  0.19498751717E+03  0.00000000000E+00 0.  1.
<mgrwt>
<rscale>  0 0.14151558E+04</rscale>
<asrwt>0</asrwt>
<pdfrwt beam="1">  1        2 0.91631643E-01 0.14151558E+04</pdfrwt>
<pdfrwt beam="2">  1       -2 0.12932317E+00 0.14151558E+04</pdfrwt>
<totfact> 0.21401796E+01</totfact>
</mgrwt>
</event>
<event>
11    1  0.2502641E-008  0.1219141E+04  0.7818608E-02  0.9096266E-01
          1   -1    0    0  501    0  0.00000000000E+00  0.00000000000E+00  0.65769491292E+03  0.65769491292E+03  0.00000000000E+00 0. -1.
         -1   -1    0    0    0  501 -0.00000000000E+00 -0.00000000000E+00 -0.56496724661E+03  0.56496724661E+03  0.00000000000E+00 0.  1.
         23    2    1    2    0    0  0.75821013881E+02 -0.81965884541E+02  0.26279912648E+03  0.30051263704E+03  0.93686881539E+02 0.  0.
        254    2    1    2    0    0 -0.75821013881E+02  0.81965884541E+02 -0.17007146017E+03  0.92214952248E+03  0.89942659949E+03 0.  0.
         24    2    4    4    0    0  0.37997609906E+03 -0.96665577748E+01  0.51080426593E+02  0.39249560055E+03  0.83476393523E+02 0.  0.
         11    1    3    3    0    0  0.40159568005E+02 -0.95222057922E+02  0.22113324143E+03  0.24409002783E+03  0.00000000000E+00 0. -1.
        -11    1    3    3    0    0  0.35661445876E+02  0.13256173381E+02  0.41665885043E+02  0.56422609219E+02  0.00000000000E+00 0.  1.
          2    1    5    5  502    0  0.23388248195E+03 -0.17025368072E+02  0.70651648272E+02  0.24491331921E+03  0.00000000000E+00 0. -1.
          1    1    4    4  503    0 -0.40487865391E+03  0.11486768969E+03 -0.21705792311E+03  0.47353505943E+03  0.00000000000E+00 0. -1.
         -2    1    4    4    0  503 -0.50918459026E+02 -0.23235247370E+02 -0.40939636560E+01  0.56118862501E+02  0.00000000000E+00 0.  1.
         -1    1    5    5    0  502  0.14609361711E+03  0.73588102977E+01 -0.19571221679E+02  0.14758228134E+03  0.00000000000E+00 0.  1.
<mgrwt>
<rscale>  0 0.12191408E+04</rscale>
<asrwt>0</asrwt>
<pdfrwt beam="1">  1        1 0.10118383E+00 0.12191408E+04</pdfrwt>
<pdfrwt beam="2">  1       -1 0.86918038E-01 0.12191408E+04</pdfrwt>
<totfact> 0.38595872E+01</totfact>
</mgrwt>
</event>
<event>
12    1  0.2502641E-008  0.1474378E+04  0.7818608E-02  0.8901673E-01
         -2   -1    0    0    0  501 -0.00000000000E+00  0.00000000000E+00  0.14714362043E+04  0.14714362043E+04  0.00000000000E+00 0. -1.
          2   -1    0    0  501    0  0.00000000000E+00 -0.00000000000E+00 -0.36933117689E+03  0.36933117689E+03  0.00000000000E+00 0.  1.
         23    2    1    2    0    0 -0.11305647070E+03  0.19594260721E+03  0.83143962497E+03  0.86649312496E+03  0.91341199587E+02 0.  0.
        254    2    1    2    0    0  0.11305647070E+03 -0.19594260721E+03  0.27066540243E+03  0.97427425623E+03  0.90817140198E+03 0.  0.
        -24    2    4    4    0    0  0.35638910068E+03 -0.16854807187E+03 -0.19249556239E+03  0.44416063144E+03  0.69299937718E+02 0.  0.
         24    2    4    4    0    0 -0.24333262998E+03 -0.27394535340E+02  0.46316096482E+03  0.53011362479E+03  0.80877354518E+02 0.  0.
         13    1    3    3    0    0 -0.21175489055E+02  0.10913888953E+03  0.48876896963E+03  0.50125323362E+03  0.00000000000E+00 0. -1.
        -13    1    3    3    0    0 -0.91880981645E+02  0.86803717685E+02  0.34267065534E+03  0.36523989134E+03  0.00000000000E+00 0.  1.
          4    1    6    6  502    0 -0.51526540399E+02 -0.24755743436E+02  0.17367007576E+03  0.18283633778E+03  0.00000000000E+00 0. -1.
          3    1    5    5  503    0  0.11428406913E+03 -0.48458831747E+02 -0.96981888604E+02  0.15752648523E+03  0.00000000000E+00 0. -1.
         -4    1    5    5    0  503  0.24210503154E+03 -0.12008924013E+03 -0.95513673782E+02  0.28663414621E+03  0.00000000000E+00 0.  1.
         -3    1    6    6    0  502 -0.19180608958E+03 -0.26387919037E+01  0.28949088906E+03  0.34727728701E+03  0.00000000000E+00 0.  1.
<mgrwt>
<rscale>  0 0.14743775E+04</rscale>
<asrwt>0</asrwt>
<pdfrwt beam="1">  1        2 0.56820182E-01 0.14743775E+04</pdfrwt>
<pdfrwt beam="2">  1       -2 0.22637480E+00 0.14743775E+04</pdfrwt>
<totfact> 0.75847553E+00</totfact>
</mgrwt>
</event>
<event>
12    1  0.2502641E-008  0.3409950E+04  0.7818608E-02  0.8135469E-01
          1   -1    0    0  501    0  0.00000000000E+00  0.00000000000E+00  0.87562339226E+03  0.87562339226E+03  0.00000000000E+00 0. -1.
         -1   -1    0    0    0  501 -0.00000000000E+00 -0.00000000000E+00 -0.33198518999E+04  0.33198518999E+04  0.00000000000E+00 0.  1.
         23    2    1    2    0    0 -0.73097584869E+03 -0.14266984371E+04 -0.11800626028E+04  0.19921766935E+04  0.80163020292E+02 0.  0.
        254    2    1    2    0    0  0.73097584869E+03  0.14266984371E+04 -0.12641659049E+04  0.22032985986E+04  0.82862244590E+03 0.  0.
        -24    2    4    4    0    0  0.82808641523E+03  0.11347117673E+04 -0.12521240386E+04  0.18848886782E+04  0.10813332262E+03 0.  0.
         24    2    4    4    0    0 -0.97110566544E+02  0.29198666983E+03 -0.12041866292E+02  0.31840992039E+03  0.80951796563E+02 0.  0.
         11    1    3    3    0    0 -0.71597452798E+03 -0.14148762216E+04 -0.11696303157E+04  0.19704134902E+04  0.00000000000E+00 0.  1.
        -11    1    3    3    0    0 -0.15001320705E+02 -0.11822215573E+02 -0.10432287124E+02  0.21763203316E+02  0.00000000000E+00 0. -1.
          2    1    6    6  502    0 -0.59691349563E+02  0.92667730339E+02  0.23002898565E+02  0.11260328060E+03  0.00000000000E+00 0. -1.
          3    1    5    5  503    0  0.37819204714E+03  0.60098884244E+03 -0.60023603150E+03  0.92978497878E+03  0.00000000000E+00 0. -1.
         -4    1    5    5    0  503  0.44989436809E+03  0.53372292487E+03 -0.65188800707E+03  0.95510369947E+03  0.00000000000E+00 0.  1.
         -1    1    6    6    0  502 -0.37419216980E+02  0.19931893949E+03 -0.35044764858E+02  0.20580663980E+03  0.00000000000E+00 0.  1.
<mgrwt>
<rscale>  0 0.34099501E+04</rscale>
<asrwt>0</asrwt>
<pdfrwt beam="1">  1        1 0.13471129E+00 0.34099501E+04</pdfrwt>
<pdfrwt beam="2">  1       -1 0.51074644E+00 0.34099501E+04</pdfrwt>
<totfact> 0.19908122E-02</totfact>
</mgrwt>
</event>
<event>
12    1  0.2502641E-008  0.1162457E+04  0.7818608E-02  0.9146368E-01
          2   -1    0    0  501    0  0.00000000000E+00  0.00000000000E+00  0.27670641216E+04  0.27670641216E+04  0.00000000000E+00 0.  1.
         -2   -1    0    0    0  501 -0.00000000000E+00 -0.00000000000E+00 -0.12208844960E+03  0.12208844960E+03  0.00000000000E+00 0. -1.
         23    2    1    2    0    0  0.10131856704E+03  0.15278010495E+01  0.10412992753E+04  0.10502332955E+04  0.91749703069E+02 0.  0.
        254    2    1    2    0    0 -0.10131856704E+03 -0.15278010495E+01  0.16036763967E+04  0.18389192757E+04  0.89419143982E+03 0.  0.
        -24    2    4    4    0    0 -0.33866088520E+03  0.30491544919E+03  0.60096158175E+03  0.76101342662E+03  0.10159717726E+03 0.  0.
         24    2    4    4    0    0  0.23734231816E+03 -0.30644325024E+03  0.10027148149E+04  0.10779058491E+04  0.78772950858E+02 0.  0.
         11    1    3    3    0    0  0.78962158051E+02 -0.45120341121E+00  0.35972977758E+03  0.36829436442E+03  0.00000000000E+00 0.  1.
        -11    1    3    3    0    0  0.22356408990E+02  0.19790044607E+01  0.68156949777E+03  0.68193893111E+03  0.00000000000E+00 0. -1.
          4    1    6    6  502    0  0.11829027948E+03 -0.16760296490E+03  0.63327754475E+03  0.66567544100E+03  0.00000000000E+00 0. -1.
          1    1    5    5  503    0 -0.19757708967E+03  0.15617756868E+03  0.25191141117E+03  0.35621271511E+03  0.00000000000E+00 0. -1.
         -2    1    5    5    0  503 -0.14108379553E+03  0.14873788051E+03  0.34905017058E+03  0.40480071151E+03  0.00000000000E+00 0.  1.
         -3    1    6    6    0  502  0.11905203868E+03 -0.13884028534E+03  0.36943727018E+03  0.41223040808E+03  0.00000000000E+00 0.  1.
<mgrwt>
<rscale>  0 0.11624570E+04</rscale>
<asrwt>0</asrwt>
<pdfrwt beam="1">  1        2 0.42570213E+00 0.11624570E+04</pdfrwt>
<pdfrwt beam="2">  1       -2 0.18782840E-01 0.11624570E+04</pdfrwt>
<totfact> 0.57792585E+01</totfact>
</mgrwt>
</event>
<event>
12    1  0.2502641E-008  0.1282568E+04  0.7818608E-02  0.9043504E-01
          2   -1    0    0  501    0  0.00000000000E+00  0.00000000000E+00  0.22318953459E+04  0.22318953459E+04  0.00000000000E+00 0. -1.
         -2   -1    0    0    0  501 -0.00000000000E+00 -0.00000000000E+00 -0.18425827471E+03  0.18425827471E+03  0.00000000000E+00 0.  1.
         23    2    1    2    0    0  0.58758208287E+02 -0.11554589119E+03  0.91824003993E+03  0.93199163011E+03  0.92952932485E+02 0.  0.
        254    2    1    2    0    0 -0.58758208287E+02  0.11554589119E+03  0.11293970312E+04  0.14841619905E+04  0.95414662385E+03 0.  0.
        -24    2    4    4    0    0  0.12978099547E+03 -0.14107678434E+03  0.11387710301E+04  0.11565808148E+04  0.64295850890E+02 0.  0.
         24    2    4    4    0    0 -0.18853920375E+03  0.25662267552E+03 -0.93739988458E+01  0.32758117563E+03  0.76284505836E+02 0.  0.
         13    1    3    3    0    0  0.29431033124E+02 -0.88255459173E+02  0.34407276105E+03  0.35642850150E+03  0.00000000000E+00 0.  1.
        -13    1    3    3    0    0  0.29327175163E+02 -0.27290432015E+02  0.57416727887E+03  0.57556312860E+03  0.00000000000E+00 0. -1.
          4    1    6    6  502    0 -0.10191862005E+02  0.10523352107E+02  0.17081587538E+02  0.22503235845E+02  0.00000000000E+00 0. -1.
          3    1    5    5  503    0  0.16925681689E+01  0.27090405092E+01  0.23632615513E+01  0.39734987916E+01  0.00000000000E+00 0. -1.
         -4    1    5    5    0  503  0.12808842730E+03 -0.14378582484E+03  0.11364077685E+04  0.11526073161E+04  0.00000000000E+00 0.  1.
         -1    1    6    6    0  502 -0.17834734175E+03  0.24609932342E+03 -0.26455586384E+02  0.30507793979E+03  0.00000000000E+00 0.  1.
<mgrwt>
<rscale>  0 0.12825680E+04</rscale>
<asrwt>0</asrwt>
<pdfrwt beam="1">  1        2 0.34336850E+00 0.12825680E+04</pdfrwt>
<pdfrwt beam="2">  1       -2 0.28347428E-01 0.12825680E+04</pdfrwt>
<totfact> 0.55535371E+01</totfact>
</mgrwt>
</event>
<event>
12    1  0.2502641E-008  0.1953855E+04  0.7818608E-02  0.8628504E-01
         -2   -1    0    0    0  501 -0.00000000000E+00  0.00000000000E+00  0.64701927065E+03  0.64701927065E+03  0.00000000000E+00 0.  1.
          2   -1    0    0  501    0  0.00000000000E+00 -0.00000000000E+00 -0.14750531365E+04  0.14750531365E+04  0.00000000000E+00 0. -1.
         23    2    1    2    0    0  0.71838834656E+03  0.27556241945E+01 -0.59329516050E+03  0.93608097023E+03  0.90327323728E+02 0.  0.
        254    2    1    2    0    0 -0.71838834656E+03 -0.27556241945E+01 -0.23473870533E+03  0.11859914369E+04  0.91399344565E+03 0.  0.
        -24    2    4    4    0    0  0.20768932363E+03  0.40337305044E+02 -0.54872261361E+02  0.23818076887E+03  0.94642275246E+02 0.  0.
         24    2    4    4    0    0 -0.92607767019E+03 -0.43092929238E+02 -0.17986644397E+03  0.94781066803E+03  0.80723435171E+02 0.  0.
         11    1    3    3    0    0  0.98113400224E+02  0.23685822647E+02 -0.11146192379E+03  0.15036960448E+03  0.00000000000E+00 0.  1.
        -11    1    3    3    0    0  0.62027494634E+03 -0.20930198453E+02 -0.48183323671E+03  0.78571136575E+03  0.00000000000E+00 0. -1.
          2    1    6    6  502    0 -0.86729713190E+03 -0.43092573038E+02 -0.18795763861E+03  0.88847586279E+03  0.00000000000E+00 0. -1.
          1    1    5    5  503    0  0.20999696388E+03  0.50327983212E+02 -0.63166352483E+02  0.22499248614E+03  0.00000000000E+00 0. -1.
         -2    1    5    5    0  503 -0.23076402502E+01 -0.99906781687E+01  0.82940911221E+01  0.13188282729E+02  0.00000000000E+00 0.  1.
         -3    1    6    6    0  502 -0.58780538290E+02 -0.35619985924E-03  0.80911946352E+01  0.59334805236E+02  0.00000000000E+00 0.  1.
<mgrwt>
<rscale>  0 0.19538555E+04</rscale>
<asrwt>0</asrwt>
<pdfrwt beam="1">  1        2 0.22693125E+00 0.19538555E+04</pdfrwt>
<pdfrwt beam="2">  1       -2 0.99541428E-01 0.19538555E+04</pdfrwt>
<totfact> 0.10212658E+01</totfact>
</mgrwt>
</event>
<event>
12    1  0.2502641E-008  0.2817248E+04  0.7818608E-02  0.8297933E-01
          1   -1    0    0  501    0  0.00000000000E+00  0.00000000000E+00  0.10699423811E+04  0.10699423811E+04  0.00000000000E+00 0. -1.
         -1   -1    0    0    0  501 -0.00000000000E+00 -0.00000000000E+00 -0.18545124803E+04  0.18545124803E+04  0.00000000000E+00 0.  1.
         23    2    1    2    0    0  0.33242188514E+03  0.10360067155E+04 -0.10175173844E+04  0.14924648973E+04  0.91080282970E+02 0.  0.
        254    2    1    2    0    0 -0.33242188514E+03 -0.10360067155E+04  0.23294728525E+03  0.14319899641E+04  0.90139702432E+03 0.  0.
        -24    2    4    4    0    0 -0.52267737638E+03 -0.81434113892E+03  0.43772953636E+03  0.10662380936E+04  0.94410777780E+02 0.  0.
         24    2    4    4    0    0  0.19025549124E+03 -0.22166557655E+03 -0.20478225111E+03  0.36575187052E+03  0.80659039438E+02 0.  0.
         13    1    3    3    0    0  0.32568232010E+03  0.92791132127E+03 -0.92325820410E+03  0.13488862462E+04  0.00000000000E+00 0.  1.
        -13    1    3    3    0    0  0.67395650408E+01  0.10809539419E+03 -0.94259180335E+02  0.14357865113E+03  0.00000000000E+00 0. -1.
          2    1    6    6  502    0  0.72299418757E+02 -0.81277162815E+02 -0.12521731636E+03  0.16586910341E+03  0.00000000000E+00 0. -1.
          3    1    5    5  503    0 -0.49324994830E+03 -0.78967822005E+03  0.40328162583E+03  0.10146542625E+04  0.00000000000E+00 0. -1.
         -4    1    5    5    0  503 -0.29427428080E+02 -0.24662918869E+02  0.34447910532E+02  0.51583831096E+02  0.00000000000E+00 0.  1.
         -1    1    6    6    0  502  0.11795607248E+03 -0.14038841373E+03 -0.79564934747E+02  0.19988276711E+03  0.00000000000E+00 0.  1.
<mgrwt>
<rscale>  0 0.28172479E+04</rscale>
<asrwt>0</asrwt>
<pdfrwt beam="1">  1        1 0.16460652E+00 0.28172479E+04</pdfrwt>
<pdfrwt beam="2">  1       -1 0.28530961E+00 0.28172479E+04</pdfrwt>
<totfact> 0.47491630E-01</totfact>
</mgrwt>
</event>
<event>
12    1  0.2502641E-008  0.3984474E+04  0.7818608E-02  0.8007686E-01
          1   -1    0    0  501    0  0.00000000000E+00  0.00000000000E+00  0.34057758292E+04  0.34057758292E+04  0.00000000000E+00 0. -1.
         -1   -1    0    0    0  501 -0.00000000000E+00 -0.00000000000E+00 -0.11653755892E+04  0.11653755892E+04  0.00000000000E+00 0.  1.
         23    2    1    2    0    0 -0.76369265493E+03  0.10511573540E+04  0.26370918368E+04  0.29411891855E+04  0.90455596567E+02 0.  0.
        254    2    1    2    0    0  0.76369265493E+03 -0.10511573540E+04 -0.39669159681E+03  0.16299622328E+04  0.90069662127E+03 0.  0.
        -24    2    4    4    0    0  0.36275279662E+03 -0.60257678301E+03  0.24146638027E+03  0.74931827934E+03  0.92105917711E+02 0.  0.
         24    2    4    4    0    0  0.40093985832E+03 -0.44858057094E+03 -0.63815797707E+03  0.88064395351E+03  0.79440987769E+02 0.  0.
         11    1    3    3    0    0 -0.28832538319E+03  0.38901178587E+03  0.88611865125E+03  0.10097860963E+04  0.00000000000E+00 0. -1.
        -11    1    3    3    0    0 -0.47536727175E+03  0.66214556808E+03  0.17509731856E+04  0.19314030892E+04  0.00000000000E+00 0.  1.
          2    1    6    6  502    0 -0.26150139970E+01 -0.82010296234E+01 -0.15973207205E+02  0.18144931344E+02  0.00000000000E+00 0. -1.
          1    1    5    5  503    0  0.15073516166E+03 -0.17671525293E+03  0.10112533110E+03  0.25332923670E+03  0.00000000000E+00 0. -1.
         -2    1    5    5    0  503  0.21201763496E+03 -0.42586153008E+03  0.14034104917E+03  0.49598904264E+03  0.00000000000E+00 0.  1.
         -1    1    6    6    0  502  0.40355487231E+03 -0.44037954131E+03 -0.62218476987E+03  0.86249902216E+03  0.00000000000E+00 0.  1.
<mgrwt>
<rscale>  0 0.39844739E+04</rscale>
<asrwt>0</asrwt>
<pdfrwt beam="1">  1        1 0.52396551E+00 0.39844739E+04</pdfrwt>
<pdfrwt beam="2">  1       -1 0.17928855E+00 0.39844739E+04</pdfrwt>
<totfact> 0.48800340E-02</totfact>
</mgrwt>
</event>
<event>
12    1  0.2502641E-008  0.1247044E+04  0.7818608E-02  0.9072647E-01
         -2   -1    0    0    0  501 -0.00000000000E+00  0.00000000000E+00  0.15786152254E+03  0.15786152254E+03  0.00000000000E+00 0.  1.
          2   -1    0    0  501    0  0.00000000000E+00 -0.00000000000E+00 -0.24627906929E+04  0.24627906929E+04  0.00000000000E+00 0. -1.
         23    2    1    2    0    0  0.12310261869E+03 -0.89078987720E+02 -0.10719143794E+04  0.10864975160E+04  0.91581083651E+02 0.  0.
        254    2    1    2    0    0 -0.12310261869E+03  0.89078987720E+02 -0.12330147910E+04  0.15341546995E+04  0.90011990655E+03 0.  0.
        -24    2    4    4    0    0  0.27006376163E+03  0.24416845241E+03 -0.94347495816E+03  0.10153771126E+04  0.91065996068E+02 0.  0.
         24    2    4    4    0    0 -0.39316638032E+03 -0.15508946469E+03 -0.28953983289E+03  0.51877758686E+03  0.81635317849E+02 0.  0.
         13    1    3    3    0    0 -0.12012359827E+02 -0.11785827773E+01 -0.32702336336E+02  0.34858695441E+02  0.00000000000E+00 0.  1.
        -13    1    3    3    0    0  0.13511497852E+03 -0.87900404943E+02 -0.10392120430E+04  0.10516388206E+04  0.00000000000E+00 0. -1.
          4    1    6    6  502    0 -0.14851915016E+03 -0.82297465510E+02 -0.15660206695E+03  0.23098705194E+03  0.00000000000E+00 0. -1.
          3    1    5    5  503    0  0.22723450819E+02 -0.40326115477E+01 -0.37896177340E+02  0.44370456725E+02  0.00000000000E+00 0. -1.
         -4    1    5    5    0  503  0.24734031081E+03  0.24820106396E+03 -0.90557878082E+03  0.97100665588E+03  0.00000000000E+00 0.  1.
         -3    1    6    6    0  502 -0.24464723017E+03 -0.72791999181E+02 -0.13293776594E+03  0.28779053491E+03  0.00000000000E+00 0.  1.
<mgrwt>
<rscale>  0 0.12470443E+04</rscale>
<asrwt>0</asrwt>
<pdfrwt beam="1">  1        2 0.37889086E+00 0.12470443E+04</pdfrwt>
<pdfrwt beam="2">  1       -2 0.24286389E-01 0.12470443E+04</pdfrwt>
<totfact> 0.54684000E+01</totfact>
</mgrwt>
</event>
<event>
11    1  0.2502641E-008  0.1487248E+04  0.7818608E-02  0.8892977E-01
         -2   -1    0    0    0  501 -0.00000000000E+00  0.00000000000E+00  0.60027377790E+03  0.60027377790E+03  0.00000000000E+00 0.  1.
          2   -1    0    0  501    0  0.00000000000E+00 -0.00000000000E+00 -0.92120753069E+03  0.92120753069E+03  0.00000000000E+00 0. -1.
         23    2    1    2    0    0 -0.44016687229E+03  0.18217760729E+02  0.48601373632E+02  0.45265172819E+03  0.91938736340E+02 0.  0.
        254    2    1    2    0    0  0.44016687229E+03 -0.18217760729E+02 -0.36953512642E+03  0.10688295804E+04  0.90097819065E+03 0.  0.
         24    2    4    4    0    0  0.27387159742E+03 -0.36371581629E+02  0.26538804192E+03  0.39151296319E+03  0.80765362175E+02 0.  0.
         13    1    3    3    0    0 -0.17908153771E+03  0.39950471871E+02  0.51759561730E+02  0.19064440611E+03  0.00000000000E+00 0.  1.
        -13    1    3    3    0    0 -0.26108533458E+03 -0.21732711142E+02 -0.31581880981E+01  0.26200732207E+03  0.00000000000E+00 0. -1.
          4    1    5    5  502    0  0.21117200319E+03 -0.60583306061E+02  0.18937196667E+03  0.29004429604E+03  0.00000000000E+00 0. -1.
          1    1    4    4  503    0  0.22342454218E+02  0.54001172555E+02 -0.36194506281E+03  0.36663270502E+03  0.00000000000E+00 0. -1.
         -2    1    4    4    0  503  0.14395282066E+03 -0.35847351655E+02 -0.27297810554E+03  0.31068391220E+03  0.00000000000E+00 0.  1.
         -3    1    5    5    0  502  0.62699594230E+02  0.24211724432E+02  0.76016075257E+02  0.10146866715E+03  0.00000000000E+00 0.  1.
<mgrwt>
<rscale>  0 0.14872481E+04</rscale>
<asrwt>0</asrwt>
<pdfrwt beam="1">  1        2 0.14172424E+00 0.14872481E+04</pdfrwt>
<pdfrwt beam="2">  1       -2 0.92349812E-01 0.14872481E+04</pdfrwt>
<totfact> 0.27324746E+01</totfact>
</mgrwt>
</event>
<event>
11    1  0.2502641E-008  0.1271244E+04  0.7818608E-02  0.9052685E-01
          1   -1    0    0  501    0  0.00000000000E+00  0.00000000000E+00  0.10477133655E+04  0.10477133655E+04  0.00000000000E+00 0. -1.
         -1   -1    0    0    0  501 -0.00000000000E+00 -0.00000000000E+00 -0.38561611830E+03  0.38561611830E+03  0.00000000000E+00 0.  1.
         23    2    1    2    0    0 -0.69789372190E+02 -0.26947501109E+03  0.21042520685E+02  0.29459672371E+03  0.94112187687E+02 0.  0.
        254    2    1    2    0    0  0.69789372190E+02  0.26947501109E+03  0.64105472651E+03  0.11387327601E+04  0.89904048764E+03 0.  0.
         24    2    4    4    0    0  0.15210876302E+03  0.23192121706E+03  0.84203404414E+03  0.89057004785E+03  0.84670844560E+02 0.  0.
         13    1    3    3    0    0 -0.58853710443E+02 -0.83208702209E+02 -0.19219570246E+02  0.10371518325E+03  0.00000000000E+00 0. -1.
        -13    1    3    3    0    0 -0.10935661747E+02 -0.18626630888E+03  0.40262090932E+02  0.19088154046E+03  0.00000000000E+00 0.  1.
          2    1    5    5  502    0  0.14282255602E+03  0.20862433554E+03  0.81662843277E+03  0.85487098038E+03  0.00000000000E+00 0. -1.
          3    1    4    4  503    0 -0.36676112375E+02  0.41097472276E+02 -0.19422703606E+03  0.20188680240E+03  0.00000000000E+00 0. -1.
         -4    1    4    4    0  503 -0.45643278455E+02 -0.35436782417E+01 -0.67522815732E+01  0.46275909824E+02  0.00000000000E+00 0.  1.
         -1    1    5    5    0  502  0.92862069953E+01  0.23296881516E+02  0.25405611373E+02  0.35699067466E+02  0.00000000000E+00 0.  1.
<mgrwt>
<rscale>  0 0.12712437E+04</rscale>
<asrwt>0</asrwt>
<pdfrwt beam="1">  1        1 0.16118667E+00 0.12712437E+04</pdfrwt>
<pdfrwt beam="2">  1       -1 0.59325557E-01 0.12712437E+04</pdfrwt>
<totfact> 0.39405809E+01</totfact>
</mgrwt>
</event>
<event>
12    1  0.2502641E-008  0.2550032E+04  0.7818608E-02  0.8385375E-01
         -1   -1    0    0    0  501 -0.00000000000E+00  0.00000000000E+00  0.95425217664E+03  0.95425217664E+03  0.00000000000E+00 0.  1.
          1   -1    0    0  501    0  0.00000000000E+00 -0.00000000000E+00 -0.17036019534E+04  0.17036019534E+04  0.00000000000E+00 0. -1.
         23    2    1    2    0    0  0.10993603961E+04  0.65855519925E+02 -0.17518334389E+03  0.11188399127E+04  0.90461682904E+02 0.  0.
        254    2    1    2    0    0 -0.10993603961E+04 -0.65855519925E+02 -0.57416643286E+03  0.15390142174E+04  0.90882750758E+03 0.  0.
        -24    2    4    4    0    0 -0.10839288611E+04  0.12808012380E+03 -0.69282044152E+03  0.12959425586E+04  0.90336354695E+02 0.  0.
         24    2    4    4    0    0 -0.15431535064E+02 -0.19393564373E+03  0.11865400866E+03  0.24307165878E+03  0.84592501726E+02 0.  0.
         11    1    3    3    0    0  0.10455456354E+04  0.81043249794E+02 -0.17319532977E+03  0.10628877205E+04  0.00000000000E+00 0.  1.
        -11    1    3    3    0    0  0.53814760736E+02 -0.15187729869E+02 -0.19880141195E+01  0.55952192198E+02  0.00000000000E+00 0. -1.
          4    1    6    6  502    0 -0.25931586973E+02 -0.19293128753E+03  0.93829785183E+02  0.21609941577E+03  0.00000000000E+00 0. -1.
          1    1    5    5  503    0 -0.93394129445E+03  0.12719473555E+03 -0.62757546757E+03  0.11323761785E+04  0.00000000000E+00 0. -1.
         -2    1    5    5    0  503 -0.14998756664E+03  0.88538824775E+00 -0.65244973946E+02  0.16356638005E+03  0.00000000000E+00 0.  1.
         -3    1    6    6    0  502  0.10500051909E+02 -0.10043561982E+01  0.24824223477E+02  0.26972243005E+02  0.00000000000E+00 0.  1.
<mgrwt>
<rscale>  0 0.25500321E+04</rscale>
<asrwt>0</asrwt>
<pdfrwt beam="1">  1        1 0.26209261E+00 0.25500321E+04</pdfrwt>
<pdfrwt beam="2">  1       -1 0.14680803E+00 0.25500321E+04</pdfrwt>
<totfact> 0.15495976E+00</totfact>
</mgrwt>
</event>
<event>
11    1  0.2502641E-008  0.1476519E+04  0.7818608E-02  0.8900219E-01
         -2   -1    0    0    0  501 -0.00000000000E+00  0.00000000000E+00  0.22412202780E+03  0.22412202780E+03  0.00000000000E+00 0.  1.
          2   -1    0    0  501    0  0.00000000000E+00 -0.00000000000E+00 -0.24318317047E+04  0.24318317047E+04  0.00000000000E+00 0. -1.
         23    2    1    2    0    0 -0.20791011283E+03 -0.28291508694E+03 -0.15967231267E+03  0.39434719134E+03  0.82139506006E+02 0.  0.
        254    2    1    2    0    0  0.20791011283E+03  0.28291508694E+03 -0.20480373643E+04  0.22616065412E+04  0.89282671346E+03 0.  0.
         24    2    4    4    0    0  0.46319620604E+03 -0.47108569368E+02 -0.12960719517E+04  0.13794133926E+04  0.78796325580E+02 0.  0.
         11    1    3    3    0    0 -0.16145078032E+02 -0.42563202810E+01 -0.25419434753E+02  0.30412620245E+02  0.00000000000E+00 0. -1.
        -11    1    3    3    0    0 -0.19176503480E+03 -0.27865876666E+03 -0.13425287791E+03  0.36393457109E+03  0.00000000000E+00 0.  1.
          4    1    5    5  502    0  0.18714036743E+03  0.19302793694E+02 -0.50008896041E+03  0.53430616999E+03  0.00000000000E+00 0. -1.
          3    1    4    4  503    0 -0.14363574389E+03  0.30644182433E+03 -0.48054195707E+03  0.58775708514E+03  0.00000000000E+00 0. -1.
         -4    1    4    4    0  503 -0.11165034932E+03  0.23581831981E+02 -0.27142345545E+03  0.29443606347E+03  0.00000000000E+00 0.  1.
         -3    1    5    5    0  502  0.27605583862E+03 -0.66411363062E+02 -0.79598299132E+03  0.84510722258E+03  0.00000000000E+00 0.  1.
<mgrwt>
<rscale>  0 0.14765190E+04</rscale>
<asrwt>0</asrwt>
<pdfrwt beam="1">  1        2 0.37412797E+00 0.14765190E+04</pdfrwt>
<pdfrwt beam="2">  1       -2 0.34480310E-01 0.14765190E+04</pdfrwt>
<totfact> 0.29155579E+01</totfact>
</mgrwt>
</event>
<event>
11    1  0.2502641E-008  0.1922326E+04  0.7818608E-02  0.8643822E-01
          2   -1    0    0  501    0  0.00000000000E+00  0.00000000000E+00  0.14138727625E+04  0.14138727625E+04  0.00000000000E+00 0. -1.
         -2   -1    0    0    0  501 -0.00000000000E+00 -0.00000000000E+00 -0.65340716090E+03  0.65340716090E+03  0.00000000000E+00 0.  1.
         23    2    1    2    0    0  0.10680121789E+03 -0.51214155087E+03  0.87704687043E+03  0.10248652896E+04  0.86268073955E+02 0.  0.
        254    2    1    2    0    0 -0.10680121789E+03  0.51214155087E+03 -0.11658126886E+03  0.10424146338E+04  0.89405906306E+03 0.  0.
         24    2    4    4    0    0 -0.27815039356E+02  0.19649849035E+03 -0.45323829579E+03  0.50104003720E+03  0.78935625590E+02 0.  0.
         11    1    3    3    0    0  0.78779728617E+02 -0.28300901530E+03  0.56387277906E+03  0.63580882295E+03  0.00000000000E+00 0. -1.
        -11    1    3    3    0    0  0.28021489271E+02 -0.22913253556E+03  0.31317409137E+03  0.38905646662E+03  0.00000000000E+00 0.  1.
          2    1    5    5  502    0 -0.44902613776E+02  0.13786280526E+03 -0.37309362001E+03  0.40027646332E+03  0.00000000000E+00 0. -1.
          1    1    4    4  503    0 -0.89070582364E+02  0.16512609212E+02  0.18467653947E+03  0.20569798039E+03  0.00000000000E+00 0. -1.
         -2    1    4    4    0  503  0.10084403832E+02  0.29913045131E+03  0.15198048746E+03  0.33567661621E+03  0.00000000000E+00 0.  1.
         -1    1    5    5    0  502  0.17087574420E+02  0.58635685090E+02 -0.80144675779E+02  0.10076357388E+03  0.00000000000E+00 0.  1.
<mgrwt>
<rscale>  0 0.19223263E+04</rscale>
<asrwt>0</asrwt>
<pdfrwt beam="1">  1        2 0.21751889E+00 0.19223263E+04</pdfrwt>
<pdfrwt beam="2">  1       -2 0.10052418E+00 0.19223263E+04</pdfrwt>
<totfact> 0.10838091E+01</totfact>
</mgrwt>
</event>
<event>
11    1  0.2502641E-008  0.1448229E+04  0.7818608E-02  0.8919629E-01
          2   -1    0    0  501    0  0.00000000000E+00  0.00000000000E+00  0.59669085794E+03  0.59669085794E+03  0.00000000000E+00 0. -1.
         -2   -1    0    0    0  501 -0.00000000000E+00 -0.00000000000E+00 -0.87874911614E+03  0.87874911614E+03  0.00000000000E+00 0.  1.
         23    2    1    2    0    0  0.24045403061E+03 -0.33472176641E+03 -0.24130099554E+03  0.48614665920E+03  0.90860343683E+02 0.  0.
        254    2    1    2    0    0 -0.24045403061E+03  0.33472176641E+03 -0.40757262661E+02  0.98929331488E+03  0.89843380761E+03 0.  0.
         24    2    4    4    0    0  0.15189119887E+03  0.30545302100E+03 -0.33250399155E+03  0.48304513248E+03  0.80007570177E+02 0.  0.
         13    1    3    3    0    0  0.95362293604E+01 -0.70096239584E+02 -0.36950050413E+02  0.79810580125E+02  0.00000000000E+00 0. -1.
        -13    1    3    3    0    0  0.23091780125E+03 -0.26462552683E+03 -0.20435094513E+03  0.40633607907E+03  0.00000000000E+00 0.  1.
          4    1    5    5  502    0  0.11592311733E+03  0.15244348102E+03 -0.15883102802E+03  0.24880610824E+03  0.00000000000E+00 0. -1.
          1    1    4    4  503    0 -0.15549365097E+03 -0.41261848663E+02  0.15691668604E+03  0.22473019825E+03  0.00000000000E+00 0. -1.
         -2    1    4    4    0  503 -0.23685157850E+03  0.70530594078E+02  0.13483004286E+03  0.28151798414E+03  0.00000000000E+00 0.  1.
         -3    1    5    5    0  502  0.35968081537E+02  0.15300953998E+03 -0.17367296354E+03  0.23423902424E+03  0.00000000000E+00 0.  1.
<mgrwt>
<rscale>  0 0.14482287E+04</rscale>
<asrwt>0</asrwt>
<pdfrwt beam="1">  1        2 0.91798594E-01 0.14482287E+04</pdfrwt>
<pdfrwt beam="2">  1       -2 0.13519217E+00 0.14482287E+04</pdfrwt>
<totfact> 0.19025931E+01</totfact>
</mgrwt>
</event>
<event>
12    1  0.2502641E-008  0.1431351E+04  0.7818608E-02  0.8931432E-01
          1   -1    0    0  501    0  0.00000000000E+00  0.00000000000E+00  0.33750528749E+03  0.33750528749E+03  0.00000000000E+00 0. -1.
         -1   -1    0    0    0  501 -0.00000000000E+00 -0.00000000000E+00 -0.15175809936E+04  0.15175809936E+04  0.00000000000E+00 0.  1.
         23    2    1    2    0    0  0.27566504858E+03 -0.26308870516E+03 -0.12721310107E+03  0.41308297470E+03  0.96163845139E+02 0.  0.
        254    2    1    2    0    0 -0.27566504858E+03  0.26308870516E+03 -0.10528626050E+04  0.14420033063E+04  0.90865118979E+03 0.  0.
        -24    2    4    4    0    0 -0.27618226434E+03  0.45442098624E+03 -0.22051796598E+03  0.58430626321E+03  0.10005278621E+03 0.  0.
         24    2    4    4    0    0  0.51721575787E+00 -0.19133228108E+03 -0.83234463902E+03  0.85769704314E+03  0.78982975424E+02 0.  0.
         11    1    3    3    0    0  0.88828401470E+02 -0.72487506028E+02 -0.85317763154E+02  0.14291271514E+03  0.00000000000E+00 0.  1.
        -11    1    3    3    0    0  0.18683664711E+03 -0.19060119914E+03 -0.41895337916E+02  0.27017025957E+03  0.00000000000E+00 0. -1.
          2    1    6    6  502    0 -0.64405375826E+01 -0.92561083906E+02 -0.56575888223E+03  0.57331679515E+03  0.00000000000E+00 0. -1.
          3    1    5    5  503    0 -0.23731068638E+03  0.33019491104E+03 -0.13452991736E+03  0.42830285992E+03  0.00000000000E+00 0. -1.
         -4    1    5    5    0  503 -0.38871577963E+02  0.12422607520E+03 -0.85988048615E+02  0.15600340329E+03  0.00000000000E+00 0.  1.
         -1    1    6    6    0  502  0.69577533404E+01 -0.98771197175E+02 -0.26658575679E+03  0.28438024799E+03  0.00000000000E+00 0.  1.
<mgrwt>
<rscale>  0 0.14313513E+04</rscale>
<asrwt>0</asrwt>
<pdfrwt beam="1">  1        1 0.51923890E-01 0.14313513E+04</pdfrwt>
<pdfrwt beam="2">  1       -1 0.23347400E+00 0.14313513E+04</pdfrwt>
<totfact> 0.65444826E+00</totfact>
</mgrwt>
</event>
<event>
11    1  0.2502641E-008  0.2139388E+04  0.7818608E-02  0.8544089E-01
         -1   -1    0    0    0  501 -0.00000000000E+00  0.00000000000E+00  0.48445209098E+03  0.48445209098E+03  0.00000000000E+00 0.  1.
          1   -1    0    0  501    0  0.00000000000E+00 -0.00000000000E+00 -0.23619360769E+04  0.23619360769E+04  0.00000000000E+00 0. -1.
         23    2    1    2    0    0 -0.77456302156E+03 -0.41270334702E+03 -0.76735348908E+03  0.11693970335E+04  0.91575749272E+02 0.  0.
        254    2    1    2    0    0  0.77456302156E+03  0.41270334702E+03 -0.11101304968E+04  0.16769911343E+04  0.89979865390E+03 0.  0.
         24    2    4    4    0    0  0.69611401608E+03  0.65161545264E+03 -0.98578056394E+03  0.13737561314E+04  0.79152807522E+02 0.  0.
         11    1    3    3    0    0 -0.50474868561E+03 -0.22069409969E+03 -0.49552470685E+03  0.74096009094E+03  0.00000000000E+00 0.  1.
        -11    1    3    3    0    0 -0.26981433596E+03 -0.19200924733E+03 -0.27182878223E+03  0.42843694261E+03  0.00000000000E+00 0. -1.
          2    1    5    5  502    0  0.40898995191E+03  0.39975781777E+03 -0.53766030262E+03  0.78495712918E+03  0.00000000000E+00 0. -1.
          3    1    4    4  503    0  0.88178607506E+02 -0.15643155680E+03 -0.38238821627E+02  0.18359876433E+03  0.00000000000E+00 0. -1.
         -4    1    4    4    0  503 -0.97296020242E+01 -0.82480548817E+02 -0.86111111231E+02  0.11963623852E+03  0.00000000000E+00 0.  1.
         -1    1    5    5    0  502  0.28712406417E+03  0.25185763488E+03 -0.44812026131E+03  0.58879900227E+03  0.00000000000E+00 0.  1.
<mgrwt>
<rscale>  0 0.21393876E+04</rscale>
<asrwt>0</asrwt>
<pdfrwt beam="1">  1        1 0.36337478E+00 0.21393876E+04</pdfrwt>
<pdfrwt beam="2">  1       -1 0.74531091E-01 0.21393876E+04</pdfrwt>
<totfact> 0.28019312E+00</totfact>
</mgrwt>
</event>
<event>
12    1  0.2502641E-008  0.1467781E+04  0.7818608E-02  0.8906165E-01
         -1   -1    0    0    0  501 -0.00000000000E+00  0.00000000000E+00  0.63592417465E+03  0.63592417465E+03  0.00000000000E+00 0.  1.
          1   -1    0    0  501    0  0.00000000000E+00 -0.00000000000E+00 -0.84694905238E+03  0.84694905238E+03  0.00000000000E+00 0. -1.
         23    2    1    2    0    0 -0.78669712687E+02 -0.14018476429E+03 -0.49579811241E+03  0.52934167112E+03  0.92445360531E+02 0.  0.
        254    2    1    2    0    0  0.78669712687E+02  0.14018476429E+03  0.28477323468E+03  0.95353155591E+03  0.89570415936E+03 0.  0.
        -24    2    4    4    0    0  0.20565650872E+03  0.59285635922E+01  0.56530204661E+03  0.60839298552E+03  0.90806792043E+02 0.  0.
         24    2    4    4    0    0 -0.12698679604E+03  0.13425620070E+03 -0.28052881193E+03  0.34513857039E+03  0.79207604756E+02 0.  0.
         11    1    3    3    0    0 -0.35030218287E+02 -0.81948587957E+02 -0.39554265469E+03  0.40545860323E+03  0.00000000000E+00 0. -1.
        -11    1    3    3    0    0 -0.43639494401E+02 -0.58236176338E+02 -0.10025545773E+03  0.12388306789E+03  0.00000000000E+00 0.  1.
          2    1    6    6  502    0 -0.33809773656E+02  0.11965770479E+02 -0.10921562127E+03  0.11495360972E+03  0.00000000000E+00 0. -1.
          3    1    5    5  503    0  0.81055863400E+02  0.38046445169E+02  0.16248238494E+03  0.18552118585E+03  0.00000000000E+00 0. -1.
         -4    1    5    5    0  503  0.12460064532E+03 -0.32117881577E+02  0.40281966167E+03  0.42287179968E+03  0.00000000000E+00 0.  1.
         -1    1    6    6    0  502 -0.93177022379E+02  0.12229043022E+03 -0.17131319066E+03  0.23018496067E+03  0.00000000000E+00 0.  1.
<mgrwt>
<rscale>  0 0.14677812E+04</rscale>
<asrwt>0</asrwt>
<pdfrwt beam="1">  1        1 0.13029985E+00 0.14677812E+04</pdfrwt>
<pdfrwt beam="2">  1       -1 0.97834489E-01 0.14677812E+04</pdfrwt>
<totfact> 0.19584362E+01</totfact>
</mgrwt>
</event>
<event>
12    1  0.2502641E-008  0.1454722E+04  0.7818608E-02  0.8915133E-01
         -2   -1    0    0    0  501 -0.00000000000E+00  0.00000000000E+00  0.91971518879E+03  0.91971518879E+03  0.00000000000E+00 0.  1.
          2   -1    0    0  501    0  0.00000000000E+00 -0.00000000000E+00 -0.57523698386E+03  0.57523698386E+03  0.00000000000E+00 0. -1.
         23    2    1    2    0    0 -0.11503875766E+02  0.42357356124E+03 -0.49008264590E+02  0.43604814795E+03  0.90494620800E+02 0.  0.
        254    2    1    2    0    0  0.11503875766E+02 -0.42357356124E+03  0.39348646953E+03  0.10589040247E+04  0.88707340783E+03 0.  0.
        -24    2    4    4    0    0 -0.15175583875E+03  0.64943786784E+02  0.49193205051E+03  0.52848548789E+03  0.10026085255E+03 0.  0.
         24    2    4    4    0    0  0.16325971451E+03 -0.48851734802E+03 -0.98445580989E+02  0.53041853681E+03  0.79682859308E+02 0.  0.
         11    1    3    3    0    0 -0.27084734531E+02  0.40542293057E+03 -0.58096623972E+02  0.41045895434E+03  0.00000000000E+00 0. -1.
        -11    1    3    3    0    0  0.15580858765E+02  0.18150630665E+02  0.90883593823E+01  0.25589193611E+02  0.00000000000E+00 0.  1.
          4    1    6    6  502    0  0.13310041776E+03 -0.43249693439E+03 -0.61035513361E+02  0.45661214762E+03  0.00000000000E+00 0. -1.
          3    1    5    5  503    0 -0.72550157675E+02  0.83636933448E+02  0.25617890952E+03  0.27908116328E+03  0.00000000000E+00 0. -1.
         -4    1    5    5    0  503 -0.79205681072E+02 -0.18693146664E+02  0.23575314099E+03  0.24940432461E+03  0.00000000000E+00 0.  1.
         -3    1    6    6    0  502  0.30159296757E+02 -0.56020413634E+02 -0.37410067628E+02  0.73806389185E+02  0.00000000000E+00 0.  1.
<mgrwt>
<rscale>  0 0.14547222E+04</rscale>
<asrwt>0</asrwt>
<pdfrwt beam="1">  1        2 0.88497997E-01 0.14547222E+04</pdfrwt>
<pdfrwt beam="2">  1       -2 0.14149464E+00 0.14547222E+04</pdfrwt>
<totfact> 0.17661759E+01</totfact>
</mgrwt>
</event>
<event>
12    1  0.2502641E-008  0.2261656E+04  0.7818608E-02  0.8493195E-01
         -2   -1    0    0    0  501 -0.00000000000E+00  0.00000000000E+00  0.84542395056E+03  0.84542395056E+03  0.00000000000E+00 0.  1.
          2   -1    0    0  501    0  0.00000000000E+00 -0.00000000000E+00 -0.15125800750E+04  0.15125800750E+04  0.00000000000E+00 0. -1.
         23    2    1    2    0    0  0.30241544434E+03  0.16616013857E+02 -0.12195996483E+04  0.12600272904E+04  0.92272843131E+02 0.  0.
        254    2    1    2    0    0 -0.30241544434E+03 -0.16616013857E+02  0.55244352389E+03  0.10979767351E+04  0.89923738293E+03 0.  0.
        -24    2    4    4    0    0  0.27659842480E+03  0.11517682598E+03  0.38053817658E+02  0.30814117284E+03  0.61077815244E+02 0.  0.
         24    2    4    4    0    0 -0.57901386915E+03 -0.13179283984E+03  0.51438970623E+03  0.78983556227E+03  0.81345142736E+02 0.  0.
         11    1    3    3    0    0  0.26765694574E+03  0.15409860804E+02 -0.11637581963E+04  0.11942406976E+04  0.00000000000E+00 0. -1.
        -11    1    3    3    0    0  0.34758498604E+02  0.12061530529E+01 -0.55841452019E+02  0.65786592813E+02  0.00000000000E+00 0.  1.
          2    1    6    6  502    0 -0.39178498362E+03 -0.11717495254E+03  0.31726434098E+03  0.51757328462E+03  0.00000000000E+00 0. -1.
          3    1    5    5  503    0  0.95113864752E+02  0.71365594958E+02  0.19881331147E+02  0.12056103326E+03  0.00000000000E+00 0. -1.
         -4    1    5    5    0  503  0.18148456005E+03  0.43811231026E+02  0.18172486511E+02  0.18758013958E+03  0.00000000000E+00 0.  1.
         -1    1    6    6    0  502 -0.18722888553E+03 -0.14617887298E+02  0.19712536525E+03  0.27226227765E+03  0.00000000000E+00 0.  1.
<mgrwt>
<rscale>  0 0.22616555E+04</rscale>
<asrwt>0</asrwt>
<pdfrwt beam="1">  1        2 0.23270462E+00 0.22616555E+04</pdfrwt>
<pdfrwt beam="2">  1       -2 0.13006523E+00 0.22616555E+04</pdfrwt>
<totfact> 0.49269795E+00</totfact>
</mgrwt>
</event>
<event>
11    1  0.2502641E-008  0.2106407E+04  0.7818608E-02  0.8558426E-01
         -1   -1    0    0    0  501 -0.00000000000E+00  0.00000000000E+00  0.39352132329E+03  0.39352132329E+03  0.00000000000E+00 0.  1.
          1   -1    0    0  501    0  0.00000000000E+00 -0.00000000000E+00 -0.28187472020E+04  0.28187472020E+04  0.00000000000E+00 0. -1.
         23    2    1    2    0    0 -0.68142597450E+03 -0.28823448615E+03 -0.16518691483E+04  0.18123182463E+04  0.91680231245E+02 0.  0.
        254    2    1    2    0    0  0.68142597450E+03  0.28823448615E+03 -0.77335673035E+03  0.13999502790E+04  0.90241879056E+03 0.  0.
         24    2    4    4    0    0 -0.19474851957E+03  0.59244729453E+02 -0.40206874044E+02  0.22171886671E+03  0.78139230192E+02 0.  0.
         11    1    3    3    0    0 -0.28623798213E+02 -0.33824751441E+02 -0.11670024307E+03  0.12482941307E+03  0.00000000000E+00 0. -1.
        -11    1    3    3    0    0 -0.65280217629E+03 -0.25440973471E+03 -0.15351689053E+04  0.16874888332E+04  0.00000000000E+00 0.  1.
          2    1    5    5  502    0 -0.69349394319E+02  0.23191316218E+02  0.23108884986E+02  0.76688957521E+02  0.00000000000E+00 0. -1.
          3    1    4    4  503    0  0.20961468196E+03  0.86017585094E+02 -0.27752365460E+03  0.35826905909E+03  0.00000000000E+00 0. -1.
         -4    1    4    4    0  503  0.66655981211E+03  0.14297217160E+03 -0.45562620170E+03  0.81996235319E+03  0.00000000000E+00 0.  1.
         -3    1    5    5    0  502 -0.12539912525E+03  0.36053413235E+02 -0.63315759031E+02  0.14502990919E+03  0.00000000000E+00 0.  1.
<mgrwt>
<rscale>  0 0.21064065E+04</rscale>
<asrwt>0</asrwt>
<pdfrwt beam="1">  1        1 0.43365339E+00 0.21064065E+04</pdfrwt>
<pdfrwt beam="2">  1       -1 0.60541746E-01 0.21064065E+04</pdfrwt>
<totfact> 0.20567776E+00</totfact>
</mgrwt>
</event>
<event>
12    1  0.2502641E-008  0.1299122E+04  0.7818608E-02  0.9030262E-01
         -2   -1    0    0    0  501 -0.00000000000E+00  0.00000000000E+00  0.38523021675E+03  0.38523021675E+03  0.00000000000E+00 0.  1.
          2   -1    0    0  501    0  0.00000000000E+00 -0.00000000000E+00 -0.10952653819E+04  0.10952653819E+04  0.00000000000E+00 0. -1.
         23    2    1    2    0    0  0.43354542772E+02 -0.62385779537E+02 -0.55469801141E+03  0.56735343111E+03  0.91806481614E+02 0.  0.
        254    2    1    2    0    0 -0.43354542772E+02  0.62385779537E+02 -0.15533715371E+03  0.91314216751E+03  0.89661997797E+03 0.  0.
        -24    2    4    4    0    0 -0.36977963181E+03 -0.18015984928E+03  0.98508189075E+02  0.42685779007E+03  0.57525318177E+02 0.  0.
         24    2    4    4    0    0  0.32642508904E+03  0.24254562881E+03 -0.25384534279E+03  0.48628437744E+03  0.81567866718E+02 0.  0.
         13    1    3    3    0    0 -0.20598658981E+02  0.88238135278E+01 -0.78709727238E+02  0.81837556164E+02  0.00000000000E+00 0.  1.
        -13    1    3    3    0    0  0.63953201753E+02 -0.71209593065E+02 -0.47598828417E+03  0.48551587495E+03  0.00000000000E+00 0. -1.
          4    1    6    6  502    0  0.47757443623E-01 -0.33005674850E+01  0.23027306824E+01  0.40247478296E+01  0.00000000000E+00 0. -1.
          1    1    5    5  503    0 -0.12646900789E+03 -0.51703993024E+02  0.66531205619E+01  0.13679172806E+03  0.00000000000E+00 0. -1.
         -2    1    5    5    0  503 -0.24331062392E+03 -0.12845585625E+03  0.91855068513E+02  0.29006606201E+03  0.00000000000E+00 0.  1.
         -3    1    6    6    0  502  0.32637733160E+03  0.24584619630E+03 -0.25614807347E+03  0.48225962961E+03  0.00000000000E+00 0.  1.
<mgrwt>
<rscale>  0 0.12991217E+04</rscale>
<asrwt>0</asrwt>
<pdfrwt beam="1">  1        2 0.16850237E+00 0.12991217E+04</pdfrwt>
<pdfrwt beam="2">  1       -2 0.59266188E-01 0.12991217E+04</pdfrwt>
<totfact> 0.57153809E+01</totfact>
</mgrwt>
</event>
<event>
12    1  0.2502641E-008  0.1437533E+04  0.7818608E-02  0.8927090E-01
          2   -1    0    0  501    0  0.00000000000E+00  0.00000000000E+00  0.32404416675E+04  0.32404416675E+04  0.00000000000E+00 0. -1.
         -2   -1    0    0    0  501 -0.00000000000E+00 -0.00000000000E+00 -0.15943043317E+03  0.15943043317E+03  0.00000000000E+00 0.  1.
         23    2    1    2    0    0  0.12096193839E+03  0.18082569904E+03  0.18280157171E+04  0.18430521710E+04  0.88713691362E+02 0.  0.
        254    2    1    2    0    0 -0.12096193839E+03 -0.18082569904E+03  0.12529955172E+04  0.15568199297E+04  0.89797594806E+03 0.  0.
        -24    2    4    4    0    0  0.45019448807E+02  0.26451353848E+03  0.79422380027E+02  0.28777623726E+03  0.67179501870E+02 0.  0.
         24    2    4    4    0    0 -0.16598138720E+03 -0.44533923752E+03  0.11735731372E+04  0.12690436924E+04  0.85563587805E+02 0.  0.
         11    1    3    3    0    0  0.10207088352E+03  0.14543433062E+03  0.11299060884E+04  0.11437907931E+04  0.00000000000E+00 0. -1.
        -11    1    3    3    0    0  0.18891054871E+02  0.35391368424E+02  0.69810962870E+03  0.69926137788E+03  0.00000000000E+00 0.  1.
          2    1    6    6  502    0 -0.60252513335E+02 -0.23135868375E+03  0.49481022727E+03  0.54954014132E+03  0.00000000000E+00 0. -1.
          1    1    5    5  503    0  0.34405840072E+02  0.62817021280E+02  0.39845128885E+02  0.81959589368E+02  0.00000000000E+00 0. -1.
         -2    1    5    5    0  503  0.10613608735E+02  0.20169651720E+03  0.39577251142E+02  0.20581664789E+03  0.00000000000E+00 0.  1.
         -1    1    6    6    0  502 -0.10572887387E+03 -0.21398055378E+03  0.67876290994E+03  0.71950355112E+03  0.00000000000E+00 0.  1.
<mgrwt>
<rscale>  0 0.14375326E+04</rscale>
<asrwt>0</asrwt>
<pdfrwt beam="1">  1        2 0.49852944E+00 0.14375326E+04</pdfrwt>
<pdfrwt beam="2">  1       -2 0.24527761E-01 0.14375326E+04</pdfrwt>
<totfact> 0.17793361E+01</totfact>
</mgrwt>
</event>
<event>
11    1  0.2502641E-008  0.2109170E+04  0.7818608E-02  0.8557215E-01
          1   -1    0    0  501    0  0.00000000000E+00  0.00000000000E+00  0.32645855791E+04  0.32645855791E+04  0.00000000000E+00 0. -1.
         -1   -1    0    0    0  501 -0.00000000000E+00 -0.00000000000E+00 -0.34067091775E+03  0.34067091775E+03  0.00000000000E+00 0.  1.
         23    2    1    2    0    0 -0.36878120274E+03 -0.12749034294E+03 -0.85557400482E+02  0.41069276552E+03  0.95368316732E+02 0.  0.
        254    2    1    2    0    0  0.36878120274E+03  0.12749034294E+03  0.30094720618E+04  0.31945637313E+04  0.99802904746E+03 0.  0.
         24    2    4    4    0    0  0.45580462822E+03  0.41723552126E+03  0.13858675662E+04  0.15195664814E+04  0.81302157714E+02 0.  0.
         13    1    3    3    0    0 -0.12885282291E+03 -0.11098589368E+02  0.39850227815E+01  0.12939130212E+03  0.00000000000E+00 0. -1.
        -13    1    3    3    0    0 -0.23992837983E+03 -0.11639175357E+03 -0.89542423264E+02  0.28130146340E+03  0.00000000000E+00 0.  1.
          4    1    5    5  502    0  0.60904695591E+01  0.64684217465E+01  0.46701264435E+01  0.10037150011E+02  0.00000000000E+00 0. -1.
          1    1    4    4  503    0  0.84617610835E+02 -0.46848967972E+02  0.22152990385E+03  0.24172394206E+03  0.00000000000E+00 0. -1.
         -2    1    4    4    0  503 -0.17164103632E+03 -0.24289621035E+03  0.14020745917E+04  0.14332733079E+04  0.00000000000E+00 0.  1.
         -3    1    5    5    0  502  0.44971415866E+03  0.41076709951E+03  0.13811974398E+04  0.15095293314E+04  0.00000000000E+00 0.  1.
<mgrwt>
<rscale>  0 0.21091699E+04</rscale>
<asrwt>0</asrwt>
<pdfrwt beam="1">  1        1 0.50224391E+00 0.21091699E+04</pdfrwt>
<pdfrwt beam="2">  1       -1 0.52410913E-01 0.21091699E+04</pdfrwt>
<totfact> 0.12836072E+00</totfact>
</mgrwt>
</event>
<event>
12    1  0.2502641E-008  0.2262622E+04  0.7818608E-02  0.8492806E-01
         -2   -1    0    0    0  501 -0.00000000000E+00  0.00000000000E+00  0.43385282865E+03  0.43385282865E+03  0.00000000000E+00 0.  1.
          2   -1    0    0  501    0  0.00000000000E+00 -0.00000000000E+00 -0.29499967093E+04  0.29499967093E+04  0.00000000000E+00 0. -1.
         23    2    1    2    0    0  0.61317985340E+03 -0.71582727541E+02 -0.21555412307E+04  0.22439769027E+04  0.89222883892E+02 0.  0.
        254    2    1    2    0    0 -0.61317985340E+03  0.71582727541E+02 -0.36060264997E+03  0.11398726353E+04  0.88778473405E+03 0.  0.
        -24    2    4    4    0    0 -0.71822951305E+03 -0.21594983349E+03 -0.31341725568E+03  0.81977250473E+03  0.10634199246E+03 0.  0.
         24    2    4    4    0    0  0.10504965964E+03  0.28753256103E+03 -0.47185394296E+02  0.32010013056E+03  0.80791258835E+02 0.  0.
         13    1    3    3    0    0  0.43228455684E+03 -0.91038005967E+02 -0.15399774983E+04  0.16020888090E+04  0.00000000000E+00 0. -1.
        -13    1    3    3    0    0  0.18089529657E+03  0.19455278426E+02 -0.61556373241E+03  0.64188809370E+03  0.00000000000E+00 0.  1.
          2    1    6    6  502    0  0.24035409980E+02  0.16518995707E+03 -0.46797779430E+02  0.17336509167E+03  0.00000000000E+00 0. -1.
          3    1    5    5  503    0 -0.38575321159E+03 -0.16751321896E+03 -0.15375684665E+03  0.44778051171E+03  0.00000000000E+00 0. -1.
         -4    1    5    5    0  503 -0.33247630145E+03 -0.48436614526E+02 -0.15966040903E+03  0.37199199301E+03  0.00000000000E+00 0.  1.
         -1    1    6    6    0  502  0.81014249665E+02  0.12234260396E+03 -0.38761486590E+00  0.14673503889E+03  0.00000000000E+00 0.  1.
<mgrwt>
<rscale>  0 0.22626219E+04</rscale>
<asrwt>0</asrwt>
<pdfrwt beam="1">  1        2 0.45384566E+00 0.22626219E+04</pdfrwt>
<pdfrwt beam="2">  1       -2 0.66746587E-01 0.22626219E+04</pdfrwt>
<totfact> 0.35106308E+00</totfact>
</mgrwt>
</event>
<event>
12    1  0.2502641E-008  0.2461614E+04  0.7818608E-02  0.8416790E-01
         -1   -1    0    0    0  501 -0.00000000000E+00  0.00000000000E+00  0.66919715710E+03  0.66919715710E+03  0.00000000000E+00 0.  1.
          1   -1    0    0  501    0  0.00000000000E+00 -0.00000000000E+00 -0.22637358136E+04  0.22637358136E+04  0.00000000000E+00 0. -1.
         23    2    1    2    0    0 -0.32532476897E+03  0.93063518763E+03 -0.11276531084E+04  0.15005694678E+04  0.90493851068E+02 0.  0.
        254    2    1    2    0    0  0.32532476897E+03 -0.93063518763E+03 -0.46688554810E+03  0.14323635029E+04  0.92831300305E+03 0.  0.
        -24    2    4    4    0    0  0.64079486056E+01 -0.99773808299E+03 -0.44127724449E+03  0.10959091567E+04  0.10377345166E+03 0.  0.
         24    2    4    4    0    0  0.31891682037E+03  0.67102895364E+02 -0.25608303614E+02  0.33645434615E+03  0.79592744319E+02 0.  0.
         13    1    3    3    0    0 -0.32548122027E+03  0.93091874110E+03 -0.11290704053E+04  0.14991156418E+04  0.00000000000E+00 0. -1.
        -13    1    3    3    0    0  0.15645129313E+00 -0.28355347004E+00  0.14172969152E+01  0.14538260293E+01  0.00000000000E+00 0.  1.
          2    1    6    6  502    0  0.11115991783E+03  0.21538354817E+02 -0.47189870285E+02  0.12266748517E+03  0.00000000000E+00 0. -1.
          3    1    5    5  503    0  0.10452937102E+02 -0.66849643725E+03 -0.24195829851E+03  0.71101376128E+03  0.00000000000E+00 0. -1.
         -4    1    5    5    0  503 -0.40449884969E+01 -0.32924164574E+03 -0.19931894598E+03  0.38489539546E+03  0.00000000000E+00 0.  1.
         -1    1    6    6    0  502  0.20775690254E+03  0.45564540547E+02  0.21581566671E+02  0.21378686098E+03  0.00000000000E+00 0.  1.
<mgrwt>
<rscale>  0 0.24616138E+04</rscale>
<asrwt>0</asrwt>
<pdfrwt beam="1">  1        1 0.34826705E+00 0.24616138E+04</pdfrwt>
<pdfrwt beam="2">  1       -1 0.10295341E+00 0.24616138E+04</pdfrwt>
<totfact> 0.15651025E+00</totfact>
</mgrwt>
</event>
<event>
12    1  0.2837487E-008  0.2116229E+04  0.7818608E-02  0.8554128E-01
         -1   -1    0    0    0  501 -0.00000000000E+00  0.00000000000E+00  0.44045416038E+03  0.44045416038E+03  0.00000000000E+00 0.  1.
          1   -1    0    0  501    0  0.00000000000E+00 -0.00000000000E+00 -0.25419368687E+04  0.25419368687E+04  0.00000000000E+00 0. -1.
         23    2    1    2    0    0 -0.35064640269E+03 -0.79297447718E+03 -0.91506672720E+03  0.12638811039E+04  0.91032457340E+02 0.  0.
        254    2    1    2    0    0  0.35064640269E+03  0.79297447718E+03 -0.11864159811E+04  0.17185099252E+04  0.89102865368E+03 0.  0.
        -24    2    4    4    0    0  0.24371052292E+03  0.14930520427E+03 -0.98696567652E+03  0.10315043917E+04  0.90626709182E+02 0.  0.
         24    2    4    4    0    0  0.10693587976E+03  0.64366927290E+03 -0.19945030462E+03  0.68700553356E+03  0.80316647573E+02 0.  0.
         11    1    3    3    0    0 -0.35494865942E+03 -0.77854729927E+03 -0.90657467827E+03  0.12465962038E+04  0.00000000000E+00 0. -1.
        -11    1    3    3    0    0  0.43022567311E+01 -0.14427177907E+02 -0.84920489313E+01  0.17284900069E+02  0.00000000000E+00 0.  1.
          4    1    6    6  502    0 -0.98404731997E+01  0.89349074105E+02 -0.14240566503E+02  0.91010360348E+02  0.00000000000E+00 0. -1.
          3    1    5    5  503    0  0.48305331322E+02  0.63318053708E+01 -0.88925310684E+02  0.10139629024E+03  0.00000000000E+00 0. -1.
         -4    1    5    5    0  503  0.19540519160E+03  0.14297339890E+03 -0.89804036583E+03  0.93010810144E+03  0.00000000000E+00 0.  1.
         -3    1    6    6    0  502  0.11677635296E+03  0.55432019879E+03 -0.18520973812E+03  0.59599517322E+03  0.00000000000E+00 0.  1.
<mgrwt>
<rscale>  0 0.21162294E+04</rscale>
<asrwt>0</asrwt>
<pdfrwt beam="1">  1        1 0.39106722E+00 0.21162294E+04</pdfrwt>
<pdfrwt beam="2">  1       -1 0.67762177E-01 0.21162294E+04</pdfrwt>
<totfact> 0.25662085E+00</totfact>
</mgrwt>
</event>
<event>
12    1  0.2502641E-008  0.2195315E+04  0.7818608E-02  0.8520381E-01
          1   -1    0    0  501    0  0.00000000000E+00  0.00000000000E+00  0.29576871710E+04  0.29576871710E+04  0.00000000000E+00 0. -1.
         -1   -1    0    0    0  501 -0.00000000000E+00 -0.00000000000E+00 -0.40736283705E+03  0.40736283705E+03  0.00000000000E+00 0.  1.
         23    2    1    2    0    0 -0.18316954384E+03  0.13124129413E+03 -0.28839838360E+03  0.37732578458E+03  0.91791943947E+02 0.  0.
        254    2    1    2    0    0  0.18316954384E+03 -0.13124129413E+03  0.28387227175E+04  0.29877242234E+04  0.90408739031E+03 0.  0.
        -24    2    4    4    0    0  0.16852314718E+03 -0.42173562532E+03  0.24670914645E+04  0.25091166906E+04  0.53528344970E+02 0.  0.
         24    2    4    4    0    0  0.14646396660E+02  0.29049433118E+03  0.37163125298E+03  0.47860753287E+03  0.79711410385E+02 0.  0.
         13    1    3    3    0    0 -0.11907310032E+03  0.96692998178E+02 -0.25417014859E+03  0.29686765325E+03  0.00000000000E+00 0.  1.
        -13    1    3    3    0    0 -0.64096443517E+02  0.34548295953E+02 -0.34228235014E+02  0.80458131329E+02  0.00000000000E+00 0. -1.
          4    1    6    6  502    0  0.10749366690E+02  0.25064625233E+03  0.35623931877E+03  0.43571268622E+03  0.00000000000E+00 0. -1.
          1    1    5    5  503    0  0.17235176030E+03 -0.41043149828E+03  0.24139565202E+04  0.24546578633E+04  0.00000000000E+00 0. -1.
         -2    1    5    5    0  503 -0.38286131264E+01 -0.11304127035E+02  0.53134944284E+02  0.54458827297E+02  0.00000000000E+00 0.  1.
         -3    1    6    6    0  502  0.38970299702E+01  0.39848078852E+02  0.15391934207E+02  0.42894846653E+02  0.00000000000E+00 0.  1.
<mgrwt>
<rscale>  0 0.21953149E+04</rscale>
<asrwt>0</asrwt>
<pdfrwt beam="1">  1        1 0.45502878E+00 0.21953149E+04</pdfrwt>
<pdfrwt beam="2">  1       -1 0.62671208E-01 0.21953149E+04</pdfrwt>
<totfact> 0.15127198E+00</totfact>
</mgrwt>
</event>
<event>
11    1  0.2502641E-008  0.2084316E+04  0.7818608E-02  0.8568184E-01
          2   -1    0    0  501    0  0.00000000000E+00  0.00000000000E+00  0.11326459112E+04  0.11326459112E+04  0.00000000000E+00 0. -1.
         -2   -1    0    0    0  501 -0.00000000000E+00 -0.00000000000E+00 -0.95889893922E+03  0.95889893922E+03  0.00000000000E+00 0.  1.
         23    2    1    2    0    0  0.31976612092E+02 -0.94333851456E+02  0.92059961342E+03  0.93049288582E+03  0.91607767547E+02 0.  0.
        254    2    1    2    0    0 -0.31976612092E+02  0.94333851456E+02 -0.74685264145E+03  0.11610519646E+04  0.88336369476E+03 0.  0.
         24    2    4    4    0    0 -0.22841092264E+03 -0.27915002299E+03 -0.37932027940E+03  0.52977060412E+03  0.81711282612E+02 0.  0.
         11    1    3    3    0    0  0.22925878387E+02  0.13786736316E+02  0.16996936638E+03  0.17206177816E+03  0.00000000000E+00 0.  1.
        -11    1    3    3    0    0  0.90507337049E+01 -0.10812058777E+03  0.75063024705E+03  0.75843110766E+03  0.00000000000E+00 0. -1.
          4    1    5    5  502    0  0.83635018902E+00  0.36395967221E+01 -0.12198658620E+02  0.12757484786E+02  0.00000000000E+00 0. -1.
          1    1    4    4  503    0  0.16139450456E+03  0.25733119490E+02 -0.10687053105E+03  0.19527337235E+03  0.00000000000E+00 0. -1.
         -2    1    4    4    0  503  0.35039805985E+02  0.34775075496E+03 -0.26066183099E+03  0.43600798813E+03  0.00000000000E+00 0.  1.
         -1    1    5    5    0  502 -0.22924727283E+03 -0.28278961971E+03 -0.36712162078E+03  0.51701311933E+03  0.00000000000E+00 0.  1.
<mgrwt>
<rscale>  0 0.20843157E+04</rscale>
<asrwt>0</asrwt>
<pdfrwt beam="1">  1        2 0.17425322E+00 0.20843157E+04</pdfrwt>
<pdfrwt beam="2">  1       -2 0.14752291E+00 0.20843157E+04</pdfrwt>
<totfact> 0.60106826E+00</totfact>
</mgrwt>
</event>
<event>
11    1  0.2502641E-008  0.2037139E+04  0.7818608E-02  0.8589451E-01
         -2   -1    0    0    0  501 -0.00000000000E+00  0.00000000000E+00  0.56569043282E+03  0.56569043282E+03  0.00000000000E+00 0.  1.
          2   -1    0    0  501    0  0.00000000000E+00 -0.00000000000E+00 -0.18340133991E+04  0.18340133991E+04  0.00000000000E+00 0. -1.
         23    2    1    2    0    0 -0.63792901702E+03 -0.42102629854E+03 -0.85096457655E+03  0.11474742570E+04  0.91322971580E+02 0.  0.
        254    2    1    2    0    0  0.63792901702E+03  0.42102629854E+03 -0.41735838971E+03  0.12522295749E+04  0.89981904177E+03 0.  0.
         24    2    4    4    0    0  0.51257775036E+03 -0.58322981225E+02  0.17093913916E+02  0.52212116095E+03  0.78617965603E+02 0.  0.
         11    1    3    3    0    0 -0.37476108383E+03 -0.23612403439E+03 -0.42633340941E+03  0.61478500758E+03  0.00000000000E+00 0. -1.
        -11    1    3    3    0    0 -0.26316793319E+03 -0.18490226416E+03 -0.42463116714E+03  0.53268924943E+03  0.00000000000E+00 0.  1.
          2    1    5    5  502    0  0.44853852462E+03 -0.65089322638E+02  0.36932463919E+02  0.45473886449E+03  0.00000000000E+00 0. -1.
          1    1    4    4  503    0  0.88903747051E+00  0.46005161860E+03 -0.35618692798E+03  0.58182248996E+03  0.00000000000E+00 0. -1.
         -2    1    4    4    0  503  0.12446222919E+03  0.19297661170E+02 -0.78265375646E+02  0.14828592397E+03  0.00000000000E+00 0.  1.
         -1    1    5    5    0  502  0.64039225742E+02  0.67663414130E+01 -0.19838550003E+02  0.67382296459E+02  0.00000000000E+00 0.  1.
<mgrwt>
<rscale>  0 0.20371390E+04</rscale>
<asrwt>0</asrwt>
<pdfrwt beam="1">  1        2 0.28215591E+00 0.20371390E+04</pdfrwt>
<pdfrwt beam="2">  1       -2 0.87029297E-01 0.20371390E+04</pdfrwt>
<totfact> 0.87360713E+00</totfact>
</mgrwt>
</event>
<event>
12    1  0.2502641E-008  0.1947124E+04  0.7818608E-02  0.8631749E-01
          1   -1    0    0  501    0  0.00000000000E+00  0.00000000000E+00  0.54485070245E+03  0.54485070245E+03  0.00000000000E+00 0. -1.
         -1   -1    0    0    0  501 -0.00000000000E+00 -0.00000000000E+00 -0.17396010998E+04  0.17396010998E+04  0.00000000000E+00 0.  1.
         23    2    1    2    0    0 -0.45061708550E+03  0.61028837730E+03 -0.36424052226E+03  0.84709147449E+03  0.96876967695E+02 0.  0.
        254    2    1    2    0    0  0.45061708550E+03 -0.61028837730E+03 -0.83050987508E+03  0.14373603278E+04  0.89484657791E+03 0.  0.
        -24    2    4    4    0    0  0.68941151161E+03 -0.31163476960E+03 -0.40826567842E+03  0.86214242707E+03  0.64840098847E+02 0.  0.
         24    2    4    4    0    0 -0.23879442610E+03 -0.29865360771E+03 -0.42224419666E+03  0.57521790069E+03  0.79804237542E+02 0.  0.
         11    1    3    3    0    0 -0.38742667272E+03  0.49203417203E+03 -0.26373034697E+03  0.67952244193E+03  0.00000000000E+00 0. -1.
        -11    1    3    3    0    0 -0.63190412780E+02  0.11825420528E+03 -0.10051017529E+03  0.16756903255E+03  0.00000000000E+00 0.  1.
          4    1    6    6  502    0 -0.23360898881E+03 -0.29373628265E+03 -0.42549890558E+03  0.56736538672E+03  0.00000000000E+00 0. -1.
          1    1    5    5  503    0  0.48389435650E+03 -0.25043525300E+03 -0.28838488217E+03  0.61647173857E+03  0.00000000000E+00 0. -1.
         -2    1    5    5    0  503  0.20551715511E+03 -0.61199516592E+02 -0.11988079625E+03  0.24567068849E+03  0.00000000000E+00 0.  1.
         -3    1    6    6    0  502 -0.51854372915E+01 -0.49173250546E+01  0.32547089151E+01  0.78525139745E+01  0.00000000000E+00 0.  1.
<mgrwt>
<rscale>  0 0.19471239E+04</rscale>
<asrwt>0</asrwt>
<pdfrwt beam="1">  1        1 0.83823183E-01 0.19471239E+04</pdfrwt>
<pdfrwt beam="2">  1       -1 0.26763095E+00 0.19471239E+04</pdfrwt>
<totfact> 0.19613713E+00</totfact>
</mgrwt>
</event>
<event>
12    1  0.2502641E-008  0.3263737E+04  0.7818608E-02  0.8172184E-01
          1   -1    0    0  501    0  0.00000000000E+00  0.00000000000E+00  0.15195718836E+04  0.15195718836E+04  0.00000000000E+00 0. -1.
         -1   -1    0    0    0  501 -0.00000000000E+00 -0.00000000000E+00 -0.17524634603E+04  0.17524634603E+04  0.00000000000E+00 0.  1.
         23    2    1    2    0    0  0.83339138682E+02  0.95675254940E+03 -0.12781763390E+04  0.16014124186E+04  0.92011564551E+02 0.  0.
        254    2    1    2    0    0 -0.83339138682E+02 -0.95675254940E+03  0.10452847623E+04  0.16706229253E+04  0.88093125246E+03 0.  0.
        -24    2    4    4    0    0  0.12686087710E+02 -0.14242289749E+03  0.78792417871E+03  0.80754998175E+03  0.10424606989E+03 0.  0.
         24    2    4    4    0    0 -0.96025226392E+02 -0.81432965190E+03  0.25736058359E+03  0.86307294358E+03  0.79415426013E+02 0.  0.
         11    1    3    3    0    0  0.59107042448E+01  0.15230590165E+03 -0.26125972514E+03  0.30247093758E+03  0.00000000000E+00 0. -1.
        -11    1    3    3    0    0  0.77428434437E+02  0.80444664774E+03 -0.10169166139E+04  0.12989414810E+04  0.00000000000E+00 0.  1.
          2    1    6    6  502    0 -0.10900347737E+03 -0.68519124053E+03  0.22389542435E+03  0.72903906289E+03  0.00000000000E+00 0. -1.
          1    1    5    5  503    0  0.53448716580E+02 -0.88278673239E+02  0.36817449300E+03  0.38236415464E+03  0.00000000000E+00 0. -1.
         -2    1    5    5    0  503 -0.40762628871E+02 -0.54144224252E+02  0.41974968570E+03  0.42518582712E+03  0.00000000000E+00 0.  1.
         -1    1    6    6    0  502  0.12978250978E+02 -0.12913841138E+03  0.33465159243E+02  0.13403388070E+03  0.00000000000E+00 0.  1.
<mgrwt>
<rscale>  0 0.32637366E+04</rscale>
<asrwt>0</asrwt>
<pdfrwt beam="1">  1        1 0.23378029E+00 0.32637366E+04</pdfrwt>
<pdfrwt beam="2">  1       -1 0.26960976E+00 0.32637366E+04</pdfrwt>
<totfact> 0.27419798E-01</totfact>
</mgrwt>
</event>
<event>
11    1  0.2502641E-008  0.1369779E+04  0.7818608E-02  0.8975989E-01
          2   -1    0    0  501    0  0.00000000000E+00  0.00000000000E+00  0.18462878432E+03  0.18462878432E+03  0.00000000000E+00 0.  1.
         -2   -1    0    0    0  501 -0.00000000000E+00 -0.00000000000E+00 -0.25406319126E+04  0.25406319126E+04  0.00000000000E+00 0. -1.
         23    2    1    2    0    0 -0.24674260372E+03  0.25503913617E+03 -0.39118644322E+03  0.53585562084E+03  0.90485023942E+02 0.  0.
        254    2    1    2    0    0  0.24674260372E+03 -0.25503913617E+03 -0.19648166850E+04  0.21894050760E+04  0.89836691155E+03 0.  0.
         24    2    4    4    0    0  0.43884600879E+03 -0.14506141661E+02 -0.17219269010E+04  0.17786246310E+04  0.75346385783E+02 0.  0.
         11    1    3    3    0    0 -0.13358062838E+03  0.19952432653E+03 -0.25194775599E+03  0.34803938413E+03  0.00000000000E+00 0.  1.
        -11    1    3    3    0    0 -0.11316197534E+03  0.55514809648E+02 -0.13923868722E+03  0.18781623671E+03  0.00000000000E+00 0. -1.
          2    1    5    5  502    0  0.13416281223E+03  0.82330084944E+01 -0.40510526450E+03  0.42682281797E+03  0.00000000000E+00 0. -1.
          1    1    4    4  503    0 -0.82758512231E+02 -0.37391193650E+02 -0.11654231141E+03  0.14774702386E+03  0.00000000000E+00 0. -1.
         -2    1    4    4    0  503 -0.10934489284E+03 -0.20314180086E+03 -0.12634747260E+03  0.26303342122E+03  0.00000000000E+00 0.  1.
         -1    1    5    5    0  502  0.30468319656E+03 -0.22739150155E+02 -0.13168216365E+04  0.13518018130E+04  0.00000000000E+00 0.  1.
<mgrwt>
<rscale>  0 0.13697792E+04</rscale>
<asrwt>0</asrwt>
<pdfrwt beam="1">  1        2 0.28404430E-01 0.13697792E+04</pdfrwt>
<pdfrwt beam="2">  1       -2 0.39086643E+00 0.13697792E+04</pdfrwt>
<totfact> 0.15934839E+00</totfact>
</mgrwt>
</event>
<event>
12    1  0.2502641E-008  0.2781818E+04  0.7818608E-02  0.8308935E-01
         -2   -1    0    0    0  501 -0.00000000000E+00  0.00000000000E+00  0.16430402344E+04  0.16430402344E+04  0.00000000000E+00 0. -1.
          2   -1    0    0  501    0  0.00000000000E+00 -0.00000000000E+00 -0.11774683477E+04  0.11774683477E+04  0.00000000000E+00 0.  1.
         23    2    1    2    0    0 -0.74608347319E+03  0.96823422597E+03 -0.74866182697E+01  0.12255548170E+04  0.88377003751E+02 0.  0.
        254    2    1    2    0    0  0.74608347319E+03 -0.96823422597E+03  0.47305850492E+03  0.15949537651E+04  0.90883172172E+03 0.  0.
        -24    2    4    4    0    0  0.64760064612E+03 -0.33499065280E+03  0.58792604863E+03  0.93911093925E+03  0.68315322265E+02 0.  0.
         24    2    4    4    0    0  0.98482827067E+02 -0.63324357317E+03 -0.11486754371E+03  0.65584282584E+03  0.78987147122E+02 0.  0.
         13    1    3    3    0    0 -0.59245563469E+03  0.81381373667E+03  0.13550866752E+02  0.10067174892E+04  0.00000000000E+00 0.  1.
        -13    1    3    3    0    0 -0.15362783850E+03  0.15442048930E+03 -0.21037485022E+02  0.21883732783E+03  0.00000000000E+00 0. -1.
          2    1    6    6  502    0  0.27897631107E+02 -0.13633286040E+03  0.70921398220E+01  0.13933852695E+03  0.00000000000E+00 0. -1.
          3    1    5    5  503    0  0.39859983721E+03 -0.17716795211E+03  0.37808550976E+03  0.57725121583E+03  0.00000000000E+00 0. -1.
         -4    1    5    5    0  503  0.24900080891E+03 -0.15782270068E+03  0.20984053887E+03  0.36185972343E+03  0.00000000000E+00 0.  1.
         -1    1    6    6    0  502  0.70585195961E+02 -0.49691071278E+03 -0.12195968353E+03  0.51650429889E+03  0.00000000000E+00 0.  1.
<mgrwt>
<rscale>  0 0.27818180E+04</rscale>
<asrwt>0</asrwt>
<pdfrwt beam="1">  1        2 0.18114898E+00 0.27818180E+04</pdfrwt>
<pdfrwt beam="2">  1       -2 0.25277542E+00 0.27818180E+04</pdfrwt>
<totfact> 0.10520681E+00</totfact>
</mgrwt>
</event>
<event>
12    1  0.2502641E-008  0.2218770E+04  0.7818608E-02  0.8510656E-01
         -2   -1    0    0    0  501 -0.00000000000E+00  0.00000000000E+00  0.33441965668E+03  0.33441965668E+03  0.00000000000E+00 0.  1.
          2   -1    0    0  501    0  0.00000000000E+00 -0.00000000000E+00 -0.36802117598E+04  0.36802117598E+04  0.00000000000E+00 0. -1.
         23    2    1    2    0    0 -0.30071846290E+03 -0.32060554472E+03 -0.28701492467E+04  0.29050193511E+04  0.90339486953E+02 0.  0.
        254    2    1    2    0    0  0.30071846290E+03  0.32060554472E+03 -0.47564285648E+03  0.11096120654E+04  0.90099017726E+03 0.  0.
        -24    2    4    4    0    0  0.22534049624E+03  0.55920080193E+03 -0.53885393927E+02  0.61270663381E+03  0.94983721284E+02 0.  0.
         24    2    4    4    0    0  0.75377966666E+02 -0.23859525721E+03 -0.42175746255E+03  0.49690543159E+03  0.80163059483E+02 0.  0.
         11    1    3    3    0    0 -0.10849097197E+03 -0.97418053876E+02 -0.12319947332E+04  0.12405932415E+04  0.00000000000E+00 0. -1.
        -11    1    3    3    0    0 -0.19222749093E+03 -0.22318749084E+03 -0.16381545135E+04  0.16644261096E+04  0.00000000000E+00 0.  1.
          2    1    6    6  502    0  0.39774728482E+02 -0.58475575201E+02 -0.66837812394E+02  0.97307322882E+02  0.00000000000E+00 0. -1.
          3    1    5    5  503    0  0.11710856064E+03  0.21797417189E+03  0.16042017231E+02  0.24796068419E+03  0.00000000000E+00 0. -1.
         -4    1    5    5    0  503  0.10823193559E+03  0.34122663004E+03 -0.69927411158E+02  0.36474594962E+03  0.00000000000E+00 0.  1.
         -1    1    6    6    0  502  0.35603238185E+02 -0.18011968201E+03 -0.35491965016E+03  0.39959810871E+03  0.00000000000E+00 0.  1.
<mgrwt>
<rscale>  0 0.22187701E+04</rscale>
<asrwt>0</asrwt>
<pdfrwt beam="1">  1        2 0.56618643E+00 0.22187701E+04</pdfrwt>
<pdfrwt beam="2">  1       -2 0.51449178E-01 0.22187701E+04</pdfrwt>
<totfact> 0.19749876E+00</totfact>
</mgrwt>
</event>
<event>
12    1  0.2502641E-008  0.2634856E+04  0.7818608E-02  0.8356457E-01
         -2   -1    0    0    0  501 -0.00000000000E+00  0.00000000000E+00  0.65738043093E+03  0.65738043093E+03  0.00000000000E+00 0.  1.
          2   -1    0    0  501    0  0.00000000000E+00 -0.00000000000E+00 -0.26402020585E+04  0.26402020585E+04  0.00000000000E+00 0. -1.
         23    2    1    2    0    0  0.37949031313E+03  0.11593935011E+03  0.48927649359E+03  0.63653297165E+03  0.91257362210E+02 0.  0.
        254    2    1    2    0    0 -0.37949031313E+03 -0.11593935011E+03 -0.24720981211E+04  0.26610495178E+04  0.90136595495E+03 0.  0.
        -24    2    4    4    0    0 -0.32341766763E+03  0.24951567663E+03 -0.20551160376E+04  0.20977830433E+04  0.10165976553E+03 0.  0.
         24    2    4    4    0    0 -0.56072645492E+02 -0.36545502674E+03 -0.41698208354E+03  0.56326647450E+03  0.81814089016E+02 0.  0.
         11    1    3    3    0    0  0.23519353877E+03  0.75607602022E+02  0.23253425309E+03  0.33927081958E+03  0.00000000000E+00 0.  1.
        -11    1    3    3    0    0  0.14429677436E+03  0.40331748085E+02  0.25674224050E+03  0.29726215206E+03  0.00000000000E+00 0. -1.
          4    1    6    6  502    0 -0.26103229883E+02 -0.29904482303E+03 -0.37049800955E+03  0.47684165073E+03  0.00000000000E+00 0. -1.
          1    1    5    5  503    0 -0.16287646286E+03  0.14473987559E+03 -0.13311137971E+04  0.13488299798E+04  0.00000000000E+00 0. -1.
         -2    1    5    5    0  503 -0.16054120477E+03  0.10477580104E+03 -0.72400224051E+03  0.74895306340E+03  0.00000000000E+00 0.  1.
         -3    1    6    6    0  502 -0.29969415610E+02 -0.66410203716E+02 -0.46484073988E+02  0.86424823772E+02  0.00000000000E+00 0.  1.
<mgrwt>
<rscale>  0 0.26348565E+04</rscale>
<asrwt>0</asrwt>
<pdfrwt beam="1">  1        2 0.40618493E+00 0.26348565E+04</pdfrwt>
<pdfrwt beam="2">  1       -2 0.10113545E+00 0.26348565E+04</pdfrwt>
<totfact> 0.20432730E+00</totfact>
</mgrwt>
</event>
<event>
12    1  0.2502641E-008  0.1718768E+04  0.7818608E-02  0.8750732E-01
          1   -1    0    0  501    0  0.00000000000E+00  0.00000000000E+00  0.13644306101E+04  0.13644306101E+04  0.00000000000E+00 0. -1.
         -1   -1    0    0    0  501 -0.00000000000E+00 -0.00000000000E+00 -0.54128161747E+03  0.54128161747E+03  0.00000000000E+00 0.  1.
         23    2    1    2    0    0 -0.29562666187E+02  0.60900629734E+03  0.16348631433E+03  0.63760855205E+03  0.89745580652E+02 0.  0.
        254    2    1    2    0    0  0.29562666187E+02 -0.60900629734E+03  0.65966267829E+03  0.12681036755E+04  0.89508070099E+03 0.  0.
        -24    2    4    4    0    0 -0.24332788815E+03 -0.72248022431E+03  0.38593873396E+03  0.85630909674E+03  0.55950220071E+02 0.  0.
         24    2    4    4    0    0  0.27289055434E+03  0.11347392697E+03  0.27372394433E+03  0.41179457877E+03  0.85465727982E+02 0.  0.
         13    1    3    3    0    0 -0.99811631215E+01  0.27100100434E+03  0.11892962418E+03  0.29611724616E+03  0.00000000000E+00 0. -1.
        -13    1    3    3    0    0 -0.19581503065E+02  0.33800529300E+03  0.44556690153E+02  0.34149130589E+03  0.00000000000E+00 0.  1.
          2    1    6    6  502    0  0.34306001541E+02  0.21385302870E+02  0.84465400603E+02  0.93640999672E+02  0.00000000000E+00 0. -1.
          1    1    5    5  503    0 -0.44714567647E+02 -0.21077565613E+03  0.11283042529E+03  0.24322104072E+03  0.00000000000E+00 0. -1.
         -2    1    5    5    0  503 -0.19861332050E+03 -0.51170456817E+03  0.27310830867E+03  0.61308805602E+03  0.00000000000E+00 0.  1.
         -1    1    6    6    0  502  0.23858455279E+03  0.92088624099E+02  0.18925854372E+03  0.31815357910E+03  0.00000000000E+00 0.  1.
<mgrwt>
<rscale>  0 0.17187684E+04</rscale>
<asrwt>0</asrwt>
<pdfrwt beam="1">  1        1 0.20991240E+00 0.17187684E+04</pdfrwt>
<pdfrwt beam="2">  1       -1 0.83274096E-01 0.17187684E+04</pdfrwt>
<totfact> 0.11069021E+01</totfact>
</mgrwt>
</event>
<event>
12    1  0.2502641E-008  0.1873314E+04  0.7818608E-02  0.8668255E-01
         -1   -1    0    0    0  501 -0.00000000000E+00  0.00000000000E+00  0.64677326556E+03  0.64677326556E+03  0.00000000000E+00 0.  1.
          1   -1    0    0  501    0  0.00000000000E+00 -0.00000000000E+00 -0.13564659153E+04  0.13564659153E+04  0.00000000000E+00 0. -1.
         23    2    1    2    0    0 -0.51283982614E+03  0.36350436902E+02  0.25782873286E+03  0.58237626994E+03  0.91435347437E+02 0.  0.
        254    2    1    2    0    0  0.51283982614E+03 -0.36350436902E+02 -0.96752138263E+03  0.14208629109E+04  0.90466996429E+03 0.  0.
        -24    2    4    4    0    0  0.75640654604E+03 -0.65115216063E+02 -0.82630181886E+03  0.11266941679E+04  0.10136171812E+03 0.  0.
         24    2    4    4    0    0 -0.24356671990E+03  0.28764779161E+02 -0.14121956377E+03  0.29416874303E+03  0.80250387025E+02 0.  0.
         11    1    3    3    0    0 -0.33594349744E+03 -0.10610316649E+02  0.19657663623E+03  0.38937512273E+03  0.00000000000E+00 0. -1.
        -11    1    3    3    0    0 -0.17689632870E+03  0.46960753551E+02  0.61252096637E+02  0.19300114721E+03  0.00000000000E+00 0.  1.
          2    1    6    6  502    0 -0.22238469384E+03  0.20630545226E+02 -0.15085863015E+03  0.26951604357E+03  0.00000000000E+00 0. -1.
          1    1    5    5  503    0  0.49096699338E+03 -0.72436724853E+02 -0.48131448235E+03  0.69134600499E+03  0.00000000000E+00 0. -1.
         -2    1    5    5    0  503  0.26543955266E+03  0.73215087896E+01 -0.34498733651E+03  0.43534816292E+03  0.00000000000E+00 0.  1.
         -3    1    6    6    0  502 -0.21182026060E+02  0.81342339356E+01  0.96390663792E+01  0.24652699455E+02  0.00000000000E+00 0.  1.
<mgrwt>
<rscale>  0 0.18733135E+04</rscale>
<asrwt>0</asrwt>
<pdfrwt beam="1">  1        1 0.20868706E+00 0.18733135E+04</pdfrwt>
<pdfrwt beam="2">  1       -1 0.99503580E-01 0.18733135E+04</pdfrwt>
<totfact> 0.74547080E+00</totfact>
</mgrwt>
</event>
<event>
12    1  0.2502641E-008  0.2564684E+04  0.7818608E-02  0.8380297E-01
         -2   -1    0    0    0  501 -0.00000000000E+00  0.00000000000E+00  0.75780627799E+03  0.75780627799E+03  0.00000000000E+00 0.  1.
          2   -1    0    0  501    0  0.00000000000E+00 -0.00000000000E+00 -0.21699490007E+04  0.21699490007E+04  0.00000000000E+00 0. -1.
         23    2    1    2    0    0  0.79959543903E+03  0.49817206757E+03  0.72908277950E+02  0.94961199893E+03  0.94440756519E+02 0.  0.
        254    2    1    2    0    0 -0.79959543903E+03 -0.49817206757E+03 -0.14850510006E+04  0.19781432797E+04  0.90561917252E+03 0.  0.
        -24    2    4    4    0    0 -0.35433895344E+03 -0.34464694248E+03 -0.98704884909E+02  0.51208457202E+03  0.90279265086E+02 0.  0.
         24    2    4    4    0    0 -0.44525648559E+03 -0.15352512509E+03 -0.13863461157E+04  0.14660587077E+04  0.74493488989E+02 0.  0.
         11    1    3    3    0    0  0.26061500942E+03  0.20999403905E+03  0.45985827922E+02  0.33783483530E+03  0.00000000000E+00 0.  1.
        -11    1    3    3    0    0  0.53898042961E+03  0.28817802852E+03  0.26922450028E+02  0.61177716363E+03  0.00000000000E+00 0. -1.
          2    1    6    6  502    0 -0.31418152795E+03 -0.10502347828E+03 -0.86374805146E+03  0.92509494642E+03  0.00000000000E+00 0. -1.
          3    1    5    5  503    0 -0.25999772459E+03 -0.27185222711E+03 -0.37244830783E+02  0.37800744384E+03  0.00000000000E+00 0. -1.
         -4    1    5    5    0  503 -0.94341228853E+02 -0.72794715367E+02 -0.61460054127E+02  0.13407712818E+03  0.00000000000E+00 0.  1.
         -1    1    6    6    0  502 -0.13107495763E+03 -0.48501646811E+02 -0.52259806425E+03  0.54096376128E+03  0.00000000000E+00 0.  1.
<mgrwt>
<rscale>  0 0.25646840E+04</rscale>
<asrwt>0</asrwt>
<pdfrwt beam="1">  1        2 0.33383831E+00 0.25646840E+04</pdfrwt>
<pdfrwt beam="2">  1       -2 0.11658558E+00 0.25646840E+04</pdfrwt>
<totfact> 0.27156012E+00</totfact>
</mgrwt>
</event>
<event>
11    1  0.2861522E-008  0.2940434E+04  0.7818608E-02  0.8260948E-01
          2   -1    0    0  501    0  0.00000000000E+00  0.00000000000E+00  0.23145483427E+04  0.23145483427E+04  0.00000000000E+00 0. -1.
         -2   -1    0    0    0  501 -0.00000000000E+00 -0.00000000000E+00 -0.93389197350E+03  0.93389197350E+03  0.00000000000E+00 0.  1.
         23    2    1    2    0    0  0.11246654510E+03 -0.28367117877E+01 -0.83997869395E+03  0.85223572308E+03  0.89915241786E+02 0.  0.
        254    2    1    2    0    0 -0.11246654510E+03  0.28367117877E+01  0.22206350632E+04  0.23962045932E+04  0.89326345371E+03 0.  0.
         24    2    4    4    0    0 -0.12758976023E+03  0.10122926614E+03  0.11740127474E+02  0.18140626884E+03  0.79018305120E+02 0.  0.
         13    1    3    3    0    0  0.49419036052E+01  0.30092580005E+02 -0.14013344758E+03  0.14341328011E+03  0.00000000000E+00 0. -1.
        -13    1    3    3    0    0  0.10752464149E+03 -0.32929291792E+02 -0.69984524637E+03  0.70882244297E+03  0.00000000000E+00 0.  1.
          2    1    5    5  502    0 -0.11760363259E+03  0.11311232403E+03  0.21992429840E+01  0.16318654637E+03  0.00000000000E+00 0. -1.
          3    1    4    4  503    0 -0.42001069843E+01 -0.82432764989E+02  0.21381988998E+04  0.21397914236E+04  0.00000000000E+00 0. -1.
         -4    1    4    4    0  503  0.19323322117E+02 -0.15959789359E+02  0.70696035937E+02  0.75006900691E+02  0.00000000000E+00 0.  1.
         -1    1    5    5    0  502 -0.99861276404E+01 -0.11883057894E+02  0.95408844901E+01  0.18219722474E+02  0.00000000000E+00 0.  1.
<mgrwt>
<rscale>  0 0.29404341E+04</rscale>
<asrwt>0</asrwt>
<pdfrwt beam="1">  1        2 0.35608436E+00 0.29404341E+04</pdfrwt>
<pdfrwt beam="2">  1       -2 0.14367569E+00 0.29404341E+04</pdfrwt>
<totfact> 0.12842291E+00</totfact>
</mgrwt>
</event>
<event>
11    1  0.2502641E-008  0.1544105E+04  0.7818608E-02  0.8855642E-01
         -1   -1    0    0    0  501 -0.00000000000E+00  0.00000000000E+00  0.14378010007E+04  0.14378010007E+04  0.00000000000E+00 0.  1.
          1   -1    0    0  501    0  0.00000000000E+00 -0.00000000000E+00 -0.41456711740E+03  0.41456711740E+03  0.00000000000E+00 0. -1.
         23    2    1    2    0    0 -0.37689612058E+03  0.13400090674E+03  0.71562364291E+03  0.82470571953E+03  0.89528748521E+02 0.  0.
        254    2    1    2    0    0  0.37689612058E+03 -0.13400090674E+03  0.30761024041E+03  0.10276623986E+04  0.89524243464E+03 0.  0.
         24    2    4    4    0    0  0.12319187038E+03 -0.44501163866E+03  0.39775774400E+03  0.61421859227E+03  0.76430757671E+02 0.  0.
         13    1    3    3    0    0 -0.28832178975E+03  0.64899857369E+02  0.48027674000E+03  0.56392126482E+03  0.00000000000E+00 0.  1.
        -13    1    3    3    0    0 -0.88574330822E+02  0.69101049374E+02  0.23534690291E+03  0.26078445470E+03  0.00000000000E+00 0. -1.
          2    1    5    5  502    0 -0.25685446584E+01 -0.13443260571E+02  0.31626312328E+02  0.34460735743E+02  0.00000000000E+00 0. -1.
          3    1    4    4  503    0  0.11302564185E+03  0.16186483162E+03 -0.59134693317E+02  0.20608719364E+03  0.00000000000E+00 0. -1.
         -4    1    4    4    0  503  0.14067860835E+03  0.14914590030E+03 -0.31012810267E+02  0.20735661268E+03  0.00000000000E+00 0.  1.
         -1    1    5    5    0  502  0.12576041504E+03 -0.43156837809E+03  0.36613143167E+03  0.57975785653E+03  0.00000000000E+00 0.  1.
<mgrwt>
<rscale>  0 0.15441049E+04</rscale>
<asrwt>0</asrwt>
<pdfrwt beam="1">  1        1 0.63779557E-01 0.15441049E+04</pdfrwt>
<pdfrwt beam="2">  1       -1 0.22120015E+00 0.15441049E+04</pdfrwt>
<totfact> 0.59554917E+00</totfact>
</mgrwt>
</event>
<event>
11    1  0.2502641E-008  0.1799986E+04  0.7818608E-02  0.8706307E-01
          2   -1    0    0  501    0  0.00000000000E+00  0.00000000000E+00  0.12407720841E+04  0.12407720841E+04  0.00000000000E+00 0. -1.
         -2   -1    0    0    0  501 -0.00000000000E+00 -0.00000000000E+00 -0.65280953447E+03  0.65280953447E+03  0.00000000000E+00 0.  1.
         23    2    1    2    0    0  0.64542013429E+03  0.14493623715E+03  0.95414749063E+02  0.67459591845E+03  0.91662512892E+02 0.  0.
        254    2    1    2    0    0 -0.64542013429E+03 -0.14493623715E+03  0.49254780057E+03  0.12189857001E+04  0.89763530383E+03 0.  0.
         24    2    4    4    0    0 -0.74358317888E+02  0.28126197212E+03  0.32126282726E+03  0.44072143766E+03  0.79925746994E+02 0.  0.
         11    1    3    3    0    0  0.15790035613E+03  0.57151016928E+02 -0.97040426207E+01  0.16820502265E+03  0.00000000000E+00 0.  1.
        -11    1    3    3    0    0  0.48751977816E+03  0.87785220218E+02  0.10511879168E+03  0.50639089580E+03  0.00000000000E+00 0. -1.
          4    1    5    5  502    0 -0.64398847651E+02  0.96587572699E+02  0.10972199128E+03  0.15973504984E+03  0.00000000000E+00 0. -1.
          1    1    4    4  503    0 -0.53005498400E+03 -0.46292460123E+03  0.15232714776E+03  0.72004238239E+03  0.00000000000E+00 0. -1.
         -2    1    4    4    0  503 -0.41006832399E+02  0.36726391961E+02  0.18957825546E+02  0.58221880074E+02  0.00000000000E+00 0.  1.
         -3    1    5    5    0  502 -0.99594702373E+01  0.18467439942E+03  0.21154083598E+03  0.28098638782E+03  0.00000000000E+00 0.  1.
<mgrwt>
<rscale>  0 0.17999865E+04</rscale>
<asrwt>0</asrwt>
<pdfrwt beam="1">  1        2 0.19088801E+00 0.17999865E+04</pdfrwt>
<pdfrwt beam="2">  1       -2 0.10043224E+00 0.17999865E+04</pdfrwt>
<totfact> 0.13827383E+01</totfact>
</mgrwt>
</event>
<event>
11    1  0.2502641E-008  0.1177179E+04  0.7818608E-02  0.9133069E-01
          1   -1    0    0  501    0  0.00000000000E+00  0.00000000000E+00  0.56517076691E+03  0.56517076691E+03  0.00000000000E+00 0. -1.
         -1   -1    0    0    0  501 -0.00000000000E+00 -0.00000000000E+00 -0.61297894037E+03  0.61297894037E+03  0.00000000000E+00 0.  1.
         23    2    1    2    0    0  0.18466920072E+03  0.13377777664E+03  0.25751150237E+02  0.24548886952E+03  0.87192064451E+02 0.  0.
        254    2    1    2    0    0 -0.18466920072E+03 -0.13377777664E+03 -0.73559323704E+02  0.93266083776E+03  0.90135789616E+03 0.  0.
         24    2    4    4    0    0 -0.30586492629E+03  0.10814414957E+03 -0.31212492467E+02  0.33625822689E+03  0.82745786870E+02 0.  0.
         11    1    3    3    0    0  0.18809624297E+03  0.10618773410E+03  0.26866031009E+02  0.21766445533E+03  0.00000000000E+00 0. -1.
        -11    1    3    3    0    0 -0.34270422500E+01  0.27590042537E+02 -0.11148807723E+01  0.27824414188E+02  0.00000000000E+00 0.  1.
          4    1    5    5  502    0 -0.12480999980E+03  0.49574221375E+02 -0.53716291139E+02  0.14463948081E+03  0.00000000000E+00 0. -1.
          3    1    4    4  503    0 -0.52663047684E+02 -0.12842431853E+03 -0.26054189429E+03  0.29520887666E+03  0.00000000000E+00 0. -1.
         -4    1    4    4    0  503  0.17385877325E+03 -0.11349760768E+03  0.21819506306E+03  0.30119373421E+03  0.00000000000E+00 0.  1.
         -3    1    5    5    0  502 -0.18105492648E+03  0.58569928196E+02  0.22503798672E+02  0.19161874608E+03  0.00000000000E+00 0.  1.
<mgrwt>
<rscale>  0 0.11771793E+04</rscale>
<asrwt>0</asrwt>
<pdfrwt beam="1">  1        1 0.86949349E-01 0.11771793E+04</pdfrwt>
<pdfrwt beam="2">  1       -1 0.94304452E-01 0.11771793E+04</pdfrwt>
<totfact> 0.40296688E+01</totfact>
</mgrwt>
</event>
<event>
11    1  0.2502641E-008  0.2798586E+04  0.7818608E-02  0.8303707E-01
          1   -1    0    0  501    0  0.00000000000E+00  0.00000000000E+00  0.15728516631E+04  0.15728516631E+04  0.00000000000E+00 0. -1.
         -1   -1    0    0    0  501 -0.00000000000E+00 -0.00000000000E+00 -0.12448861429E+04  0.12448861429E+04  0.00000000000E+00 0.  1.
         23    2    1    2    0    0 -0.17574774440E+03 -0.39444921088E+03  0.13302087020E+04  0.14017705817E+04  0.95016436906E+02 0.  0.
        254    2    1    2    0    0  0.17574774440E+03  0.39444921088E+03 -0.10022431819E+04  0.14159672242E+04  0.90221634597E+03 0.  0.
         24    2    4    4    0    0 -0.55898839566E+02 -0.21036100733E+03 -0.23267666739E+02  0.23404400616E+03  0.82817744664E+02 0.  0.
         11    1    3    3    0    0 -0.40073362402E+02 -0.50976438855E+02  0.11907665203E+03  0.13558658028E+03  0.00000000000E+00 0.  1.
        -11    1    3    3    0    0 -0.13567438200E+03 -0.34347277203E+03  0.12111320500E+04  0.12661840015E+04  0.00000000000E+00 0. -1.
          4    1    5    5  502    0 -0.28095318529E+02 -0.28568371620E+02 -0.29936050498E+02  0.50016656223E+02  0.00000000000E+00 0. -1.
          1    1    4    4  503    0  0.16762781968E+03  0.24587169131E+03 -0.43265847648E+03  0.52511458920E+03  0.00000000000E+00 0. -1.
         -2    1    4    4    0  503  0.64018764287E+02  0.35893852691E+03 -0.54631703864E+03  0.65680862889E+03  0.00000000000E+00 0.  1.
         -3    1    5    5    0  502 -0.27803521037E+02 -0.18179263572E+03  0.66683837593E+01  0.18402734994E+03  0.00000000000E+00 0.  1.
<mgrwt>
<rscale>  0 0.27985862E+04</rscale>
<asrwt>0</asrwt>
<pdfrwt beam="1">  1        1 0.24197718E+00 0.27985862E+04</pdfrwt>
<pdfrwt beam="2">  1       -1 0.19152094E+00 0.27985862E+04</pdfrwt>
<totfact> 0.86965192E-01</totfact>
</mgrwt>
</event>
<event>
12    1  0.2502641E-008  0.2277785E+04  0.7818608E-02  0.8486732E-01
         -2   -1    0    0    0  501 -0.00000000000E+00  0.00000000000E+00  0.89497632645E+03  0.89497632645E+03  0.00000000000E+00 0.  1.
          2   -1    0    0  501    0  0.00000000000E+00 -0.00000000000E+00 -0.14492857113E+04  0.14492857113E+04  0.00000000000E+00 0. -1.
         23    2    1    2    0    0  0.92072885774E+03  0.16879520614E+03 -0.36884432647E+02  0.94119764489E+03  0.90879559135E+02 0.  0.
        254    2    1    2    0    0 -0.92072885774E+03 -0.16879520614E+03 -0.51742495222E+03  0.14030643929E+04  0.90809011573E+03 0.  0.
        -24    2    4    4    0    0 -0.85778896428E+03  0.21808804713E+03 -0.44404959557E+03  0.99607464019E+03  0.10779768999E+03 0.  0.
         24    2    4    4    0    0 -0.62939893465E+02 -0.38688325327E+03 -0.73375356642E+02  0.40698975269E+03  0.81342694665E+02 0.  0.
         13    1    3    3    0    0  0.76100863154E+03  0.15497272740E+03  0.28567479973E+00  0.77662781635E+03  0.00000000000E+00 0. -1.
        -13    1    3    3    0    0  0.15972022620E+03  0.13822478739E+02 -0.37170107447E+02  0.16456982854E+03  0.00000000000E+00 0.  1.
          2    1    6    6  502    0 -0.19282963284E+02 -0.38366479487E+02  0.13781751188E+02  0.45097184913E+02  0.00000000000E+00 0. -1.
          3    1    5    5  503    0 -0.15230644968E+03  0.15489522012E+02 -0.40069104735E+02  0.15824889593E+03  0.00000000000E+00 0. -1.
         -4    1    5    5    0  503 -0.70548251459E+03  0.20259852512E+03 -0.40398049084E+03  0.83782574427E+03  0.00000000000E+00 0.  1.
         -1    1    6    6    0  502 -0.43656930180E+02 -0.34851677379E+03 -0.87157107830E+02  0.36189256777E+03  0.00000000000E+00 0.  1.
<mgrwt>
<rscale>  0 0.22777852E+04</rscale>
<asrwt>0</asrwt>
<pdfrwt beam="1">  1        2 0.22296703E+00 0.22777852E+04</pdfrwt>
<pdfrwt beam="2">  1       -2 0.13768867E+00 0.22777852E+04</pdfrwt>
<totfact> 0.46204474E+00</totfact>
</mgrwt>
</event>
<event>
12    1  0.2502641E-008  0.1793774E+04  0.7818608E-02  0.8709618E-01
          2   -1    0    0  501    0  0.00000000000E+00  0.00000000000E+00  0.39579401772E+04  0.39579401772E+04  0.00000000000E+00 0. -1.
         -2   -1    0    0    0  501 -0.00000000000E+00 -0.00000000000E+00 -0.20323852330E+03  0.20323852330E+03  0.00000000000E+00 0.  1.
         23    2    1    2    0    0 -0.24757379013E+03  0.27736228235E+03  0.12195078632E+03  0.40229154635E+03  0.93508698794E+02 0.  0.
        254    2    1    2    0    0  0.24757379013E+03 -0.27736228235E+03  0.36327508676E+04  0.37588871542E+04  0.89114036747E+03 0.  0.
        -24    2    4    4    0    0  0.70582735222E+02  0.19266754788E+03  0.25765346521E+04  0.25864454280E+04  0.95217813009E+02 0.  0.
         24    2    4    4    0    0  0.17699105490E+03 -0.47002983023E+03  0.10562162155E+04  0.11724417262E+04  0.82298436313E+02 0.  0.
         11    1    3    3    0    0 -0.19879801128E+03  0.26004098756E+03  0.83487416608E+02  0.33780484489E+03  0.00000000000E+00 0.  1.
        -11    1    3    3    0    0 -0.48775778843E+02  0.17321294795E+02  0.38463369715E+02  0.64486701458E+02  0.00000000000E+00 0. -1.
          2    1    6    6  502    0  0.25500609802E+02 -0.17467827514E+03  0.39125241771E+03  0.42923331100E+03  0.00000000000E+00 0. -1.
          1    1    5    5  503    0  0.84374877909E+02  0.19317498594E+03  0.24778390390E+04  0.24867894962E+04  0.00000000000E+00 0. -1.
         -2    1    5    5    0  503 -0.13792142687E+02 -0.50743806098E+00  0.98695613086E+02  0.99655931764E+02  0.00000000000E+00 0.  1.
         -1    1    6    6    0  502  0.15149044510E+03 -0.29535155510E+03  0.66496379780E+03  0.74320841521E+03  0.00000000000E+00 0.  1.
<mgrwt>
<rscale>  0 0.17937736E+04</rscale>
<asrwt>0</asrwt>
<pdfrwt beam="1">  1        2 0.60891382E+00 0.17937736E+04</pdfrwt>
<pdfrwt beam="2">  1       -2 0.31267468E-01 0.17937736E+04</pdfrwt>
<totfact> 0.33623177E+00</totfact>
</mgrwt>
</event>
<event>
12    1  0.2502641E-008  0.1761485E+04  0.7818608E-02  0.8727054E-01
          1   -1    0    0  501    0  0.00000000000E+00  0.00000000000E+00  0.60588076724E+03  0.60588076724E+03  0.00000000000E+00 0. -1.
         -1   -1    0    0    0  501 -0.00000000000E+00 -0.00000000000E+00 -0.12802967210E+04  0.12802967210E+04  0.00000000000E+00 0.  1.
         23    2    1    2    0    0  0.12883471881E+03  0.63114874984E+03 -0.27305796770E+03  0.70553327508E+03  0.90936347658E+02 0.  0.
        254    2    1    2    0    0 -0.12883471881E+03 -0.63114874984E+03 -0.40135798608E+03  0.11806442132E+04  0.90437016530E+03 0.  0.
        -24    2    4    4    0    0  0.10056953577E+02  0.22181928050E+03 -0.97549655071E+02  0.26103124143E+03  0.96521698504E+02 0.  0.
         24    2    4    4    0    0 -0.13889167239E+03 -0.85296803034E+03 -0.30380833101E+03  0.91961297174E+03  0.80889791417E+02 0.  0.
         13    1    3    3    0    0  0.12067255479E+03  0.48114860951E+03 -0.17441702608E+03  0.52582045310E+03  0.00000000000E+00 0.  1.
        -13    1    3    3    0    0  0.81621640213E+01  0.15000014034E+03 -0.98640941614E+02  0.17971282198E+03  0.00000000000E+00 0. -1.
          2    1    6    6  502    0 -0.11411789554E+03 -0.67827719808E+03 -0.20660418189E+03  0.71816999345E+03  0.00000000000E+00 0. -1.
          1    1    5    5  503    0  0.53258638597E+02  0.12078490004E+03 -0.58886738795E+02  0.14454453525E+03  0.00000000000E+00 0. -1.
         -2    1    5    5    0  503 -0.43201685021E+02  0.10103438045E+03 -0.38662916276E+02  0.11648670618E+03  0.00000000000E+00 0.  1.
         -1    1    6    6    0  502 -0.24773776853E+02 -0.17469083226E+03 -0.97204149121E+02  0.20144297829E+03  0.00000000000E+00 0.  1.
<mgrwt>
<rscale>  0 0.17614848E+04</rscale>
<asrwt>0</asrwt>
<pdfrwt beam="1">  1        1 0.93212427E-01 0.17614848E+04</pdfrwt>
<pdfrwt beam="2">  1       -1 0.19696872E+00 0.17614848E+04</pdfrwt>
<totfact> 0.50485947E+00</totfact>
</mgrwt>
</event>
<event>
12    1  0.2788914E-008  0.2309795E+04  0.7818608E-02  0.8474069E-01
          2   -1    0    0  501    0  0.00000000000E+00  0.00000000000E+00  0.18484424004E+04  0.18484424004E+04  0.00000000000E+00 0. -1.
         -2   -1    0    0    0  501 -0.00000000000E+00 -0.00000000000E+00 -0.72157434161E+03  0.72157434161E+03  0.00000000000E+00 0.  1.
         23    2    1    2    0    0 -0.11705383265E+03 -0.20010098007E+03  0.15381571336E+04  0.15582031201E+04  0.91255650737E+02 0.  0.
        254    2    1    2    0    0  0.11705383265E+03  0.20010098007E+03 -0.41128907476E+03  0.10118136220E+04  0.89491122503E+03 0.  0.
        -24    2    4    4    0    0  0.27729774888E+03  0.49281945273E+03 -0.19029354698E+03  0.60444163806E+03  0.96814282420E+02 0.  0.
         24    2    4    4    0    0 -0.16024391623E+03 -0.29271847266E+03 -0.22099552778E+03  0.40737198393E+03  0.75833324281E+02 0.  0.
         11    1    3    3    0    0 -0.12977749872E+03 -0.18553889759E+03  0.14707601866E+04  0.14880868282E+04  0.00000000000E+00 0. -1.
        -11    1    3    3    0    0  0.12723666071E+02 -0.14562082483E+02  0.67396946954E+02  0.70116291853E+02  0.00000000000E+00 0.  1.
          4    1    6    6  502    0 -0.15351895327E+02 -0.64406907786E+02 -0.75091930393E+02  0.10011357785E+03  0.00000000000E+00 0. -1.
          3    1    5    5  503    0  0.10225095820E+03  0.21131653311E+03 -0.31425760307E+02  0.23684913770E+03  0.00000000000E+00 0. -1.
         -4    1    5    5    0  503  0.17504679068E+03  0.28150291962E+03 -0.15886778667E+03  0.36759250037E+03  0.00000000000E+00 0.  1.
         -3    1    6    6    0  502 -0.14489202090E+03 -0.22831156487E+03 -0.14590359738E+03  0.30725840608E+03  0.00000000000E+00 0.  1.
<mgrwt>
<rscale>  0 0.23097953E+04</rscale>
<asrwt>0</asrwt>
<pdfrwt beam="1">  1        2 0.28437575E+00 0.23097953E+04</pdfrwt>
<pdfrwt beam="2">  1       -2 0.11101144E+00 0.23097953E+04</pdfrwt>
<totfact> 0.47215088E+00</totfact>
</mgrwt>
</event>
<event>
11    1  0.2502641E-008  0.1570234E+04  0.7818608E-02  0.8839046E-01
          1   -1    0    0  501    0  0.00000000000E+00  0.00000000000E+00  0.92736646600E+03  0.92736646600E+03  0.00000000000E+00 0. -1.
         -1   -1    0    0    0  501 -0.00000000000E+00 -0.00000000000E+00 -0.66468728526E+03  0.66468728526E+03  0.00000000000E+00 0.  1.
         23    2    1    2    0    0  0.80762365440E+02 -0.50222297558E+03  0.25183654547E+03  0.57506627650E+03  0.92353125880E+02 0.  0.
        254    2    1    2    0    0 -0.80762365440E+02  0.50222297558E+03  0.10842635265E+02  0.10169874748E+04  0.88056543436E+03 0.  0.
         24    2    4    4    0    0 -0.77831921943E+01 -0.84068595366E+02  0.95392234773E+02  0.15181126561E+03  0.82576480324E+02 0.  0.
         11    1    3    3    0    0  0.62361444811E+02 -0.13797743740E+03  0.58909079239E+02  0.16247154412E+03  0.00000000000E+00 0.  1.
        -11    1    3    3    0    0  0.18400920629E+02 -0.36424553818E+03  0.19292746623E+03  0.41259473239E+03  0.00000000000E+00 0. -1.
          4    1    5    5  502    0 -0.32870508304E+02 -0.39170097237E+01  0.36253129148E+02  0.49092796359E+02  0.00000000000E+00 0. -1.
          1    1    4    4  503    0  0.24864587435E+03  0.24050021770E+03 -0.16971244451E+03  0.38531472768E+03  0.00000000000E+00 0. -1.
         -2    1    4    4    0  503 -0.32162504760E+03  0.34579135325E+03  0.85162845002E+02  0.47986148146E+03  0.00000000000E+00 0.  1.
         -3    1    5    5    0  502  0.25087316110E+02 -0.80151585642E+02  0.59139105625E+02  0.10271846925E+03  0.00000000000E+00 0.  1.
<mgrwt>
<rscale>  0 0.15702340E+04</rscale>
<asrwt>0</asrwt>
<pdfrwt beam="1">  1        1 0.14267176E+00 0.15702340E+04</pdfrwt>
<pdfrwt beam="2">  1       -1 0.10225958E+00 0.15702340E+04</pdfrwt>
<totfact> 0.15055701E+01</totfact>
</mgrwt>
</event>
<event>
11    1  0.2502641E-008  0.1766459E+04  0.7818608E-02  0.8724342E-01
          1   -1    0    0  501    0  0.00000000000E+00  0.00000000000E+00  0.52724526005E+03  0.52724526005E+03  0.00000000000E+00 0. -1.
         -1   -1    0    0    0  501 -0.00000000000E+00 -0.00000000000E+00 -0.14795659297E+04  0.14795659297E+04  0.00000000000E+00 0.  1.
         23    2    1    2    0    0 -0.59376924360E+03  0.16479997115E+03 -0.58631099374E+03  0.85545534975E+03  0.91226799187E+02 0.  0.
        254    2    1    2    0    0  0.59376924360E+03 -0.16479997115E+03 -0.36600967592E+03  0.11513558400E+04  0.90107504812E+03 0.  0.
         24    2    4    4    0    0  0.45594719972E+03 -0.33662862235E+03 -0.27404371739E+03  0.63448215367E+03  0.79126265966E+02 0.  0.
         11    1    3    3    0    0 -0.48028839153E+02 -0.27977756969E+01 -0.74749695884E+02  0.88893835411E+02  0.00000000000E+00 0. -1.
        -11    1    3    3    0    0 -0.54574040445E+03  0.16759774685E+03 -0.51156129786E+03  0.76656151433E+03  0.00000000000E+00 0.  1.
          2    1    5    5  502    0  0.54091882565E+01 -0.17329182749E+02 -0.32784660806E+00  0.18156744635E+02  0.00000000000E+00 0. -1.
          3    1    4    4  503    0  0.27093574233E+03  0.20409807634E+03 -0.14644148014E+03  0.36946895450E+03  0.00000000000E+00 0. -1.
         -4    1    4    4    0  503 -0.13311369845E+03 -0.32269425137E+02  0.54475521615E+02  0.14740473184E+03  0.00000000000E+00 0.  1.
         -1    1    5    5    0  502  0.45053801147E+03 -0.31929943960E+03 -0.27371587079E+03  0.61632540904E+03  0.00000000000E+00 0.  1.
<mgrwt>
<rscale>  0 0.17664587E+04</rscale>
<asrwt>0</asrwt>
<pdfrwt beam="1">  1        1 0.81114656E-01 0.17664587E+04</pdfrwt>
<pdfrwt beam="2">  1       -1 0.22762552E+00 0.17664587E+04</pdfrwt>
<totfact> 0.38128375E+00</totfact>
</mgrwt>
</event>
<event>
12    1  0.2502641E-008  0.1869986E+04  0.7818608E-02  0.8669942E-01
          2   -1    0    0  501    0  0.00000000000E+00  0.00000000000E+00  0.31548410898E+04  0.31548410898E+04  0.00000000000E+00 0. -1.
         -2   -1    0    0    0  501 -0.00000000000E+00 -0.00000000000E+00 -0.27710161015E+03  0.27710161015E+03  0.00000000000E+00 0.  1.
         23    2    1    2    0    0  0.37535083227E+03  0.50880755898E+03  0.17130377007E+04  0.18278667241E+04  0.82614876378E+02 0.  0.
        254    2    1    2    0    0 -0.37535083227E+03 -0.50880755898E+03  0.11647017790E+04  0.16040759759E+04  0.90374560745E+03 0.  0.
        -24    2    4    4    0    0 -0.55330680746E+03 -0.73570257299E+01  0.53436349686E+03  0.77568338566E+03  0.99688610187E+02 0.  0.
         24    2    4    4    0    0  0.17795597518E+03 -0.50145053325E+03  0.63033828214E+03  0.82839259021E+03  0.76072118288E+02 0.  0.
         13    1    3    3    0    0  0.14572663981E+03  0.13532263984E+03  0.56320524668E+03  0.59728437137E+03  0.00000000000E+00 0.  1.
        -13    1    3    3    0    0  0.22962419246E+03  0.37348491914E+03  0.11498324540E+04  0.12305823527E+04  0.00000000000E+00 0. -1.
          4    1    6    6  502    0  0.68323579273E+02 -0.19828982039E+03  0.19254018754E+03  0.28470807535E+03  0.00000000000E+00 0. -1.
          1    1    5    5  503    0 -0.42389747414E+03  0.36397843679E+02  0.41326899021E+03  0.59313162947E+03  0.00000000000E+00 0. -1.
         -2    1    5    5    0  503 -0.12940933332E+03 -0.43754869409E+02  0.12109450665E+03  0.18255175619E+03  0.00000000000E+00 0.  1.
         -3    1    6    6    0  502  0.10963239591E+03 -0.30316071287E+03  0.43779809460E+03  0.54368451486E+03  0.00000000000E+00 0.  1.
<mgrwt>
<rscale>  0 0.18699856E+04</rscale>
<asrwt>0</asrwt>
<pdfrwt beam="1">  1        2 0.48536014E+00 0.18699856E+04</pdfrwt>
<pdfrwt beam="2">  1       -2 0.42631019E-01 0.18699856E+04</pdfrwt>
<totfact> 0.68236710E+00</totfact>
</mgrwt>
</event>
<event>
12    1  0.2502641E-008  0.1800284E+04  0.7818608E-02  0.8706148E-01
          1   -1    0    0  501    0  0.00000000000E+00  0.00000000000E+00  0.81943549798E+03  0.81943549798E+03  0.00000000000E+00 0. -1.
         -1   -1    0    0    0  501 -0.00000000000E+00 -0.00000000000E+00 -0.98879773638E+03  0.98879773638E+03  0.00000000000E+00 0.  1.
         23    2    1    2    0    0 -0.70523249396E+02 -0.57595632474E+03 -0.33610620248E+03  0.67739856392E+03  0.95928193722E+02 0.  0.
        254    2    1    2    0    0  0.70523249396E+02  0.57595632474E+03  0.16674396408E+03  0.11308346704E+04  0.95618214039E+03 0.  0.
        -24    2    4    4    0    0 -0.11053439372E+03  0.30052534288E+03 -0.37164648836E+03  0.49521036104E+03  0.67667240652E+02 0.  0.
         24    2    4    4    0    0  0.18105764312E+03  0.27543098185E+03  0.53839045244E+03  0.63562430940E+03  0.74228616607E+02 0.  0.
         13    1    3    3    0    0 -0.60875125617E+02 -0.57471315915E+03 -0.33380200867E+03  0.66740151124E+03  0.00000000000E+00 0.  1.
        -13    1    3    3    0    0 -0.96481237788E+01 -0.12431655859E+01 -0.23041938059E+01  0.99970526766E+01  0.00000000000E+00 0. -1.
          4    1    6    6  502    0  0.17743389725E+03  0.27873582317E+03  0.53702499330E+03  0.63053333809E+03  0.00000000000E+00 0. -1.
          1    1    5    5  503    0 -0.10852809580E+03  0.21256066496E+03 -0.25759242897E+03  0.35116127823E+03  0.00000000000E+00 0. -1.
         -2    1    5    5    0  503 -0.20062979182E+01  0.87964677926E+02 -0.11405405940E+03  0.14404908281E+03  0.00000000000E+00 0.  1.
         -3    1    6    6    0  502  0.36237458693E+01 -0.33048413141E+01  0.13654591403E+01  0.50909713121E+01  0.00000000000E+00 0.  1.
<mgrwt>
<rscale>  0 0.18002844E+04</rscale>
<asrwt>0</asrwt>
<pdfrwt beam="1">  1        1 0.12606700E+00 0.18002844E+04</pdfrwt>
<pdfrwt beam="2">  1       -1 0.15212273E+00 0.18002844E+04</pdfrwt>
<totfact> 0.67406236E+00</totfact>
</mgrwt>
</event>
<event>
11    1  0.2502641E-008  0.1504427E+04  0.7818608E-02  0.8881514E-01
          2   -1    0    0  501    0  0.00000000000E+00  0.00000000000E+00  0.29610277347E+04  0.29610277347E+04  0.00000000000E+00 0. -1.
         -2   -1    0    0    0  501 -0.00000000000E+00 -0.00000000000E+00 -0.19109085151E+03  0.19109085151E+03  0.00000000000E+00 0.  1.
         23    2    1    2    0    0 -0.22682520018E+03  0.21093719017E+03  0.12975997018E+03  0.34668280479E+03  0.86064787475E+02 0.  0.
        254    2    1    2    0    0  0.22682520018E+03 -0.21093719017E+03  0.26401769130E+04  0.28054357814E+04  0.89665579909E+03 0.  0.
         24    2    4    4    0    0  0.16195920194E+03  0.25020398690E+03  0.36315681179E+03  0.47669165957E+03  0.80741873895E+02 0.  0.
         11    1    3    3    0    0 -0.19482365905E+03  0.20124233548E+03  0.88862664110E+02  0.29385593203E+03  0.00000000000E+00 0.  1.
        -11    1    3    3    0    0 -0.32001541122E+02  0.96948546875E+01  0.40897306067E+02  0.52826872755E+02  0.00000000000E+00 0. -1.
          4    1    5    5  502    0  0.62842883040E+02  0.11123652797E+03  0.21774056694E+03  0.25245543685E+03  0.00000000000E+00 0. -1.
          1    1    4    4  503    0  0.17478320773E+02 -0.28556621461E+03  0.10483418166E+04  0.10866803205E+04  0.00000000000E+00 0. -1.
         -2    1    4    4    0  503  0.47387677467E+02 -0.17557496246E+03  0.12286782847E+04  0.12420638014E+04  0.00000000000E+00 0.  1.
         -3    1    5    5    0  502  0.99116318895E+02  0.13896745893E+03  0.14541624485E+03  0.22423622272E+03  0.00000000000E+00 0.  1.
<mgrwt>
<rscale>  0 0.15044272E+04</rscale>
<asrwt>0</asrwt>
<pdfrwt beam="1">  1        2 0.45554269E+00 0.15044272E+04</pdfrwt>
<pdfrwt beam="2">  1       -2 0.29398595E-01 0.15044272E+04</pdfrwt>
<totfact> 0.19072381E+01</totfact>
</mgrwt>
</event>
<event>
11    1  0.2502641E-008  0.2593425E+04  0.7818608E-02  0.8370438E-01
          2   -1    0    0  501    0  0.00000000000E+00  0.00000000000E+00  0.10795731957E+04  0.10795731957E+04  0.00000000000E+00 0. -1.
         -2   -1    0    0    0  501 -0.00000000000E+00 -0.00000000000E+00 -0.15575264153E+04  0.15575264153E+04  0.00000000000E+00 0.  1.
         23    2    1    2    0    0 -0.33459998196E+03  0.83412733635E+03 -0.93078271395E+03  0.12972104845E+04  0.93129046254E+02 0.  0.
        254    2    1    2    0    0  0.33459998196E+03 -0.83412733635E+03  0.45282949436E+03  0.13398891266E+04  0.88460316496E+03 0.  0.
         24    2    4    4    0    0 -0.86451817897E+02 -0.68725107217E+03  0.11980935591E+03  0.70749605432E+03  0.80052683291E+02 0.  0.
         11    1    3    3    0    0 -0.32295449135E+02  0.17443348963E+03 -0.16619502014E+03  0.24308604045E+03  0.00000000000E+00 0. -1.
        -11    1    3    3    0    0 -0.30230453282E+03  0.65969384672E+03 -0.76458769381E+03  0.10541244440E+04  0.00000000000E+00 0.  1.
          4    1    5    5  502    0 -0.94141325483E+02 -0.65485970005E+03  0.10099576226E+03  0.66925627371E+03  0.00000000000E+00 0. -1.
          3    1    4    4  503    0  0.43191008272E+03 -0.14535006157E+03  0.37427410276E+03  0.58970676098E+03  0.00000000000E+00 0. -1.
         -4    1    4    4    0  503 -0.10858282867E+02 -0.15262026167E+01 -0.41253964310E+02  0.42686311302E+02  0.00000000000E+00 0.  1.
         -3    1    5    5    0  502  0.76895075864E+01 -0.32391372119E+02  0.18813593654E+02  0.38239780606E+02  0.00000000000E+00 0.  1.
<mgrwt>
<rscale>  0 0.25934254E+04</rscale>
<asrwt>0</asrwt>
<pdfrwt beam="1">  1        2 0.16608818E+00 0.25934254E+04</pdfrwt>
<pdfrwt beam="2">  1       -2 0.23961945E+00 0.25934254E+04</pdfrwt>
<totfact> 0.14784581E+00</totfact>
</mgrwt>
</event>
<event>
11    1  0.2502641E-008  0.3783282E+04  0.7818608E-02  0.8049752E-01
         -2   -1    0    0    0  501 -0.00000000000E+00  0.00000000000E+00  0.74950478849E+03  0.74950478849E+03  0.00000000000E+00 0. -1.
          2   -1    0    0  501    0  0.00000000000E+00 -0.00000000000E+00 -0.47742271660E+04  0.47742271660E+04  0.00000000000E+00 0.  1.
         23    2    1    2    0    0  0.34078817203E+03 -0.16366247507E+04 -0.28135358448E+04  0.32740026856E+04  0.91828548706E+02 0.  0.
        254    2    1    2    0    0 -0.34078817203E+03  0.16366247507E+04 -0.12111865327E+04  0.22497292689E+04  0.89422134478E+03 0.  0.
         24    2    4    4    0    0 -0.32116240201E+03  0.21437877142E+03 -0.54552667835E+03  0.67406709081E+03  0.87541647362E+02 0.  0.
         11    1    3    3    0    0  0.10475842862E+03 -0.55794851986E+03 -0.10388054494E+04  0.11838064203E+04  0.00000000000E+00 0. -1.
        -11    1    3    3    0    0  0.23602974341E+03 -0.10786762309E+04 -0.17747303954E+04  0.20901962652E+04  0.00000000000E+00 0.  1.
          2    1    5    5  502    0 -0.93297486336E+02  0.88977172782E+02 -0.12477769265E+03  0.17941803370E+03  0.00000000000E+00 0. -1.
          3    1    4    4  503    0  0.53386198261E+02  0.67669919015E+03 -0.33067282315E+03  0.75506052478E+03  0.00000000000E+00 0. -1.
         -4    1    4    4    0  503 -0.73011968280E+02  0.74554678915E+03 -0.33498703118E+03  0.82060165329E+03  0.00000000000E+00 0.  1.
         -1    1    5    5    0  502 -0.22786491567E+03  0.12540159863E+03 -0.42074898570E+03  0.49464905711E+03  0.00000000000E+00 0.  1.
<mgrwt>
<rscale>  0 0.37832822E+04</rscale>
<asrwt>0</asrwt>
<pdfrwt beam="1">  1        2 0.73449649E+00 0.37832822E+04</pdfrwt>
<pdfrwt beam="2">  1       -2 0.11530843E+00 0.37832822E+04</pdfrwt>
<totfact> 0.29681797E-02</totfact>
</mgrwt>
</event>
<event>
11    1  0.2502641E-008  0.1723741E+04  0.7818608E-02  0.8747939E-01
         -2   -1    0    0    0  501 -0.00000000000E+00  0.00000000000E+00  0.30069127574E+03  0.30069127574E+03  0.00000000000E+00 0.  1.
          2   -1    0    0  501    0  0.00000000000E+00 -0.00000000000E+00 -0.24703756229E+04  0.24703756229E+04  0.00000000000E+00 0. -1.
         23    2    1    2    0    0 -0.59429500266E+03  0.66970486326E+02 -0.50582259047E+03  0.78824804334E+03  0.88356598877E+02 0.  0.
        254    2    1    2    0    0  0.59429500266E+03 -0.66970486326E+02 -0.16638617567E+04  0.19828188553E+04  0.89747594470E+03 0.  0.
         24    2    4    4    0    0  0.63190433894E+03  0.24280969022E+03 -0.77837262637E+03  0.10347257406E+04  0.80831760721E+02 0.  0.
         13    1    3    3    0    0 -0.84866814520E+02  0.28943365321E+02 -0.11050468751E+03  0.14230734543E+03  0.00000000000E+00 0. -1.
        -13    1    3    3    0    0 -0.50942818814E+03  0.38027121004E+02 -0.39531790297E+03  0.64594069791E+03  0.00000000000E+00 0.  1.
          4    1    5    5  502    0  0.18870876774E+03  0.75565422841E+02 -0.29203602342E+03  0.35581760935E+03  0.00000000000E+00 0. -1.
          1    1    4    4  503    0 -0.49325007225E+02 -0.80459803477E+02 -0.14663108811E+03  0.17437721271E+03  0.00000000000E+00 0. -1.
         -2    1    4    4    0  503  0.11715670952E+02 -0.22932037307E+03 -0.73885804222E+03  0.77371590200E+03  0.00000000000E+00 0.  1.
         -3    1    5    5    0  502  0.44319557120E+03  0.16724426738E+03 -0.48633660295E+03  0.67890813124E+03  0.00000000000E+00 0.  1.
<mgrwt>
<rscale>  0 0.17237406E+04</rscale>
<asrwt>0</asrwt>
<pdfrwt beam="1">  1        2 0.38005778E+00 0.17237406E+04</pdfrwt>
<pdfrwt beam="2">  1       -2 0.46260197E-01 0.17237406E+04</pdfrwt>
<totfact> 0.15260044E+01</totfact>
</mgrwt>
</event>
<event>
12    1  0.2502641E-008  0.2216558E+04  0.7818608E-02  0.8511568E-01
         -2   -1    0    0    0  501 -0.00000000000E+00  0.00000000000E+00  0.39937571244E+03  0.39937571244E+03  0.00000000000E+00 0.  1.
          2   -1    0    0  501    0  0.00000000000E+00 -0.00000000000E+00 -0.30755066470E+04  0.30755066470E+04  0.00000000000E+00 0. -1.
         23    2    1    2    0    0 -0.21647635825E+03 -0.86457661153E+03 -0.74563710239E+03  0.11653680640E+04  0.88052854150E+02 0.  0.
        254    2    1    2    0    0  0.21647635825E+03  0.86457661153E+03 -0.19304938321E+04  0.23095142955E+04  0.90149604219E+03 0.  0.
        -24    2    4    4    0    0 -0.83200665656E+02 -0.16377792101E+03 -0.30384867771E+03  0.36032335513E+03  0.61346093024E+02 0.  0.
         24    2    4    4    0    0  0.29967702391E+03  0.10283545325E+04 -0.16266451544E+04  0.19491909403E+04  0.77791388729E+02 0.  0.
         13    1    3    3    0    0 -0.53311927319E+02 -0.12127678656E+03 -0.83191277239E+02  0.15643212317E+03  0.00000000000E+00 0.  1.
        -13    1    3    3    0    0 -0.16316443093E+03 -0.74329982498E+03 -0.66244582515E+03  0.10089359408E+04  0.00000000000E+00 0. -1.
          2    1    6    6  502    0  0.45625963216E+02  0.85943720534E+02 -0.12956870151E+03  0.16203734147E+03  0.00000000000E+00 0. -1.
          3    1    5    5  503    0 -0.42768660065E+02 -0.46101144372E+02 -0.61819103765E+02  0.88182058189E+02  0.00000000000E+00 0. -1.
         -4    1    5    5    0  503 -0.40432005591E+02 -0.11767677664E+03 -0.24202957395E+03  0.27214129694E+03  0.00000000000E+00 0.  1.
         -1    1    6    6    0  502  0.25405106069E+03  0.94241081201E+03 -0.14970764529E+04  0.17871535989E+04  0.00000000000E+00 0.  1.
<mgrwt>
<rscale>  0 0.22165583E+04</rscale>
<asrwt>0</asrwt>
<pdfrwt beam="1">  1        2 0.47315488E+00 0.22165583E+04</pdfrwt>
<pdfrwt beam="2">  1       -2 0.61442416E-01 0.22165583E+04</pdfrwt>
<totfact> 0.35115799E+00</totfact>
</mgrwt>
</event>
<event>
12    1  0.2502641E-008  0.2119660E+04  0.7818608E-02  0.8552632E-01
          1   -1    0    0  501    0  0.00000000000E+00  0.00000000000E+00  0.17475363615E+04  0.17475363615E+04  0.00000000000E+00 0. -1.
         -1   -1    0    0    0  501 -0.00000000000E+00 -0.00000000000E+00 -0.64275622410E+03  0.64275622410E+03  0.00000000000E+00 0.  1.
         23    2    1    2    0    0 -0.24790716498E+03  0.14023010585E+03 -0.46724660275E+03  0.55484542265E+03  0.91714830948E+02 0.  0.
        254    2    1    2    0    0  0.24790716498E+03 -0.14023010585E+03  0.15720267402E+04  0.18354471630E+04  0.90359048866E+03 0.  0.
        -24    2    4    4    0    0  0.56051113544E+03 -0.28465693861E+02  0.12239733083E+04  0.13482433414E+04  0.68311196928E+02 0.  0.
         24    2    4    4    0    0 -0.31260397045E+03 -0.11176441199E+03  0.34805343189E+03  0.48720382155E+03  0.77548991928E+02 0.  0.
         11    1    3    3    0    0 -0.14466233809E+03  0.13167794902E+03 -0.30375192532E+03  0.36129144255E+03  0.00000000000E+00 0.  1.
        -11    1    3    3    0    0 -0.10324482690E+03  0.85521568338E+01 -0.16349467742E+03  0.19355398010E+03  0.00000000000E+00 0. -1.
          4    1    6    6  502    0 -0.43032999592E+02 -0.42308137999E+02  0.42221010738E+02  0.73650738914E+02  0.00000000000E+00 0. -1.
          1    1    5    5  503    0  0.68480192013E+02  0.10388318574E+02  0.11251775856E+03  0.13212758929E+03  0.00000000000E+00 0. -1.
         -2    1    5    5    0  503  0.49203094343E+03 -0.38854012435E+02  0.11114555497E+04  0.12161157521E+04  0.00000000000E+00 0.  1.
         -3    1    6    6    0  502 -0.26957097086E+03 -0.69456273993E+02  0.30583242115E+03  0.41355308263E+03  0.00000000000E+00 0.  1.
<mgrwt>
<rscale>  0 0.21196602E+04</rscale>
<asrwt>0</asrwt>
<pdfrwt beam="1">  1        1 0.26885175E+00 0.21196602E+04</pdfrwt>
<pdfrwt beam="2">  1       -1 0.98885573E-01 0.21196602E+04</pdfrwt>
<totfact> 0.39705320E+00</totfact>
</mgrwt>
</event>
<event>
12    1  0.2502641E-008  0.1595795E+04  0.7818608E-02  0.8823135E-01
         -1   -1    0    0    0  501 -0.00000000000E+00  0.00000000000E+00  0.72548630684E+03  0.72548630684E+03  0.00000000000E+00 0.  1.
          1   -1    0    0  501    0  0.00000000000E+00 -0.00000000000E+00 -0.87753639118E+03  0.87753639118E+03  0.00000000000E+00 0. -1.
         23    2    1    2    0    0 -0.26181431356E+02 -0.36701413032E+03  0.33538574802E+03  0.50398488010E+03  0.78309132227E+02 0.  0.
        254    2    1    2    0    0  0.26181431356E+02  0.36701413032E+03 -0.48743583236E+03  0.10990378179E+04  0.91373168673E+03 0.  0.
        -24    2    4    4    0    0  0.34865084726E+03  0.24927428677E+03 -0.58592966216E+03  0.73319169848E+03  0.10276874219E+03 0.  0.
         24    2    4    4    0    0 -0.32246941590E+03  0.11773984355E+03  0.98493829804E+02  0.36584611944E+03  0.79329399652E+02 0.  0.
         13    1    3    3    0    0 -0.33848964021E+02 -0.36233777299E+03  0.31350620143E+03  0.48033379272E+03  0.00000000000E+00 0.  1.
        -13    1    3    3    0    0  0.76675326646E+01 -0.46763573377E+01  0.21879546590E+02  0.23651087376E+02  0.00000000000E+00 0. -1.
          4    1    6    6  502    0 -0.23833797615E+02  0.34826994549E+02  0.15903262136E+02  0.45098594265E+02  0.00000000000E+00 0. -1.
          1    1    5    5  503    0  0.17507317511E+03  0.94227933336E+02 -0.34511238048E+03  0.39828642360E+03  0.00000000000E+00 0. -1.
         -2    1    5    5    0  503  0.17357767214E+03  0.15504635344E+03 -0.24081728168E+03  0.33490527487E+03  0.00000000000E+00 0.  1.
         -3    1    6    6    0  502 -0.29863561829E+03  0.82912849000E+02  0.82590567668E+02  0.32074752518E+03  0.00000000000E+00 0.  1.
<mgrwt>
<rscale>  0 0.15957953E+04</rscale>
<asrwt>0</asrwt>
<pdfrwt beam="1">  1        1 0.13500560E+00 0.15957953E+04</pdfrwt>
<pdfrwt beam="2">  1       -1 0.11161328E+00 0.15957953E+04</pdfrwt>
<totfact> 0.13443181E+01</totfact>
</mgrwt>
</event>
<event>
12    1  0.2502641E-008  0.2265981E+04  0.7818608E-02  0.8491456E-01
         -2   -1    0    0    0  501 -0.00000000000E+00  0.00000000000E+00  0.17144496389E+04  0.17144496389E+04  0.00000000000E+00 0.  1.
          2   -1    0    0  501    0  0.00000000000E+00 -0.00000000000E+00 -0.74873453789E+03  0.74873453789E+03  0.00000000000E+00 0. -1.
         23    2    1    2    0    0 -0.33339751210E+03  0.16412247277E+02  0.13947781165E+04  0.14370090792E+04  0.90365018332E+02 0.  0.
        254    2    1    2    0    0  0.33339751210E+03 -0.16412247277E+02 -0.42906301557E+03  0.10261750975E+04  0.87035452343E+03 0.  0.
        -24    2    4    4    0    0  0.52820926246E+03  0.45152742960E+02  0.10660725989E+02  0.53467851254E+03  0.68728928040E+02 0.  0.
         24    2    4    4    0    0 -0.19481175035E+03 -0.61564990237E+02 -0.43972374156E+03  0.49149658496E+03  0.80436670973E+02 0.  0.
         13    1    3    3    0    0 -0.18233846707E+03 -0.28991548636E+02  0.85205327678E+03  0.87182716919E+03  0.00000000000E+00 0.  1.
        -13    1    3    3    0    0 -0.15105904503E+03  0.45403795913E+02  0.54272483975E+03  0.56518191005E+03  0.00000000000E+00 0. -1.
          4    1    6    6  502    0 -0.15519007562E+03 -0.41131251831E+02 -0.25390977311E+03  0.30040957429E+03  0.00000000000E+00 0. -1.
          1    1    5    5  503    0  0.48818623925E+03  0.35869070203E+02  0.27504297253E+02  0.49027429135E+03  0.00000000000E+00 0. -1.
         -2    1    5    5    0  503  0.40023023204E+02  0.92836727574E+01 -0.16843571264E+02  0.44404221187E+02  0.00000000000E+00 0.  1.
         -3    1    6    6    0  502 -0.39621674740E+02 -0.20433738406E+02 -0.18581396845E+03  0.19108701067E+03  0.00000000000E+00 0.  1.
<mgrwt>
<rscale>  0 0.22659812E+04</rscale>
<asrwt>0</asrwt>
<pdfrwt beam="1">  1        2 0.11518993E+00 0.22659812E+04</pdfrwt>
<pdfrwt beam="2">  1       -2 0.26376148E+00 0.22659812E+04</pdfrwt>
<totfact> 0.18078297E+00</totfact>
</mgrwt>
</event>
<event>
12    1  0.2502641E-008  0.2422630E+04  0.7818608E-02  0.8431080E-01
          1   -1    0    0  501    0  0.00000000000E+00  0.00000000000E+00  0.33381399932E+04  0.33381399932E+04  0.00000000000E+00 0. -1.
         -1   -1    0    0    0  501 -0.00000000000E+00 -0.00000000000E+00 -0.43955128225E+03  0.43955128225E+03  0.00000000000E+00 0.  1.
         23    2    1    2    0    0  0.76134333388E+03  0.61750530852E+01  0.23280471698E+04  0.24510933867E+04  0.91506076776E+02 0.  0.
        254    2    1    2    0    0 -0.76134333388E+03 -0.61750530852E+01  0.57054154120E+03  0.13265978888E+04  0.92447958605E+03 0.  0.
        -24    2    4    4    0    0 -0.92044800959E+03  0.16616431218E+03  0.37058615778E+03  0.10082707892E+04  0.66639080970E+02 0.  0.
         24    2    4    4    0    0  0.15910467570E+03 -0.17233936527E+03  0.19995538342E+03  0.31832709956E+03  0.79591659766E+02 0.  0.
         11    1    3    3    0    0  0.19247389433E+03 -0.21048160064E+02  0.70107989637E+03  0.72732540594E+03  0.00000000000E+00 0.  1.
        -11    1    3    3    0    0  0.56886943956E+03  0.27223213149E+02  0.16269672734E+04  0.17237679807E+04  0.00000000000E+00 0. -1.
          4    1    6    6  502    0  0.58504818864E+02 -0.10648458284E+03  0.65788469329E+02  0.13816621479E+03  0.00000000000E+00 0. -1.
          3    1    5    5  503    0 -0.69943580144E+03  0.15356674917E+03  0.29252151134E+03  0.77353863600E+03  0.00000000000E+00 0. -1.
         -4    1    5    5    0  503 -0.22101220815E+03  0.12597563010E+02  0.78064646441E+02  0.23473215325E+03  0.00000000000E+00 0.  1.
         -3    1    6    6    0  502  0.10059985684E+03 -0.65854782431E+02  0.13416691409E+03  0.18016088478E+03  0.00000000000E+00 0.  1.
<mgrwt>
<rscale>  0 0.24226297E+04</rscale>
<asrwt>0</asrwt>
<pdfrwt beam="1">  1        1 0.51355998E+00 0.24226297E+04</pdfrwt>
<pdfrwt beam="2">  1       -1 0.67623276E-01 0.24226297E+04</pdfrwt>
<totfact> 0.66195936E-01</totfact>
</mgrwt>
</event>
<event>
12    1  0.2502641E-008  0.1421781E+04  0.7818608E-02  0.8938202E-01
          2   -1    0    0  501    0  0.00000000000E+00  0.00000000000E+00  0.10342468150E+04  0.10342468150E+04  0.00000000000E+00 0. -1.
         -2   -1    0    0    0  501 -0.00000000000E+00 -0.00000000000E+00 -0.48863104537E+03  0.48863104537E+03  0.00000000000E+00 0.  1.
         23    2    1    2    0    0  0.20952693950E+03  0.36167165633E+03  0.45393881296E+03  0.62372430600E+03  0.90904557698E+02 0.  0.
        254    2    1    2    0    0 -0.20952693950E+03 -0.36167165633E+03  0.91676956671E+02  0.89915355437E+03  0.79079992702E+03 0.  0.
        -24    2    4    4    0    0 -0.10979138484E+03 -0.57314687431E+03 -0.88772036919E+02  0.59298300485E+03  0.56540974335E+02 0.  0.
         24    2    4    4    0    0 -0.99735554664E+02  0.21147521798E+03  0.18044899359E+03  0.30617054952E+03  0.80682200164E+02 0.  0.
         11    1    3    3    0    0  0.17560337416E+03  0.24370390226E+03  0.36180213584E+03  0.47024347150E+03  0.00000000000E+00 0. -1.
        -11    1    3    3    0    0  0.33923565345E+02  0.11796775408E+03  0.92136677120E+02  0.15348083450E+03  0.00000000000E+00 0.  1.
          2    1    6    6  502    0 -0.84528209681E+02  0.14030621517E+03  0.16352146423E+03  0.23145220135E+03  0.00000000000E+00 0. -1.
          1    1    5    5  503    0 -0.82695456208E+02 -0.45155110634E+03 -0.92769069637E+02  0.46834073109E+03  0.00000000000E+00 0. -1.
         -2    1    5    5    0  503 -0.27095928629E+02 -0.12159576797E+03  0.39970327181E+01  0.12464227376E+03  0.00000000000E+00 0.  1.
         -1    1    6    6    0  502 -0.15207344983E+02  0.71169002815E+02  0.16927529356E+02  0.74718348170E+02  0.00000000000E+00 0.  1.
<mgrwt>
<rscale>  0 0.14217807E+04</rscale>
<asrwt>0</asrwt>
<pdfrwt beam="1">  1        2 0.15911489E+00 0.14217807E+04</pdfrwt>
<pdfrwt beam="2">  1       -2 0.75174007E-01 0.14217807E+04</pdfrwt>
<totfact> 0.36983704E+01</totfact>
</mgrwt>
</event>
<event>
12    1  0.2502641E-008  0.1947149E+04  0.7818608E-02  0.8631737E-01
          2   -1    0    0  501    0  0.00000000000E+00  0.00000000000E+00  0.41165412206E+04  0.41165412206E+04  0.00000000000E+00 0. -1.
         -2   -1    0    0    0  501 -0.00000000000E+00 -0.00000000000E+00 -0.23025337586E+03  0.23025337586E+03  0.00000000000E+00 0.  1.
         23    2    1    2    0    0 -0.38668881995E+01 -0.57788775525E+03  0.26351061363E+04  0.26992953519E+04  0.91879467046E+02 0.  0.
        254    2    1    2    0    0  0.38668881995E+01  0.57788775525E+03  0.12511817084E+04  0.16474992446E+04  0.90267872632E+03 0.  0.
        -24    2    4    4    0    0 -0.30400843329E+03  0.66833485706E+03  0.82299598419E+03  0.11067259870E+04  0.91800934888E+02 0.  0.
         24    2    4    4    0    0  0.30787532149E+03 -0.90447101803E+02  0.42818572424E+03  0.54077325760E+03  0.78261164583E+02 0.  0.
         13    1    3    3    0    0 -0.37165418010E+02 -0.32148302703E+03  0.15984349257E+04  0.16308668911E+04  0.00000000000E+00 0. -1.
        -13    1    3    3    0    0  0.33298529811E+02 -0.25640472822E+03  0.10366712107E+04  0.10684284607E+04  0.00000000000E+00 0.  1.
          2    1    6    6  502    0  0.84275420528E+02 -0.60120821175E+02  0.11450697578E+03  0.15436549856E+03  0.00000000000E+00 0. -1.
          3    1    5    5  503    0 -0.92032616301E+02  0.29276700373E+03  0.30453478226E+03  0.43234703022E+03  0.00000000000E+00 0. -1.
         -4    1    5    5    0  503 -0.21197581699E+03  0.37556785332E+03  0.51846120193E+03  0.67437895678E+03  0.00000000000E+00 0.  1.
         -1    1    6    6    0  502  0.22359990096E+03 -0.30326280628E+02  0.31367874846E+03  0.38640775904E+03  0.00000000000E+00 0.  1.
<mgrwt>
<rscale>  0 0.19471492E+04</rscale>
<asrwt>0</asrwt>
<pdfrwt beam="1">  1        2 0.63331398E+00 0.19471492E+04</pdfrwt>
<pdfrwt beam="2">  1       -2 0.35423599E-01 0.19471492E+04</pdfrwt>
<totfact> 0.19393651E+00</totfact>
</mgrwt>
</event>
<event>
11    1  0.2502641E-008  0.1758568E+04  0.7818608E-02  0.8728648E-01
         -1   -1    0    0    0  501 -0.00000000000E+00  0.00000000000E+00  0.31586168505E+04  0.31586168505E+04  0.00000000000E+00 0.  1.
          1   -1    0    0  501    0  0.00000000000E+00 -0.00000000000E+00 -0.24477185388E+03  0.24477185388E+03  0.00000000000E+00 0. -1.
         23    2    1    2    0    0  0.19589047970E+03 -0.13717543576E+03  0.21400027634E+04  0.21550920954E+04  0.87292222011E+02 0.  0.
        254    2    1    2    0    0 -0.19589047970E+03  0.13717543576E+03  0.77384223327E+03  0.12482966090E+04  0.94985390557E+03 0.  0.
         24    2    4    4    0    0 -0.37472656527E+03 -0.16135956171E+03  0.75807070137E+03  0.86459829047E+03  0.80013178488E+02 0.  0.
         13    1    3    3    0    0  0.26772368728E+02 -0.65281711813E+02  0.63784435702E+03  0.64173505858E+03  0.00000000000E+00 0. -1.
        -13    1    3    3    0    0  0.16911811097E+03 -0.71893723943E+02  0.15021584064E+04  0.15133570368E+04  0.00000000000E+00 0.  1.
          2    1    5    5  502    0 -0.33183045825E+03 -0.16705379300E+03  0.69579850777E+03  0.78876738408E+03  0.00000000000E+00 0. -1.
          3    1    4    4  503    0  0.92699495476E+02  0.24216372145E+02  0.63236184349E+01  0.96018838211E+02  0.00000000000E+00 0. -1.
         -4    1    4    4    0  503  0.86136590094E+02  0.27431862532E+03  0.94479134653E+01  0.28767948036E+03  0.00000000000E+00 0.  1.
         -1    1    5    5    0  502 -0.42896107024E+02  0.56942312903E+01  0.62272193599E+02  0.75830906387E+02  0.00000000000E+00 0.  1.
<mgrwt>
<rscale>  0 0.17585682E+04</rscale>
<asrwt>0</asrwt>
<pdfrwt beam="1">  1        1 0.37657211E-01 0.17585682E+04</pdfrwt>
<pdfrwt beam="2">  1       -1 0.48594102E+00 0.17585682E+04</pdfrwt>
<totfact> 0.19933562E-01</totfact>
</mgrwt>
</event>
<event>
11    1  0.2502641E-008  0.2652135E+04  0.7818608E-02  0.8350705E-01
         -2   -1    0    0    0  501 -0.00000000000E+00  0.00000000000E+00  0.82915523689E+03  0.82915523689E+03  0.00000000000E+00 0.  1.
          2   -1    0    0  501    0  0.00000000000E+00 -0.00000000000E+00 -0.21207785743E+04  0.21207785743E+04  0.00000000000E+00 0. -1.
         23    2    1    2    0    0  0.44205525272E+03  0.19177614092E+03  0.61364949614E+03  0.78539772679E+03  0.89960827308E+02 0.  0.
        254    2    1    2    0    0 -0.44205525272E+03 -0.19177614092E+03 -0.19052728335E+04  0.21645360844E+04  0.90717195487E+03 0.  0.
         24    2    4    4    0    0 -0.33654408899E+03 -0.12585951293E+03 -0.19539368202E+04  0.19883352189E+04  0.80655467913E+02 0.  0.
         13    1    3    3    0    0  0.36668785427E+03  0.13406487259E+03  0.53386316746E+03  0.66139493051E+03  0.00000000000E+00 0.  1.
        -13    1    3    3    0    0  0.75367398453E+02  0.57711268331E+02  0.79786328683E+02  0.12400279629E+03  0.00000000000E+00 0. -1.
          4    1    5    5  502    0 -0.18972005142E+03 -0.10419014382E+03 -0.12880342902E+04  0.13060940306E+04  0.00000000000E+00 0. -1.
          1    1    4    4  503    0 -0.25109499349E+02 -0.53682566571E+02  0.70395044133E+02  0.92020471362E+02  0.00000000000E+00 0. -1.
         -2    1    4    4    0  503 -0.80401664383E+02 -0.12234061418E+02 -0.21731057440E+02  0.84180394106E+02  0.00000000000E+00 0.  1.
         -3    1    5    5    0  502 -0.14682403756E+03 -0.21669369114E+02 -0.66590253002E+03  0.68224118833E+03  0.00000000000E+00 0.  1.
<mgrwt>
<rscale>  0 0.26521347E+04</rscale>
<asrwt>0</asrwt>
<pdfrwt beam="1">  1        2 0.32627362E+00 0.26521347E+04</pdfrwt>
<pdfrwt beam="2">  1       -2 0.12756235E+00 0.26521347E+04</pdfrwt>
<totfact> 0.22954636E+00</totfact>
</mgrwt>
</event>
<event>
11    1  0.2502641E-008  0.1753217E+04  0.7818608E-02  0.8731582E-01
         -1   -1    0    0    0  501 -0.00000000000E+00  0.00000000000E+00  0.67894694287E+03  0.67894694287E+03  0.00000000000E+00 0.  1.
          1   -1    0    0  501    0  0.00000000000E+00 -0.00000000000E+00 -0.11318151119E+04  0.11318151119E+04  0.00000000000E+00 0. -1.
         23    2    1    2    0    0  0.53097343824E+03 -0.16352626156E+03 -0.50005105268E+03  0.75311037271E+03  0.91926861408E+02 0.  0.
        254    2    1    2    0    0 -0.53097343824E+03  0.16352626156E+03  0.47182883703E+02  0.10576516820E+04  0.89873646060E+03 0.  0.
         24    2    4    4    0    0 -0.46176648056E+03  0.38182589067E+03  0.19438146507E+03  0.63470613907E+03  0.77771689325E+02 0.  0.
         13    1    3    3    0    0  0.84534638795E+02 -0.38875260874E+02 -0.13068504648E+03  0.16042435114E+03  0.00000000000E+00 0.  1.
        -13    1    3    3    0    0  0.44643879945E+03 -0.12465100068E+03 -0.36936600620E+03  0.59268602157E+03  0.00000000000E+00 0. -1.
          4    1    5    5  502    0 -0.39694884440E+03  0.35766724302E+03  0.16204959828E+03  0.55834963428E+03  0.00000000000E+00 0. -1.
          3    1    4    4  503    0 -0.22129915016E+02 -0.30073863697E+03 -0.11369330438E+03  0.32227259946E+03  0.00000000000E+00 0. -1.
         -4    1    4    4    0  503 -0.47077042667E+02  0.82439007856E+02 -0.33505276990E+02  0.10067294348E+03  0.00000000000E+00 0.  1.
         -3    1    5    5    0  502 -0.64817636160E+02  0.24158647646E+02  0.32331866793E+02  0.76356504790E+02  0.00000000000E+00 0.  1.
<mgrwt>
<rscale>  0 0.17532169E+04</rscale>
<asrwt>0</asrwt>
<pdfrwt beam="1">  1        1 0.17412540E+00 0.17532169E+04</pdfrwt>
<pdfrwt beam="2">  1       -1 0.10445338E+00 0.17532169E+04</pdfrwt>
<totfact> 0.97989943E+00</totfact>
</mgrwt>
</event>
<event>
11    1  0.2502641E-008  0.1960770E+04  0.7818608E-02  0.8625185E-01
          2   -1    0    0  501    0  0.00000000000E+00  0.00000000000E+00  0.34816569017E+04  0.34816569017E+04  0.00000000000E+00 0. -1.
         -2   -1    0    0    0  501 -0.00000000000E+00 -0.00000000000E+00 -0.27606255978E+03  0.27606255978E+03  0.00000000000E+00 0.  1.
         23    2    1    2    0    0  0.32724377290E+03 -0.67161522612E+03  0.16489651219E+04  0.18126281612E+04  0.91538946313E+02 0.  0.
        254    2    1    2    0    0 -0.32724377290E+03  0.67161522612E+03  0.15566292200E+04  0.19450913002E+04  0.89561718321E+03 0.  0.
         24    2    4    4    0    0  0.20046892550E+03  0.11653652267E+03  0.11300673543E+03  0.27037032647E+03  0.81000246793E+02 0.  0.
         13    1    3    3    0    0  0.38697022907E+02 -0.38585958810E+02  0.86999733103E+02  0.10273893789E+03  0.00000000000E+00 0. -1.
        -13    1    3    3    0    0  0.28854675000E+03 -0.63302926731E+03  0.15619653888E+04  0.17098892233E+04  0.00000000000E+00 0.  1.
          2    1    5    5  502    0  0.14480028852E+03  0.87649020126E+02  0.39623582730E+02  0.17383757532E+03  0.00000000000E+00 0. -1.
          3    1    4    4  503    0 -0.36995899019E+03  0.48056859613E+03  0.13423413261E+04  0.14729888206E+04  0.00000000000E+00 0. -1.
         -4    1    4    4    0  503 -0.15775370821E+03  0.74510107328E+02  0.10128115852E+03  0.20173215316E+03  0.00000000000E+00 0.  1.
         -1    1    5    5    0  502  0.55668636978E+02  0.28887502544E+02  0.73383152696E+02  0.96532751156E+02  0.00000000000E+00 0.  1.
<mgrwt>
<rscale>  0 0.19607704E+04</rscale>
<asrwt>0</asrwt>
<pdfrwt beam="1">  1        2 0.53563949E+00 0.19607704E+04</pdfrwt>
<pdfrwt beam="2">  1       -2 0.42471166E-01 0.19607704E+04</pdfrwt>
<totfact> 0.41255926E+00</totfact>
</mgrwt>
</event>
<event>
12    1  0.2502641E-008  0.1864540E+04  0.7818608E-02  0.8672711E-01
         -1   -1    0    0    0  501 -0.00000000000E+00  0.00000000000E+00  0.77338943380E+03  0.77338943380E+03  0.00000000000E+00 0.  1.
          1   -1    0    0  501    0  0.00000000000E+00 -0.00000000000E+00 -0.11237896351E+04  0.11237896351E+04  0.00000000000E+00 0. -1.
         23    2    1    2    0    0  0.26320636136E+02  0.45497261994E+03  0.42156714157E+03  0.62744894214E+03  0.90997029448E+02 0.  0.
        254    2    1    2    0    0 -0.26320636136E+02 -0.45497261994E+03 -0.77196734287E+03  0.12697301267E+04  0.89921529988E+03 0.  0.
        -24    2    4    4    0    0  0.53857930962E+02  0.18750828978E+03 -0.53848190071E+03  0.57669421671E+03  0.67479083621E+02 0.  0.
         24    2    4    4    0    0 -0.80178567098E+02 -0.64248090972E+03 -0.23348544215E+03  0.69303591004E+03  0.81074033583E+02 0.  0.
         11    1    3    3    0    0  0.76946595906E+01  0.42421668455E+03  0.40910425623E+03  0.58939400719E+03  0.00000000000E+00 0.  1.
        -11    1    3    3    0    0  0.18625976545E+02  0.30755935389E+02  0.12462885332E+02  0.38054934959E+02  0.00000000000E+00 0. -1.
          2    1    6    6  502    0 -0.26547888617E+02 -0.13020132591E+03 -0.15691589787E+02  0.13380359355E+03  0.00000000000E+00 0. -1.
          3    1    5    5  503    0  0.66548346752E+01  0.75371720030E+02 -0.12935219252E+03  0.14985717439E+03  0.00000000000E+00 0. -1.
         -4    1    5    5    0  503  0.47203096287E+02  0.11213656975E+03 -0.40912970819E+03  0.42683704232E+03  0.00000000000E+00 0.  1.
         -1    1    6    6    0  502 -0.53630678481E+02 -0.51227958382E+03 -0.21779385237E+03  0.55923231648E+03  0.00000000000E+00 0.  1.
<mgrwt>
<rscale>  0 0.18645397E+04</rscale>
<asrwt>0</asrwt>
<pdfrwt beam="1">  1        1 0.17289071E+00 0.18645397E+04</pdfrwt>
<pdfrwt beam="2">  1       -1 0.11898299E+00 0.18645397E+04</pdfrwt>
<totfact> 0.72189178E+00</totfact>
</mgrwt>
</event>
<event>
11    1  0.2502641E-008  0.2322636E+04  0.7818608E-02  0.8469049E-01
         -1   -1    0    0    0  501 -0.00000000000E+00  0.00000000000E+00  0.81808755910E+03  0.81808755910E+03  0.00000000000E+00 0.  1.
          1   -1    0    0  501    0  0.00000000000E+00 -0.00000000000E+00 -0.16485515182E+04  0.16485515182E+04  0.00000000000E+00 0. -1.
         23    2    1    2    0    0 -0.34822139934E+03 -0.34926476264E+02 -0.13415641157E+04  0.13896769639E+04  0.94497543576E+02 0.  0.
        254    2    1    2    0    0  0.34822139934E+03  0.34926476264E+02  0.51110015657E+03  0.10769621134E+04  0.88099149941E+03 0.  0.
         24    2    4    4    0    0  0.23373353370E+03  0.30282106879E+03 -0.72674149779E+02  0.39752842237E+03  0.80095880467E+02 0.  0.
         13    1    3    3    0    0 -0.16520039503E+03 -0.48575830189E+02 -0.78387994836E+03  0.80256996907E+03  0.00000000000E+00 0. -1.
        -13    1    3    3    0    0 -0.18302100431E+03  0.13649353925E+02 -0.55768416734E+03  0.58710699483E+03  0.00000000000E+00 0.  1.
          4    1    5    5  502    0  0.24786411913E+02  0.31867991952E+02 -0.34756462351E+02  0.53272383106E+02  0.00000000000E+00 0. -1.
          1    1    4    4  503    0 -0.65009658603E+01  0.25151928021E+02  0.80831953524E+02  0.84903985483E+02  0.00000000000E+00 0. -1.
         -2    1    4    4    0  503  0.12098883150E+03 -0.29304652055E+03  0.50294235283E+03  0.59452970558E+03  0.00000000000E+00 0.  1.
         -3    1    5    5    0  502  0.20894712179E+03  0.27095307684E+03 -0.37917687428E+02  0.34425603927E+03  0.00000000000E+00 0.  1.
<mgrwt>
<rscale>  0 0.23226360E+04</rscale>
<asrwt>0</asrwt>
<pdfrwt beam="1">  1        1 0.25362331E+00 0.23226360E+04</pdfrwt>
<pdfrwt beam="2">  1       -1 0.12585963E+00 0.23226360E+04</pdfrwt>
<totfact> 0.25648070E+00</totfact>
</mgrwt>
</event>
<event>
12    1  0.2502641E-008  0.1283526E+04  0.7818608E-02  0.9042732E-01
         -2   -1    0    0    0  501 -0.00000000000E+00  0.00000000000E+00  0.20157288063E+03  0.20157288063E+03  0.00000000000E+00 0.  1.
          2   -1    0    0  501    0  0.00000000000E+00 -0.00000000000E+00 -0.20432292310E+04  0.20432292310E+04  0.00000000000E+00 0. -1.
         23    2    1    2    0    0 -0.20849351515E+03  0.22603755655E+03 -0.49289873236E+03  0.58785579803E+03  0.89792850975E+02 0.  0.
        254    2    1    2    0    0  0.20849351515E+03 -0.22603755655E+03 -0.13487576180E+04  0.16569463136E+04  0.91200956750E+03 0.  0.
        -24    2    4    4    0    0  0.17300848611E+03 -0.41487332537E+03 -0.21240241034E+03  0.50172251614E+03  0.67519529921E+02 0.  0.
         24    2    4    4    0    0  0.35485029034E+02  0.18883576882E+03 -0.11363552077E+04  0.11552237975E+04  0.79503014617E+02 0.  0.
         13    1    3    3    0    0 -0.33301345745E+02  0.77273086487E+02 -0.18856498436E+03  0.20648695564E+03  0.00000000000E+00 0. -1.
        -13    1    3    3    0    0 -0.17519216940E+03  0.14876447006E+03 -0.30433374800E+03  0.38136884239E+03  0.00000000000E+00 0.  1.
          4    1    6    6  502    0  0.20274228411E+02  0.14553118585E+02 -0.64033798530E+02  0.68725286121E+02  0.00000000000E+00 0. -1.
          3    1    5    5  503    0  0.32324520284E+02 -0.61681120891E+02 -0.80500814855E+01  0.70101634060E+02  0.00000000000E+00 0. -1.
         -4    1    5    5    0  503  0.14068396583E+03 -0.35319220448E+03 -0.20435232885E+03  0.43162088208E+03  0.00000000000E+00 0.  1.
         -3    1    6    6    0  502  0.15210800623E+02  0.17428265024E+03 -0.10723214092E+04  0.10864985114E+04  0.00000000000E+00 0.  1.
<mgrwt>
<rscale>  0 0.12835258E+04</rscale>
<asrwt>0</asrwt>
<pdfrwt beam="1">  1        2 0.31434297E+00 0.12835258E+04</pdfrwt>
<pdfrwt beam="2">  1       -2 0.31011211E-01 0.12835258E+04</pdfrwt>
<totfact> 0.59844512E+01</totfact>
</mgrwt>
</event>
<event>
11    1  0.2502641E-008  0.2092864E+04  0.7818608E-02  0.8564393E-01
         -1   -1    0    0    0  501 -0.00000000000E+00  0.00000000000E+00  0.62779467784E+03  0.62779467784E+03  0.00000000000E+00 0.  1.
          1   -1    0    0  501    0  0.00000000000E+00 -0.00000000000E+00 -0.17442325923E+04  0.17442325923E+04  0.00000000000E+00 0. -1.
         23    2    1    2    0    0 -0.23339585577E+03  0.80808162427E+03 -0.66533979993E+03  0.10761959523E+04  0.89728152383E+02 0.  0.
        254    2    1    2    0    0  0.23339585577E+03 -0.80808162427E+03 -0.45109811452E+03  0.12958313179E+04  0.87648146499E+03 0.  0.
         24    2    4    4    0    0  0.24154496485E+02 -0.58544952539E+03  0.92699060180E+02  0.59728090663E+03  0.69403019991E+02 0.  0.
         11    1    3    3    0    0 -0.23285652211E+03  0.69865211556E+03 -0.57686922087E+03  0.93547583424E+03  0.00000000000E+00 0. -1.
        -11    1    3    3    0    0 -0.53933366110E+00  0.10942950871E+03 -0.88470579061E+02  0.14072011802E+03  0.00000000000E+00 0.  1.
          2    1    5    5  502    0  0.14816109638E+01 -0.48575110416E+03  0.57486198603E+02  0.48914312158E+03  0.00000000000E+00 0. -1.
          1    1    4    4  503    0  0.20367704577E+03  0.93870957133E+01 -0.21740444370E+03  0.29805561340E+03  0.00000000000E+00 0. -1.
         -2    1    4    4    0  503  0.55643135154E+01 -0.23201919460E+03 -0.32639273100E+03  0.40049479784E+03  0.00000000000E+00 0.  1.
         -1    1    5    5    0  502  0.22672885522E+02 -0.99698421232E+02  0.35212861576E+02  0.10813778504E+03  0.00000000000E+00 0.  1.
<mgrwt>
<rscale>  0 0.20928640E+04</rscale>
<asrwt>0</asrwt>
<pdfrwt beam="1">  1        1 0.26834347E+00 0.20928640E+04</pdfrwt>
<pdfrwt beam="2">  1       -1 0.96583797E-01 0.20928640E+04</pdfrwt>
<totfact> 0.42202189E+00</totfact>
</mgrwt>
</event>
<event>
11    1  0.2502641E-008  0.2821918E+04  0.7818608E-02  0.8296496E-01
         -2   -1    0    0    0  501 -0.00000000000E+00  0.00000000000E+00  0.75784868533E+03  0.75784868533E+03  0.00000000000E+00 0. -1.
          2   -1    0    0  501    0  0.00000000000E+00 -0.00000000000E+00 -0.26269167467E+04  0.26269167467E+04  0.00000000000E+00 0.  1.
         23    2    1    2    0    0 -0.21967801368E+03 -0.79176121133E+03 -0.20023343558E+04  0.21662899698E+04  0.91242069994E+02 0.  0.
        254    2    1    2    0    0  0.21967801368E+03  0.79176121133E+03  0.13326629445E+03  0.12184754622E+04  0.88981925206E+03 0.  0.
         24    2    4    4    0    0  0.10250202617E+02  0.64809623213E+03  0.24080576335E+03  0.69597932822E+03  0.79158176383E+02 0.  0.
         11    1    3    3    0    0 -0.22650214858E+03 -0.78528783807E+03 -0.19809216191E+04  0.21429023946E+04  0.00000000000E+00 0.  1.
        -11    1    3    3    0    0  0.68241349002E+01 -0.64733732589E+01 -0.21412736759E+02  0.23387575205E+02  0.00000000000E+00 0. -1.
          2    1    5    5  502    0 -0.12984213190E+02  0.21476203464E+03  0.44599638433E+02  0.21972812533E+03  0.00000000000E+00 0. -1.
          1    1    4    4  503    0  0.27625636858E+03  0.83339197937E+02  0.92593745023E+02  0.30304554890E+03  0.00000000000E+00 0. -1.
         -2    1    4    4    0  503 -0.66828557517E+02  0.60325781255E+02 -0.20013321392E+03  0.21945058510E+03  0.00000000000E+00 0.  1.
         -1    1    5    5    0  502  0.23234415806E+02  0.43333419750E+03  0.19620612492E+03  0.47625120289E+03  0.00000000000E+00 0.  1.
<mgrwt>
<rscale>  0 0.28219181E+04</rscale>
<asrwt>0</asrwt>
<pdfrwt beam="1">  1        2 0.40414104E+00 0.28219181E+04</pdfrwt>
<pdfrwt beam="2">  1       -2 0.11659211E+00 0.28219181E+04</pdfrwt>
<totfact> 0.14526333E+00</totfact>
</mgrwt>
</event>
<event>
11    1  0.2502641E-008  0.2877770E+04  0.7818608E-02  0.8279522E-01
         -1   -1    0    0    0  501 -0.00000000000E+00  0.00000000000E+00  0.10805703349E+04  0.10805703349E+04  0.00000000000E+00 0.  1.
          1   -1    0    0  501    0  0.00000000000E+00 -0.00000000000E+00 -0.19160159200E+04  0.19160159200E+04  0.00000000000E+00 0. -1.
         23    2    1    2    0    0 -0.49764764775E+03 -0.29538850456E+03 -0.15874808928E+04  0.16920540434E+04  0.89686959427E+02 0.  0.
        254    2    1    2    0    0  0.49764764775E+03  0.29538850456E+03  0.75203530765E+03  0.13045322115E+04  0.89517575759E+03 0.  0.
         24    2    4    4    0    0  0.63795656905E+03 -0.27023416935E+02  0.65412775865E+03  0.91741482422E+03  0.77768798390E+02 0.  0.
         11    1    3    3    0    0 -0.18165827127E+03 -0.69981879561E+02 -0.61078785994E+03  0.64106084020E+03  0.00000000000E+00 0. -1.
        -11    1    3    3    0    0 -0.31598937648E+03 -0.22540662499E+03 -0.97669303289E+03  0.10509932032E+04  0.00000000000E+00 0.  1.
          2    1    5    5  502    0  0.44592271391E+03 -0.27205277304E+02  0.50520148988E+03  0.67440028119E+03  0.00000000000E+00 0. -1.
          1    1    4    4  503    0  0.88385997297E+01  0.22252097282E+02 -0.20625766211E+02  0.31602197873E+02  0.00000000000E+00 0. -1.
         -2    1    4    4    0  503 -0.14914752102E+03  0.30015982421E+03  0.11853331521E+03  0.35551518942E+03  0.00000000000E+00 0.  1.
         -1    1    5    5    0  502  0.19203385514E+03  0.18186036942E+00  0.14892626877E+03  0.24301454302E+03  0.00000000000E+00 0.  1.
<mgrwt>
<rscale>  0 0.28777699E+04</rscale>
<asrwt>0</asrwt>
<pdfrwt beam="1">  1        1 0.29477168E+00 0.28777699E+04</pdfrwt>
<pdfrwt beam="2">  1       -1 0.16624159E+00 0.28777699E+04</pdfrwt>
<totfact> 0.76658767E-01</totfact>
</mgrwt>
</event>
<event>
12    1  0.2502641E-008  0.1422724E+04  0.7818608E-02  0.8937532E-01
         -2   -1    0    0    0  501 -0.00000000000E+00  0.00000000000E+00  0.24238573311E+03  0.24238573311E+03  0.00000000000E+00 0.  1.
          2   -1    0    0  501    0  0.00000000000E+00 -0.00000000000E+00 -0.20877305157E+04  0.20877305157E+04  0.00000000000E+00 0. -1.
         23    2    1    2    0    0  0.40458873294E+03  0.10352596186E+03 -0.61507423765E+03  0.74924334251E+03  0.92949453314E+02 0.  0.
        254    2    1    2    0    0 -0.40458873294E+03 -0.10352596186E+03 -0.12302705450E+04  0.15808729063E+04  0.90065746239E+03 0.  0.
        -24    2    4    4    0    0  0.61734659695E+02 -0.10240725527E+03 -0.10704962249E+04  0.10815603281E+04  0.97530312381E+02 0.  0.
         24    2    4    4    0    0 -0.46632339264E+03 -0.11187065910E+01 -0.15977432010E+03  0.49931257818E+03  0.79539042886E+02 0.  0.
         13    1    3    3    0    0  0.39544995402E+03  0.91275356524E+02 -0.61085746984E+03  0.73338850912E+03  0.00000000000E+00 0. -1.
        -13    1    3    3    0    0  0.91387789172E+01  0.12250605332E+02 -0.42167678105E+01  0.15854833391E+02  0.00000000000E+00 0.  1.
          2    1    6    6  502    0 -0.71964227570E+02 -0.21733696020E+02 -0.46881451968E+02  0.88595000599E+02  0.00000000000E+00 0. -1.
          1    1    5    5  503    0  0.34615825339E+02 -0.19790084788E+01 -0.10729625895E+03  0.11275929684E+03  0.00000000000E+00 0. -1.
         -2    1    5    5    0  503  0.27118834356E+02 -0.10042824679E+03 -0.96319996591E+03  0.96880103131E+03  0.00000000000E+00 0.  1.
         -1    1    6    6    0  502 -0.39435916507E+03  0.20614989429E+02 -0.11289286813E+03  0.41071757758E+03  0.00000000000E+00 0.  1.
<mgrwt>
<rscale>  0 0.14227243E+04</rscale>
<asrwt>0</asrwt>
<pdfrwt beam="1">  1        2 0.32118933E+00 0.14227243E+04</pdfrwt>
<pdfrwt beam="2">  1       -2 0.37290111E-01 0.14227243E+04</pdfrwt>
<totfact> 0.39365504E+01</totfact>
</mgrwt>
</event>
<event>
11    1  0.2502641E-008  0.2058478E+04  0.7818608E-02  0.8579758E-01
         -1   -1    0    0    0  501 -0.00000000000E+00  0.00000000000E+00  0.28614844323E+03  0.28614844323E+03  0.00000000000E+00 0.  1.
          1   -1    0    0  501    0  0.00000000000E+00 -0.00000000000E+00 -0.37020408867E+04  0.37020408867E+04  0.00000000000E+00 0. -1.
         23    2    1    2    0    0  0.25723667870E+03  0.53730773874E+03 -0.24612115412E+04  0.25338431940E+04  0.89043618418E+02 0.  0.
        254    2    1    2    0    0 -0.25723667870E+03 -0.53730773874E+03 -0.95468090225E+03  0.14543461360E+04  0.92132336510E+03 0.  0.
         24    2    4    4    0    0 -0.21049396426E+03  0.18418571916E+03 -0.54046712341E+03  0.61324774716E+03  0.75736383428E+02 0.  0.
         13    1    3    3    0    0  0.68283817300E+02  0.22877754695E+03 -0.10753638069E+04  0.11015485296E+04  0.00000000000E+00 0.  1.
        -13    1    3    3    0    0  0.18895286140E+03  0.30853019179E+03 -0.13858477343E+04  0.14322946644E+04  0.00000000000E+00 0. -1.
          4    1    5    5  502    0 -0.21954329004E+02  0.59807038837E+01 -0.95514686450E+02  0.98187660673E+02  0.00000000000E+00 0. -1.
          3    1    4    4  503    0  0.26669675098E+02 -0.12827754246E+03 -0.10625110599E+03  0.16868816495E+03  0.00000000000E+00 0. -1.
         -4    1    4    4    0  503 -0.73412389532E+02 -0.59321591544E+03 -0.30796267286E+03  0.67241022385E+03  0.00000000000E+00 0.  1.
         -3    1    5    5    0  502 -0.18853963526E+03  0.17820501528E+03 -0.44495243696E+03  0.51506008648E+03  0.00000000000E+00 0.  1.
<mgrwt>
<rscale>  0 0.20584783E+04</rscale>
<asrwt>0</asrwt>
<pdfrwt beam="1">  1        1 0.56954477E+00 0.20584783E+04</pdfrwt>
<pdfrwt beam="2">  1       -1 0.44022836E-01 0.20584783E+04</pdfrwt>
<totfact> 0.81357106E-01</totfact>
</mgrwt>
</event>
<event>
12    1  0.2502641E-008  0.2055962E+04  0.7818608E-02  0.8580894E-01
          1   -1    0    0  501    0  0.00000000000E+00  0.00000000000E+00  0.12723334064E+04  0.12723334064E+04  0.00000000000E+00 0. -1.
         -1   -1    0    0    0  501 -0.00000000000E+00 -0.00000000000E+00 -0.83055669270E+03  0.83055669270E+03  0.00000000000E+00 0.  1.
         23    2    1    2    0    0 -0.19343804834E+03  0.80497953844E+03  0.12659032383E+03  0.84234353702E+03  0.90039926825E+02 0.  0.
        254    2    1    2    0    0  0.19343804834E+03 -0.80497953844E+03  0.31518638988E+03  0.12605465621E+04  0.89678583786E+03 0.  0.
        -24    2    4    4    0    0  0.48313348913E+03 -0.44288446308E+03  0.41593480094E+03  0.77934561328E+03  0.69377304209E+02 0.  0.
         24    2    4    4    0    0 -0.28969544078E+03 -0.36209507535E+03 -0.10074841106E+03  0.48120094881E+03  0.79798614029E+02 0.  0.
         11    1    3    3    0    0 -0.17502013522E+03  0.59283164015E+03  0.11755322324E+03  0.62920597707E+03  0.00000000000E+00 0.  1.
        -11    1    3    3    0    0 -0.18417913125E+02  0.21214789829E+03  0.90371005888E+01  0.21313755995E+03  0.00000000000E+00 0. -1.
          2    1    6    6  502    0 -0.16206520699E+03 -0.20180178497E+03 -0.15531676201E+02  0.25928811137E+03  0.00000000000E+00 0. -1.
          3    1    5    5  503    0  0.16606201628E+03 -0.10915328483E+03  0.12323899435E+03  0.23383516110E+03  0.00000000000E+00 0. -1.
         -4    1    5    5    0  503  0.31707147285E+03 -0.33373117825E+03  0.29269580660E+03  0.54551045217E+03  0.00000000000E+00 0.  1.
         -1    1    6    6    0  502 -0.12763023380E+03 -0.16029329039E+03 -0.85216734864E+02  0.22191283745E+03  0.00000000000E+00 0.  1.
<mgrwt>
<rscale>  0 0.20559621E+04</rscale>
<asrwt>0</asrwt>
<pdfrwt beam="1">  1        1 0.19574360E+00 0.20559621E+04</pdfrwt>
<pdfrwt beam="2">  1       -1 0.12777795E+00 0.20559621E+04</pdfrwt>
<totfact> 0.46305050E+00</totfact>
</mgrwt>
</event>
<event>
12    1  0.3830728E-008  0.2424231E+04  0.7818608E-02  0.8430487E-01
         -1   -1    0    0    0  501 -0.00000000000E+00  0.00000000000E+00  0.95862122044E+03  0.95862122044E+03  0.00000000000E+00 0.  1.
          1   -1    0    0  501    0  0.00000000000E+00 -0.00000000000E+00 -0.15326431217E+04  0.15326431217E+04  0.00000000000E+00 0. -1.
         23    2    1    2    0    0 -0.17975962783E+03  0.38195972573E+03  0.73194985454E+03  0.85285468653E+03  0.11577465569E+03 0.  0.
        254    2    1    2    0    0  0.17975962783E+03 -0.38195972573E+03 -0.13059717558E+04  0.16384096556E+04  0.89477215914E+03 0.  0.
        -24    2    4    4    0    0 -0.23312016898E+03  0.83613932594E+02 -0.10636842501E+03  0.28454200632E+03  0.91178992165E+02 0.  0.
         24    2    4    4    0    0  0.41287979681E+03 -0.46557365832E+03 -0.11996033307E+04  0.13538676492E+04  0.81736788682E+02 0.  0.
         11    1    3    3    0    0 -0.96145264054E+02  0.31444253104E+03  0.52050240384E+03  0.61566287002E+03  0.00000000000E+00 0.  1.
        -11    1    3    3    0    0 -0.83614363777E+02  0.67517194687E+02  0.21144745070E+03  0.23719181650E+03  0.00000000000E+00 0. -1.
          4    1    6    6  502    0  0.24892713872E+03 -0.21994483489E+03 -0.64858759691E+03  0.72870180571E+03  0.00000000000E+00 0. -1.
          1    1    5    5  503    0 -0.15525711162E+03  0.11477687148E+02 -0.45540013383E+02  0.16220481136E+03  0.00000000000E+00 0. -1.
         -2    1    5    5    0  503 -0.77863057361E+02  0.72136245445E+02 -0.60828411630E+02  0.12233719496E+03  0.00000000000E+00 0.  1.
         -3    1    6    6    0  502  0.16395265810E+03 -0.24562882343E+03 -0.55101573383E+03  0.62516584354E+03  0.00000000000E+00 0.  1.
<mgrwt>
<rscale>  0 0.24242312E+04</rscale>
<asrwt>0</asrwt>
<pdfrwt beam="1">  1        1 0.23579125E+00 0.24242312E+04</pdfrwt>
<pdfrwt beam="2">  1       -1 0.14748019E+00 0.24242312E+04</pdfrwt>
<totfact> 0.20278543E+00</totfact>
</mgrwt>
</event>
<event>
11    1  0.2502641E-008  0.1996520E+04  0.7818608E-02  0.8608250E-01
         -2   -1    0    0    0  501 -0.00000000000E+00  0.00000000000E+00  0.13862414476E+04  0.13862414476E+04  0.00000000000E+00 0.  1.
          2   -1    0    0  501    0  0.00000000000E+00 -0.00000000000E+00 -0.71886662752E+03  0.71886662752E+03  0.00000000000E+00 0. -1.
         23    2    1    2    0    0 -0.18840677702E+03  0.83351353577E+02  0.10778748205E+04  0.11011306229E+04  0.90719116818E+02 0.  0.
        254    2    1    2    0    0  0.18840677702E+03 -0.83351353577E+02 -0.41050000050E+03  0.10039774522E+04  0.89275747677E+03 0.  0.
         24    2    4    4    0    0  0.21319579726E+03  0.65579942088E+02 -0.33702316769E+03  0.41214490024E+03  0.80781349697E+02 0.  0.
         11    1    3    3    0    0  0.41127364602E+01 -0.17125684592E+01  0.20387194481E+01  0.48993743383E+01  0.00000000000E+00 0. -1.
        -11    1    3    3    0    0 -0.19251951348E+03  0.85063922036E+02  0.10758361011E+04  0.10962312486E+04  0.00000000000E+00 0.  1.
          4    1    5    5  502    0  0.45138428518E+02  0.19368429746E+02 -0.14364479059E+03  0.15181053871E+03  0.00000000000E+00 0. -1.
          3    1    4    4  503    0  0.10253723801E+03 -0.24996654860E+03 -0.23836467817E+03  0.36029832139E+03  0.00000000000E+00 0. -1.
         -4    1    4    4    0  503 -0.12732625825E+03  0.10103525293E+03  0.16488784536E+03  0.23153423056E+03  0.00000000000E+00 0.  1.
         -3    1    5    5    0  502  0.16805736875E+03  0.46211512341E+02 -0.19337837709E+03  0.26033436152E+03  0.00000000000E+00 0.  1.
<mgrwt>
<rscale>  0 0.19965197E+04</rscale>
<asrwt>0</asrwt>
<pdfrwt beam="1">  1        2 0.11059487E+00 0.19965197E+04</pdfrwt>
<pdfrwt beam="2">  1       -2 0.21326792E+00 0.19965197E+04</pdfrwt>
<totfact> 0.40135538E+00</totfact>
</mgrwt>
</event>
<event>
11    1  0.2502641E-008  0.1645010E+04  0.7818608E-02  0.8793364E-01
          1   -1    0    0  501    0  0.00000000000E+00  0.00000000000E+00  0.89824951609E+03  0.89824951609E+03  0.00000000000E+00 0. -1.
         -1   -1    0    0    0  501 -0.00000000000E+00 -0.00000000000E+00 -0.75314728891E+03  0.75314728891E+03  0.00000000000E+00 0.  1.
         23    2    1    2    0    0  0.47123286125E+03 -0.28076036729E+03 -0.15857987345E+03  0.57794933455E+03  0.89392749563E+02 0.  0.
        254    2    1    2    0    0 -0.47123286125E+03  0.28076036729E+03  0.30368210063E+03  0.10734474705E+04  0.87130927933E+03 0.  0.
         24    2    4    4    0    0 -0.28210985390E+03  0.16897631268E+01 -0.21512605211E+03  0.36361482206E+03  0.79672426570E+02 0.  0.
         11    1    3    3    0    0  0.31632461765E+02 -0.34856188492E+02  0.73048951167E+01  0.47633265751E+02  0.00000000000E+00 0. -1.
        -11    1    3    3    0    0  0.43960039949E+03 -0.24590417880E+03 -0.16588476857E+03  0.53031606879E+03  0.00000000000E+00 0.  1.
          2    1    5    5  502    0 -0.24476155229E+03  0.27774601653E+02 -0.16864005914E+03  0.29852824912E+03  0.00000000000E+00 0. -1.
          3    1    4    4  503    0 -0.24252586842E+03  0.26248731357E+03  0.25215441722E+03  0.43737882523E+03  0.00000000000E+00 0. -1.
         -4    1    4    4    0  503  0.53402861068E+02  0.16583290592E+02  0.26665373551E+03  0.27245382317E+03  0.00000000000E+00 0.  1.
         -1    1    5    5    0  502 -0.37348301611E+02 -0.26084838526E+02 -0.46485992968E+02  0.65086572935E+02  0.00000000000E+00 0.  1.
<mgrwt>
<rscale>  0 0.16450097E+04</rscale>
<asrwt>0</asrwt>
<pdfrwt beam="1">  1        1 0.13819223E+00 0.16450097E+04</pdfrwt>
<pdfrwt beam="2">  1       -1 0.11586881E+00 0.16450097E+04</pdfrwt>
<totfact> 0.11767898E+01</totfact>
</mgrwt>
</event>
<event>
12    1  0.2502641E-008  0.1589135E+04  0.7818608E-02  0.8827251E-01
          2   -1    0    0  501    0  0.00000000000E+00  0.00000000000E+00  0.35613028000E+04  0.35613028000E+04  0.00000000000E+00 0. -1.
         -2   -1    0    0    0  501 -0.00000000000E+00 -0.00000000000E+00 -0.17727719222E+03  0.17727719222E+03  0.00000000000E+00 0.  1.
         23    2    1    2    0    0 -0.50439935308E+03 -0.38428120895E+02  0.75606710240E+03  0.91396300777E+03  0.88292062952E+02 0.  0.
        254    2    1    2    0    0  0.50439935308E+03  0.38428120895E+02  0.26279585054E+04  0.28246169845E+04  0.90354843532E+03 0.  0.
        -24    2    4    4    0    0 -0.19117488677E+03 -0.18283146503E+03  0.10420624306E+04  0.10772592657E+04  0.67957592814E+02 0.  0.
         24    2    4    4    0    0  0.69557423985E+03  0.22125958592E+03  0.15858960748E+04  0.17473577187E+04  0.73575197033E+02 0.  0.
         13    1    3    3    0    0 -0.49502078938E+03 -0.30006247308E+02  0.75183326820E+03  0.90066598691E+03  0.00000000000E+00 0.  1.
        -13    1    3    3    0    0 -0.93785637064E+01 -0.84218735865E+01  0.42338341944E+01  0.13297020865E+02  0.00000000000E+00 0. -1.
          2    1    6    6  502    0  0.15426421485E+03  0.71887769362E+02  0.31812058714E+03  0.36078526484E+03  0.00000000000E+00 0. -1.
          3    1    5    5  503    0 -0.19391544476E+03 -0.17681162188E+03  0.10342482971E+04  0.10670215975E+04  0.00000000000E+00 0. -1.
         -4    1    5    5    0  503  0.27405579930E+01 -0.60198431492E+01  0.78141334448E+01  0.10237668248E+02  0.00000000000E+00 0.  1.
         -1    1    6    6    0  502  0.54131002500E+03  0.14937181656E+03  0.12677754877E+04  0.13865724539E+04  0.00000000000E+00 0.  1.
<mgrwt>
<rscale>  0 0.15891353E+04</rscale>
<asrwt>0</asrwt>
<pdfrwt beam="1">  1        2 0.54789269E+00 0.15891353E+04</pdfrwt>
<pdfrwt beam="2">  1       -2 0.27273417E-01 0.15891353E+04</pdfrwt>
<totfact> 0.87545431E+00</totfact>
</mgrwt>
</event>
<event>
11    1  0.2502641E-008  0.1769344E+04  0.7818608E-02  0.8722774E-01
         -2   -1    0    0    0  501 -0.00000000000E+00  0.00000000000E+00  0.46834472505E+03  0.46834472505E+03  0.00000000000E+00 0.  1.
          2   -1    0    0  501    0  0.00000000000E+00 -0.00000000000E+00 -0.16710868799E+04  0.16710868799E+04  0.00000000000E+00 0. -1.
         23    2    1    2    0    0 -0.10521628726E+03  0.55785763313E+03 -0.54018981481E+02  0.57822215102E+03  0.95640993386E+02 0.  0.
        254    2    1    2    0    0  0.10521628726E+03 -0.55785763313E+03 -0.11487231734E+04  0.15612094540E+04  0.89192736480E+03 0.  0.
         24    2    4    4    0    0 -0.94644828067E+02  0.16190841007E+03 -0.52605172685E+03  0.56394362951E+03  0.78294451972E+02 0.  0.
         13    1    3    3    0    0 -0.97543994740E+02  0.34273110678E+03 -0.66926611227E+02  0.36257221868E+03  0.00000000000E+00 0. -1.
        -13    1    3    3    0    0 -0.76722925209E+01  0.21512652635E+03  0.12907629746E+02  0.21564993234E+03  0.00000000000E+00 0.  1.
          2    1    5    5  502    0 -0.10240368160E+03  0.11642421550E+03 -0.43618132243E+03  0.46292035816E+03  0.00000000000E+00 0. -1.
          3    1    4    4  503    0  0.17558284210E+03 -0.72503257882E+03 -0.56933096439E+03  0.93842384977E+03  0.00000000000E+00 0. -1.
         -4    1    4    4    0  503  0.24278273226E+02  0.52665356159E+01 -0.53340482152E+02  0.58841974682E+02  0.00000000000E+00 0.  1.
         -1    1    5    5    0  502  0.77588535348E+01  0.45484194566E+02 -0.89870404426E+02  0.10102327135E+03  0.00000000000E+00 0.  1.
<mgrwt>
<rscale>  0 0.17693442E+04</rscale>
<asrwt>0</asrwt>
<pdfrwt beam="1">  1        2 0.25709029E+00 0.17693442E+04</pdfrwt>
<pdfrwt beam="2">  1       -2 0.72053034E-01 0.17693442E+04</pdfrwt>
<totfact> 0.16802846E+01</totfact>
</mgrwt>
</event>
<event>
12    1  0.2502641E-008  0.2367290E+04  0.7818608E-02  0.8451852E-01
          1   -1    0    0  501    0  0.00000000000E+00  0.00000000000E+00  0.16479618483E+04  0.16479618483E+04  0.00000000000E+00 0. -1.
         -1   -1    0    0    0  501 -0.00000000000E+00 -0.00000000000E+00 -0.85015011681E+03  0.85015011681E+03  0.00000000000E+00 0.  1.
         23    2    1    2    0    0 -0.19333856646E+02 -0.98351336741E+03 -0.53104169088E+01  0.98771445149E+03  0.88765394529E+02 0.  0.
        254    2    1    2    0    0  0.19333856646E+02  0.98351336741E+03  0.80312214843E+03  0.15103975136E+04  0.81769378255E+03 0.  0.
        -24    2    4    4    0    0  0.22048152187E+03  0.77037396788E+03  0.88196420424E+03  0.11962225537E+04  0.10487796999E+03 0.  0.
         24    2    4    4    0    0 -0.20114766523E+03  0.21313939953E+03 -0.78842055805E+02  0.31417495993E+03  0.81246838840E+02 0.  0.
         11    1    3    3    0    0 -0.12746804301E+02 -0.66609601664E+03 -0.45112279680E+02  0.66774359015E+03  0.00000000000E+00 0. -1.
        -11    1    3    3    0    0 -0.65870523451E+01 -0.31741735077E+03  0.39801862771E+02  0.31997086134E+03  0.00000000000E+00 0.  1.
          2    1    6    6  502    0 -0.18113094440E+03  0.17632255529E+03 -0.37932389691E+02  0.25561089317E+03  0.00000000000E+00 0. -1.
          1    1    5    5  503    0  0.14106702348E+03  0.60806315753E+03  0.63737897622E+03  0.89212816791E+03  0.00000000000E+00 0. -1.
         -2    1    5    5    0  503  0.79414498395E+02  0.16231081035E+03  0.24458522802E+03  0.30409438580E+03  0.00000000000E+00 0.  1.
         -1    1    6    6    0  502 -0.20016720829E+02  0.36816844247E+02 -0.40909666115E+02  0.58564066753E+02  0.00000000000E+00 0.  1.
<mgrwt>
<rscale>  0 0.23672896E+04</rscale>
<asrwt>0</asrwt>
<pdfrwt beam="1">  1        1 0.25353259E+00 0.23672896E+04</pdfrwt>
<pdfrwt beam="2">  1       -1 0.13079233E+00 0.23672896E+04</pdfrwt>
<totfact> 0.23214846E+00</totfact>
</mgrwt>
</event>
<event>
11    1  0.2502641E-008  0.2303599E+04  0.7818608E-02  0.8476503E-01
          1   -1    0    0  501    0  0.00000000000E+00  0.00000000000E+00  0.14486778033E+04  0.14486778033E+04  0.00000000000E+00 0.  1.
         -1   -1    0    0    0  501 -0.00000000000E+00 -0.00000000000E+00 -0.91576051289E+03  0.91576051289E+03  0.00000000000E+00 0. -1.
         23    2    1    2    0    0 -0.85898020825E+03 -0.28177017711E+03  0.58811868605E+03  0.10831774331E+04  0.10073892931E+03 0.  0.
        254    2    1    2    0    0  0.85898020825E+03  0.28177017711E+03 -0.55201395670E+02  0.12812608830E+04  0.90627855842E+03 0.  0.
         24    2    4    4    0    0  0.55115857969E+03  0.57917658277E+03 -0.78787507219E+02  0.80737179948E+03  0.80127756199E+02 0.  0.
         11    1    3    3    0    0 -0.26731421835E+03 -0.12028439823E+03  0.23321085337E+03  0.37458314153E+03  0.00000000000E+00 0. -1.
        -11    1    3    3    0    0 -0.59166598989E+03 -0.16148577888E+03  0.35490783268E+03  0.70859429159E+03  0.00000000000E+00 0.  1.
          2    1    5    5  502    0  0.37781123289E+03  0.43002517578E+03 -0.84480414392E+02  0.57861897646E+03  0.00000000000E+00 0. -1.
          3    1    4    4  503    0  0.33195015018E+03 -0.29899746206E+03  0.11613094440E+02  0.44690630840E+03  0.00000000000E+00 0. -1.
         -4    1    4    4    0  503 -0.24128521624E+02  0.15910564001E+01  0.11973017109E+02  0.26982775153E+02  0.00000000000E+00 0.  1.
         -1    1    5    5    0  502  0.17334734680E+03  0.14915140698E+03  0.56929071725E+01  0.22875282302E+03  0.00000000000E+00 0.  1.
<mgrwt>
<rscale>  0 0.23035989E+04</rscale>
<asrwt>0</asrwt>
<pdfrwt beam="1">  1        1 0.22287351E+00 0.23035989E+04</pdfrwt>
<pdfrwt beam="2">  1       -1 0.14088623E+00 0.23035989E+04</pdfrwt>
<totfact> 0.26460758E+00</totfact>
</mgrwt>
</event>
<event>
11    1  0.2502641E-008  0.1393528E+04  0.7818608E-02  0.8958517E-01
         -2   -1    0    0    0  501 -0.00000000000E+00  0.00000000000E+00  0.22977066011E+04  0.22977066011E+04  0.00000000000E+00 0.  1.
          2   -1    0    0  501    0  0.00000000000E+00 -0.00000000000E+00 -0.21128902203E+03  0.21128902203E+03  0.00000000000E+00 0. -1.
         23    2    1    2    0    0 -0.23421744752E+03  0.24678729544E+03  0.98612987523E+03  0.10470153193E+04  0.89594453024E+02 0.  0.
        254    2    1    2    0    0  0.23421744752E+03 -0.24678729544E+03  0.11002877039E+04  0.14619803039E+04  0.90055071807E+03 0.  0.
         24    2    4    4    0    0  0.12354770966E+03 -0.35266226495E+03  0.11523297318E+04  0.12139305191E+04  0.78286554990E+02 0.  0.
         13    1    3    3    0    0 -0.78778402692E+02  0.93154560182E+02  0.23561263586E+03  0.26532456160E+03  0.00000000000E+00 0. -1.
        -13    1    3    3    0    0 -0.15543904483E+03  0.15363273526E+03  0.75051723938E+03  0.78169075765E+03  0.00000000000E+00 0.  1.
          4    1    5    5  502    0  0.11460312464E+03 -0.32791186816E+03  0.98301308080E+03  0.10425808297E+04  0.00000000000E+00 0. -1.
          3    1    4    4  503    0  0.68437315883E+02  0.29939294016E+02 -0.11751968051E+03  0.13925122204E+03  0.00000000000E+00 0. -1.
         -4    1    4    4    0  503  0.42232421972E+02  0.75935675490E+02  0.65477652599E+02  0.10879856280E+03  0.00000000000E+00 0.  1.
         -3    1    5    5    0  502  0.89445850219E+01 -0.24750396789E+02  0.16931665099E+03  0.17134968937E+03  0.00000000000E+00 0.  1.
<mgrwt>
<rscale>  0 0.13935282E+04</rscale>
<asrwt>0</asrwt>
<pdfrwt beam="1">  1        2 0.32506005E-01 0.13935282E+04</pdfrwt>
<pdfrwt beam="2">  1       -2 0.35349331E+00 0.13935282E+04</pdfrwt>
<totfact> 0.23638669E+00</totfact>
</mgrwt>
</event>
<event>
12    1  0.2502641E-008  0.2060574E+04  0.7818608E-02  0.8578812E-01
          1   -1    0    0  501    0  0.00000000000E+00  0.00000000000E+00  0.20091568669E+04  0.20091568669E+04  0.00000000000E+00 0. -1.
         -1   -1    0    0    0  501 -0.00000000000E+00 -0.00000000000E+00 -0.52832677922E+03  0.52832677922E+03  0.00000000000E+00 0.  1.
         23    2    1    2    0    0 -0.69793947547E+03  0.63926884566E+02  0.54223017437E+02  0.70943472209E+03  0.95662590890E+02 0.  0.
        254    2    1    2    0    0  0.69793947547E+03 -0.63926884566E+02  0.14266070702E+04  0.18280489240E+04  0.90296676450E+03 0.  0.
        -24    2    4    4    0    0  0.27344676672E+03 -0.40091521042E+03  0.10575109876E+04  0.11672648896E+04  0.93121927677E+02 0.  0.
         24    2    4    4    0    0  0.42449270875E+03  0.33698832586E+03  0.36909608258E+03  0.66078403438E+03  0.81537907562E+02 0.  0.
         13    1    3    3    0    0 -0.23541740619E+03  0.43293883630E+02  0.58592146651E+02  0.24643204975E+03  0.00000000000E+00 0. -1.
        -13    1    3    3    0    0 -0.46252206928E+03  0.20633000936E+02 -0.43691292142E+01  0.46300267233E+03  0.00000000000E+00 0.  1.
          4    1    6    6  502    0  0.38860176973E+03  0.28043810488E+03  0.34093105207E+03  0.58812485781E+03  0.00000000000E+00 0. -1.
          3    1    5    5  503    0  0.22384795038E+03 -0.28247685472E+03  0.69892760381E+03  0.78638468558E+03  0.00000000000E+00 0. -1.
         -4    1    5    5    0  503  0.49598816342E+02 -0.11843835570E+03  0.35858338383E+03  0.38088020405E+03  0.00000000000E+00 0.  1.
         -3    1    6    6    0  502  0.35890939011E+02  0.56550220979E+02  0.28165030513E+02  0.72659176569E+02  0.00000000000E+00 0.  1.
<mgrwt>
<rscale>  0 0.20605741E+04</rscale>
<asrwt>0</asrwt>
<pdfrwt beam="1">  1        1 0.30910105E+00 0.20605741E+04</pdfrwt>
<pdfrwt beam="2">  1       -1 0.81281044E-01 0.20605741E+04</pdfrwt>
<totfact> 0.40871176E+00</totfact>
</mgrwt>
</event>
<event>
12    1  0.2502641E-008  0.2627197E+04  0.7818608E-02  0.8359021E-01
          2   -1    0    0  501    0  0.00000000000E+00  0.00000000000E+00  0.13788543469E+04  0.13788543469E+04  0.00000000000E+00 0. -1.
         -2   -1    0    0    0  501 -0.00000000000E+00 -0.00000000000E+00 -0.12514305766E+04  0.12514305766E+04  0.00000000000E+00 0.  1.
         23    2    1    2    0    0 -0.27677800398E+02 -0.10152541618E+04 -0.49134035968E+03  0.11319512027E+04  0.91602960827E+02 0.  0.
        254    2    1    2    0    0  0.27677800398E+02  0.10152541618E+04  0.61876412999E+03  0.14983337209E+04  0.91138785196E+03 0.  0.
        -24    2    4    4    0    0  0.15266286461E+03  0.36263351111E+03  0.71574712351E+03  0.82206807440E+03  0.93236047312E+02 0.  0.
         24    2    4    4    0    0 -0.12498506422E+03  0.65262065073E+03 -0.96982993521E+02  0.67626564645E+03  0.79965889621E+02 0.  0.
         11    1    3    3    0    0 -0.59515044313E+02 -0.67690650689E+03 -0.31263843059E+03  0.74798880196E+03  0.00000000000E+00 0.  1.
        -11    1    3    3    0    0  0.31837243915E+02 -0.33834765495E+03 -0.17870192908E+03  0.38396240072E+03  0.00000000000E+00 0. -1.
          4    1    6    6  502    0 -0.12412753364E+03  0.56274980400E+03 -0.61155170869E+02  0.57951267582E+03  0.00000000000E+00 0. -1.
          1    1    5    5  503    0  0.34559924073E+02  0.18735956862E+02  0.51239133028E+02  0.64582297767E+02  0.00000000000E+00 0. -1.
         -2    1    5    5    0  503  0.11810294054E+03  0.34389755425E+03  0.66450799048E+03  0.75748577663E+03  0.00000000000E+00 0.  1.
         -3    1    6    6    0  502 -0.85753057742E+00  0.89870846732E+02 -0.35827822652E+02  0.96752970637E+02  0.00000000000E+00 0.  1.
<mgrwt>
<rscale>  0 0.26271966E+04</rscale>
<asrwt>0</asrwt>
<pdfrwt beam="1">  1        2 0.21213144E+00 0.26271966E+04</pdfrwt>
<pdfrwt beam="2">  1       -2 0.19252778E+00 0.26271966E+04</pdfrwt>
<totfact> 0.19580154E+00</totfact>
</mgrwt>
</event>
<event>
12    1  0.2502641E-008  0.1649341E+04  0.7818608E-02  0.8790797E-01
         -2   -1    0    0    0  501 -0.00000000000E+00  0.00000000000E+00  0.33443387604E+03  0.33443387604E+03  0.00000000000E+00 0.  1.
          2   -1    0    0  501    0  0.00000000000E+00 -0.00000000000E+00 -0.20335292700E+04  0.20335292700E+04  0.00000000000E+00 0. -1.
         23    2    1    2    0    0 -0.29170986853E+03  0.23488079479E+03  0.12998119405E+02  0.38592469918E+03  0.92224113817E+02 0.  0.
        254    2    1    2    0    0  0.29170986853E+03 -0.23488079479E+03 -0.17120935133E+04  0.19820384468E+04  0.92571516740E+03 0.  0.
        -24    2    4    4    0    0  0.42500863612E+03 -0.10687337935E+02 -0.16446498389E+04  0.17012841264E+04  0.93530883155E+02 0.  0.
         24    2    4    4    0    0 -0.13329876759E+03 -0.22419345686E+03 -0.67443674458E+02  0.28075432048E+03  0.79013110956E+02 0.  0.
         11    1    3    3    0    0 -0.51087873663E+01 -0.77285156444E+01  0.45721606446E+01  0.10331230100E+02  0.00000000000E+00 0. -1.
        -11    1    3    3    0    0 -0.28660108117E+03  0.24260931044E+03  0.84259587599E+01  0.37559346908E+03  0.00000000000E+00 0.  1.
          4    1    6    6  502    0 -0.16870849832E+02 -0.91730165629E+02 -0.40756135751E+01  0.93357696450E+02  0.00000000000E+00 0. -1.
          3    1    5    5  503    0  0.17516057788E+03 -0.42168752802E+02 -0.79143572897E+03  0.81168340185E+03  0.00000000000E+00 0. -1.
         -4    1    5    5    0  503  0.24984805824E+03  0.31481414867E+02 -0.85321410991E+03  0.88960072450E+03  0.00000000000E+00 0.  1.
         -3    1    6    6    0  502 -0.11642791776E+03 -0.13246329123E+03 -0.63368060882E+02  0.18739662403E+03  0.00000000000E+00 0.  1.
<mgrwt>
<rscale>  0 0.16493406E+04</rscale>
<asrwt>0</asrwt>
<pdfrwt beam="1">  1        2 0.31285066E+00 0.16493406E+04</pdfrwt>
<pdfrwt beam="2">  1       -2 0.51451364E-01 0.16493406E+04</pdfrwt>
<totfact> 0.21824257E+01</totfact>
</mgrwt>
</event>
<event>
12    1  0.2502641E-008  0.1362303E+04  0.7818608E-02  0.8981567E-01
         -1   -1    0    0    0  501 -0.00000000000E+00  0.00000000000E+00  0.20399870987E+03  0.20399870987E+03  0.00000000000E+00 0.  1.
          1   -1    0    0  501    0  0.00000000000E+00 -0.00000000000E+00 -0.22743645457E+04  0.22743645457E+04  0.00000000000E+00 0. -1.
         23    2    1    2    0    0 -0.12622582863E+03 -0.25099458335E+03 -0.10750357995E+04  0.11152378328E+04  0.95510276434E+02 0.  0.
        254    2    1    2    0    0  0.12622582863E+03  0.25099458335E+03 -0.99533003637E+03  0.13631254228E+04  0.88797398396E+03 0.  0.
        -24    2    4    4    0    0  0.33592882614E+03  0.99078580448E-01 -0.32691902815E+02  0.34307197175E+03  0.61493343058E+02 0.  0.
         24    2    4    4    0    0 -0.20970299751E+03  0.25089550477E+03 -0.96263813356E+03  0.10200534510E+04  0.83144243792E+02 0.  0.
         13    1    3    3    0    0 -0.50288943224E+02 -0.93379450429E+02 -0.24511967579E+03  0.26708117686E+03  0.00000000000E+00 0.  1.
        -13    1    3    3    0    0 -0.75936885408E+02 -0.15761513292E+03 -0.82991612366E+03  0.84815665594E+03  0.00000000000E+00 0. -1.
          2    1    6    6  502    0 -0.10793088974E+03  0.17788683010E+03 -0.67466587606E+03  0.70602184499E+03  0.00000000000E+00 0. -1.
          1    1    5    5  503    0  0.22928956650E+03  0.10731745018E+02 -0.48882537128E+02  0.23468783116E+03  0.00000000000E+00 0. -1.
         -2    1    5    5    0  503  0.10663925963E+03 -0.10632666438E+02  0.16190634313E+02  0.10838414059E+03  0.00000000000E+00 0.  1.
         -1    1    6    6    0  502 -0.10177210776E+03  0.73008674671E+02 -0.28797225750E+03  0.31403160603E+03  0.00000000000E+00 0.  1.
<mgrwt>
<rscale>  0 0.13623031E+04</rscale>
<asrwt>0</asrwt>
<pdfrwt beam="1">  1        1 0.34990225E+00 0.13623031E+04</pdfrwt>
<pdfrwt beam="2">  1       -1 0.31384416E-01 0.13623031E+04</pdfrwt>
<totfact> 0.17902008E+01</totfact>
</mgrwt>
</event>
<event>
12    1  0.2502641E-008  0.2895090E+04  0.7818608E-02  0.8274340E-01
         -1   -1    0    0    0  501 -0.00000000000E+00  0.00000000000E+00  0.83417887889E+03  0.83417887889E+03  0.00000000000E+00 0.  1.
          1   -1    0    0  501    0  0.00000000000E+00 -0.00000000000E+00 -0.25119155584E+04  0.25119155584E+04  0.00000000000E+00 0. -1.
         23    2    1    2    0    0 -0.22767753145E+03 -0.10608981729E+02  0.72779078496E+03  0.76822405261E+03  0.92407572888E+02 0.  0.
        254    2    1    2    0    0  0.22767753145E+03  0.10608981729E+02 -0.24055274645E+04  0.25778703847E+04  0.89827820252E+03 0.  0.
        -24    2    4    4    0    0 -0.21060109712E+03  0.25033495661E+03 -0.49224167838E+03  0.59888444444E+03  0.96645202929E+02 0.  0.
         24    2    4    4    0    0  0.43827862857E+03 -0.23972597488E+03 -0.19132857861E+04  0.19789859403E+04  0.78524856922E+02 0.  0.
         11    1    3    3    0    0 -0.19361715573E+03  0.38380992634E-01  0.47528344017E+03  0.51320751453E+03  0.00000000000E+00 0. -1.
        -11    1    3    3    0    0 -0.34060375718E+02 -0.10647362722E+02  0.25250734479E+03  0.25501653809E+03  0.00000000000E+00 0.  1.
          4    1    6    6  502    0  0.39757581370E+03 -0.24100684028E+03 -0.17664105169E+04  0.18265697191E+04  0.00000000000E+00 0. -1.
          1    1    5    5  503    0 -0.56183966729E+02  0.89058031445E+02 -0.88656967102E+02  0.13765183943E+03  0.00000000000E+00 0. -1.
         -2    1    5    5    0  503 -0.15441713039E+03  0.16127692517E+03 -0.40358471128E+03  0.46123260501E+03  0.00000000000E+00 0.  1.
         -3    1    6    6    0  502  0.40702814868E+02  0.12808653983E+01 -0.14687526926E+03  0.15241622117E+03  0.00000000000E+00 0.  1.
<mgrwt>
<rscale>  0 0.28950903E+04</rscale>
<asrwt>0</asrwt>
<pdfrwt beam="1">  1        1 0.38644855E+00 0.28950903E+04</pdfrwt>
<pdfrwt beam="2">  1       -1 0.12833521E+00 0.28950903E+04</pdfrwt>
<totfact> 0.59772120E-01</totfact>
</mgrwt>
</event>
<event>
11    1  0.2502641E-008  0.1453750E+04  0.7818608E-02  0.8915805E-01
         -1   -1    0    0    0  501 -0.00000000000E+00  0.00000000000E+00  0.39991669378E+03  0.39991669378E+03  0.00000000000E+00 0.  1.
          1   -1    0    0  501    0  0.00000000000E+00 -0.00000000000E+00 -0.13211437098E+04  0.13211437098E+04  0.00000000000E+00 0. -1.
         23    2    1    2    0    0 -0.17033356684E+02  0.13657196174E+03 -0.74746279124E+03  0.76547971697E+03  0.91195048243E+02 0.  0.
        254    2    1    2    0    0  0.17033356684E+02 -0.13657196174E+03 -0.17376422476E+03  0.95558068660E+03  0.92951514610E+03 0.  0.
         24    2    4    4    0    0 -0.43270925449E+03 -0.52717201524E+02  0.18987539787E+02  0.44365506775E+03  0.80329883722E+02 0.  0.
         11    1    3    3    0    0 -0.48490409271E+02  0.10696819577E+03 -0.61618226928E+03  0.62727514192E+03  0.00000000000E+00 0. -1.
        -11    1    3    3    0    0  0.31457052586E+02  0.29603765972E+02 -0.13128052196E+03  0.13820457504E+03  0.00000000000E+00 0.  1.
          4    1    5    5  502    0 -0.25976212731E+03 -0.46246394366E+01  0.40206386599E+02  0.26289599388E+03  0.00000000000E+00 0. -1.
          3    1    4    4  503    0  0.30048423620E+03 -0.60178981449E+02 -0.19039951484E+03  0.36078284503E+03  0.00000000000E+00 0. -1.
         -4    1    4    4    0  503  0.14925837497E+03 -0.23675778769E+02 -0.23522497138E+01  0.15114277382E+03  0.00000000000E+00 0.  1.
         -3    1    5    5    0  502 -0.17294712718E+03 -0.48092562087E+02 -0.21218846812E+02  0.18075907387E+03  0.00000000000E+00 0.  1.
<mgrwt>
<rscale>  0 0.14537502E+04</rscale>
<asrwt>0</asrwt>
<pdfrwt beam="1">  1        1 0.20325288E+00 0.14537502E+04</pdfrwt>
<pdfrwt beam="2">  1       -1 0.61525646E-01 0.14537502E+04</pdfrwt>
<totfact> 0.22727055E+01</totfact>
</mgrwt>
</event>
<event>
11    1  0.2502641E-008  0.1446674E+04  0.7818608E-02  0.8920710E-01
         -1   -1    0    0    0  501 -0.00000000000E+00  0.00000000000E+00  0.43298080910E+03  0.43298080910E+03  0.00000000000E+00 0.  1.
          1   -1    0    0  501    0  0.00000000000E+00 -0.00000000000E+00 -0.12084050970E+04  0.12084050970E+04  0.00000000000E+00 0. -1.
         23    2    1    2    0    0  0.34387083356E+03  0.24603828844E+03 -0.40198413013E+03  0.59011618043E+03  0.88678497890E+02 0.  0.
        254    2    1    2    0    0 -0.34387083356E+03 -0.24603828844E+03 -0.37344015779E+03  0.10512697257E+04  0.88708990252E+03 0.  0.
         24    2    4    4    0    0 -0.61553686004E+03 -0.21632224901E+03 -0.20405564478E+03  0.68862394020E+03  0.82965555351E+02 0.  0.
         13    1    3    3    0    0  0.32450161318E+03  0.22488734694E+03 -0.39894181816E+03  0.56127550280E+03  0.00000000000E+00 0. -1.
        -13    1    3    3    0    0  0.19369220372E+02  0.21150941501E+02 -0.30423119720E+01  0.28840677633E+02  0.00000000000E+00 0.  1.
          4    1    5    5  502    0 -0.98755902587E+02 -0.29596970204E+02 -0.18292581788E+01  0.10311185735E+03  0.00000000000E+00 0. -1.
          1    1    4    4  503    0  0.24263913091E+02 -0.14785989115E+02 -0.10187599407E+03  0.10576427147E+03  0.00000000000E+00 0. -1.
         -2    1    4    4    0  503  0.24740211339E+03 -0.14930050317E+02 -0.67508518940E+02  0.25688151401E+03  0.00000000000E+00 0.  1.
         -3    1    5    5    0  502 -0.51678095745E+03 -0.18672527880E+03 -0.20222638661E+03  0.58551208285E+03  0.00000000000E+00 0.  1.
<mgrwt>
<rscale>  0 0.14466737E+04</rscale>
<asrwt>0</asrwt>
<pdfrwt beam="1">  1        1 0.18590847E+00 0.14466737E+04</pdfrwt>
<pdfrwt beam="2">  1       -1 0.66612434E-01 0.14466737E+04</pdfrwt>
<totfact> 0.23371993E+01</totfact>
</mgrwt>
</event>
<event>
11    1  0.2502641E-008  0.1225676E+04  0.7818608E-02  0.9090675E-01
         -1   -1    0    0    0  501 -0.00000000000E+00  0.00000000000E+00  0.15271950857E+03  0.15271950857E+03  0.00000000000E+00 0.  1.
          1   -1    0    0  501    0  0.00000000000E+00 -0.00000000000E+00 -0.24592153938E+04  0.24592153938E+04  0.00000000000E+00 0. -1.
         23    2    1    2    0    0 -0.77516536425E+01 -0.17589355479E+03 -0.97556878774E+03  0.99543246001E+03  0.90292259188E+02 0.  0.
        254    2    1    2    0    0  0.77516536425E+01  0.17589355479E+03 -0.13309270975E+04  0.16165024424E+04  0.90039689946E+03 0.  0.
         24    2    4    4    0    0  0.36368300521E+03  0.29951270909E+03 -0.85522129028E+03  0.97995281029E+03  0.83251809966E+02 0.  0.
         13    1    3    3    0    0 -0.44543191235E+01 -0.15405179342E+02 -0.32345925176E+03  0.32385652388E+03  0.00000000000E+00 0.  1.
        -13    1    3    3    0    0 -0.32973345190E+01 -0.16048837545E+03 -0.65210953598E+03  0.67157593613E+03  0.00000000000E+00 0. -1.
          4    1    5    5  502    0  0.54213833830E+02  0.11633472221E+02 -0.11122804814E+03  0.12428256574E+03  0.00000000000E+00 0. -1.
          3    1    4    4  503    0 -0.77258633891E+01 -0.28600629267E+02 -0.14176033823E+03  0.14482292102E+03  0.00000000000E+00 0. -1.
         -4    1    4    4    0  503 -0.34820548818E+03 -0.95018525027E+02 -0.33394546898E+03  0.49172671104E+03  0.00000000000E+00 0.  1.
         -3    1    5    5    0  502  0.30946917138E+03  0.28787923687E+03 -0.74399324214E+03  0.85567024455E+03  0.00000000000E+00 0.  1.
<mgrwt>
<rscale>  0 0.12256756E+04</rscale>
<asrwt>0</asrwt>
<pdfrwt beam="1">  1        1 0.37834082E+00 0.12256756E+04</pdfrwt>
<pdfrwt beam="2">  1       -1 0.23495310E-01 0.12256756E+04</pdfrwt>
<totfact> 0.22372062E+01</totfact>
</mgrwt>
</event>
<event>
11    1  0.2502641E-008  0.1167025E+04  0.7818608E-02  0.9142220E-01
         -2   -1    0    0    0  501 -0.00000000000E+00  0.00000000000E+00  0.26648437297E+03  0.26648437297E+03  0.00000000000E+00 0. -1.
          2   -1    0    0  501    0  0.00000000000E+00 -0.00000000000E+00 -0.12776984472E+04  0.12776984472E+04  0.00000000000E+00 0.  1.
         23    2    1    2    0    0 -0.14759280702E+03 -0.12138021054E+03 -0.51259699814E+02  0.21689745475E+03  0.88882826556E+02 0.  0.
        254    2    1    2    0    0  0.14759280702E+03  0.12138021054E+03 -0.95995437439E+03  0.13272853654E+04  0.89646932356E+03 0.  0.
         24    2    4    4    0    0 -0.34431068367E+03  0.69053144451E+02 -0.64545404605E+03  0.73949662714E+03  0.83223508329E+02 0.  0.
         13    1    3    3    0    0 -0.14744808984E+03 -0.13269863268E+03 -0.53281218641E+02  0.20539901307E+03  0.00000000000E+00 0. -1.
        -13    1    3    3    0    0 -0.14471718029E+00  0.11318422133E+02  0.20215188267E+01  0.11498441677E+02  0.00000000000E+00 0.  1.
          2    1    5    5  502    0 -0.80748218174E+02  0.52563488781E+02 -0.18957465925E+03  0.21265405362E+03  0.00000000000E+00 0. -1.
          3    1    4    4  503    0  0.15333336239E+03  0.41322817524E+00 -0.11197460981E+03  0.18986733268E+03  0.00000000000E+00 0. -1.
         -4    1    4    4    0  503  0.33857012831E+03  0.51913837916E+02 -0.20252571853E+03  0.39792140558E+03  0.00000000000E+00 0.  1.
         -1    1    5    5    0  502 -0.26356246550E+03  0.16489655670E+02 -0.45587938680E+03  0.52684257352E+03  0.00000000000E+00 0.  1.
<mgrwt>
<rscale>  0 0.11670247E+04</rscale>
<asrwt>0</asrwt>
<pdfrwt beam="1">  1        2 0.19656899E+00 0.11670247E+04</pdfrwt>
<pdfrwt beam="2">  1       -2 0.40997596E-01 0.11670247E+04</pdfrwt>
<totfact> 0.94858730E+01</totfact>
</mgrwt>
</event>
<event>
12    1  0.2502641E-008  0.3010429E+04  0.7818608E-02  0.8240759E-01
          1   -1    0    0  501    0  0.00000000000E+00  0.00000000000E+00  0.27670831957E+04  0.27670831957E+04  0.00000000000E+00 0. -1.
         -1   -1    0    0    0  501 -0.00000000000E+00 -0.00000000000E+00 -0.81879395951E+03  0.81879395951E+03  0.00000000000E+00 0.  1.
         23    2    1    2    0    0  0.22636904053E+02 -0.73968565596E+03  0.22534856848E+04  0.23736152272E+04  0.90577129447E+02 0.  0.
        254    2    1    2    0    0 -0.22636904053E+02  0.73968565596E+03 -0.30519644859E+03  0.12122619280E+04  0.91037729032E+03 0.  0.
        -24    2    4    4    0    0 -0.15814402972E+03 -0.49894544331E+02  0.18322884318E+03  0.27059307156E+03  0.11022160275E+03 0.  0.
         24    2    4    4    0    0  0.13550712566E+03  0.78958020029E+03 -0.48842529178E+03  0.94166885641E+03  0.79886767963E+02 0.  0.
         11    1    3    3    0    0  0.45324142064E+02 -0.65058005282E+03  0.19229281203E+04  0.20305076308E+04  0.00000000000E+00 0. -1.
        -11    1    3    3    0    0 -0.22687238011E+02 -0.89105603144E+02  0.33055756451E+03  0.34310759644E+03  0.00000000000E+00 0.  1.
          4    1    6    6  502    0  0.85723783564E+02  0.64901388675E+03 -0.37629347840E+03  0.75509229512E+03  0.00000000000E+00 0. -1.
          3    1    5    5  503    0 -0.11142991435E+03  0.18134171755E+02  0.13098056303E+03  0.17292016044E+03  0.00000000000E+00 0. -1.
         -4    1    5    5    0  503 -0.46714115364E+02 -0.68028716086E+02  0.52248280159E+02  0.97672911117E+02  0.00000000000E+00 0.  1.
         -3    1    6    6    0  502  0.49783342099E+02  0.14056631354E+03 -0.11213181338E+03  0.18657656130E+03  0.00000000000E+00 0.  1.
<mgrwt>
<rscale>  0 0.30104292E+04</rscale>
<asrwt>0</asrwt>
<pdfrwt beam="1">  1        1 0.42570510E+00 0.30104292E+04</pdfrwt>
<pdfrwt beam="2">  1       -1 0.12596830E+00 0.30104292E+04</pdfrwt>
<totfact> 0.41033639E-01</totfact>
</mgrwt>
</event>
<event>
12    1  0.2502641E-008  0.1549399E+04  0.7818608E-02  0.8852252E-01
          2   -1    0    0  501    0  0.00000000000E+00  0.00000000000E+00  0.10268733538E+04  0.10268733538E+04  0.00000000000E+00 0. -1.
         -2   -1    0    0    0  501 -0.00000000000E+00 -0.00000000000E+00 -0.58445307131E+03  0.58445307131E+03  0.00000000000E+00 0.  1.
         23    2    1    2    0    0  0.45843625196E+03 -0.13973774902E+03  0.44033587836E+03  0.65715389957E+03  0.90912740241E+02 0.  0.
        254    2    1    2    0    0 -0.45843625196E+03  0.13973774902E+03  0.20844040980E+01  0.95417252551E+03  0.82507601351E+03 0.  0.
        -24    2    4    4    0    0 -0.58177878735E+03  0.33271346421E+03 -0.10660223422E+03  0.68620447790E+03  0.10172385403E+03 0.  0.
         24    2    4    4    0    0  0.12334253538E+03 -0.19297571519E+03  0.10868663832E+03  0.26796804761E+03  0.86839400626E+02 0.  0.
         11    1    3    3    0    0  0.26921449336E+03 -0.71447306887E+02  0.31339978666E+03  0.41928580632E+03  0.00000000000E+00 0. -1.
        -11    1    3    3    0    0  0.18922175860E+03 -0.68290442135E+02  0.12693609170E+03  0.23786809326E+03  0.00000000000E+00 0.  1.
          4    1    6    6  502    0  0.14654157068E+02 -0.55547794561E+02 -0.72008725339E+01  0.57897792404E+02  0.00000000000E+00 0. -1.
          1    1    5    5  503    0 -0.13918560030E+01 -0.48869587473E+01 -0.49969861786E+01  0.71266752276E+01  0.00000000000E+00 0. -1.
         -2    1    5    5    0  503 -0.58038693134E+03  0.33760042296E+03 -0.10160524804E+03  0.67907780267E+03  0.00000000000E+00 0.  1.
         -3    1    6    6    0  502  0.10868837832E+03 -0.13742792063E+03  0.11588751085E+03  0.21007025520E+03  0.00000000000E+00 0.  1.
<mgrwt>
<rscale>  0 0.15493990E+04</rscale>
<asrwt>0</asrwt>
<pdfrwt beam="1">  1        2 0.15798052E+00 0.15493990E+04</pdfrwt>
<pdfrwt beam="2">  1       -2 0.89915857E-01 0.15493990E+04</pdfrwt>
<totfact> 0.24688542E+01</totfact>
</mgrwt>
</event>
<event>
12    1  0.2502641E-008  0.1664300E+04  0.7818608E-02  0.8781991E-01
         -1   -1    0    0    0  501 -0.00000000000E+00  0.00000000000E+00  0.62552653840E+03  0.62552653840E+03  0.00000000000E+00 0.  1.
          1   -1    0    0  501    0  0.00000000000E+00 -0.00000000000E+00 -0.11070256443E+04  0.11070256443E+04  0.00000000000E+00 0. -1.
         23    2    1    2    0    0  0.52164693503E+03  0.79642859212E+02 -0.43342388556E+03  0.68905657127E+03  0.92109630228E+02 0.  0.
        254    2    1    2    0    0 -0.52164693503E+03 -0.79642859212E+02 -0.48075220306E+02  0.10434956114E+04  0.89895125248E+03 0.  0.
        -24    2    4    4    0    0  0.22409575517E+03  0.97118964051E+02 -0.71039226043E+02  0.27234681108E+03  0.97340706822E+02 0.  0.
         24    2    4    4    0    0 -0.74574269020E+03 -0.17676182326E+03  0.22964005737E+02  0.77114880031E+03  0.82257063622E+02 0.  0.
         13    1    3    3    0    0  0.26451005544E+03  0.44105633613E+02 -0.27917758377E+03  0.38710592817E+03  0.00000000000E+00 0. -1.
        -13    1    3    3    0    0  0.25713687960E+03  0.35537225600E+02 -0.15424630179E+03  0.30195064310E+03  0.00000000000E+00 0.  1.
          2    1    6    6  502    0 -0.22158217250E+03 -0.90033570808E+02 -0.35356843333E+01  0.23920117915E+03  0.00000000000E+00 0. -1.
          3    1    5    5  503    0  0.81563571530E+02  0.32260062872E+02  0.21692554864E+02  0.90354273799E+02  0.00000000000E+00 0. -1.
         -4    1    5    5    0  503  0.14253218364E+03  0.64858901179E+02 -0.92731780907E+02  0.18199253728E+03  0.00000000000E+00 0.  1.
         -1    1    6    6    0  502 -0.52416051770E+03 -0.86728252455E+02  0.26499690070E+02  0.53194762117E+03  0.00000000000E+00 0.  1.
<mgrwt>
<rscale>  0 0.16643004E+04</rscale>
<asrwt>0</asrwt>
<pdfrwt beam="1">  1        1 0.17031164E+00 0.16643004E+04</pdfrwt>
<pdfrwt beam="2">  1       -1 0.96234852E-01 0.16643004E+04</pdfrwt>
<totfact> 0.12435350E+01</totfact>
</mgrwt>
</event>
<event>
12    1  0.2502641E-008  0.1312215E+04  0.7818608E-02  0.9019934E-01
          2   -1    0    0  501    0  0.00000000000E+00  0.00000000000E+00  0.36358887727E+03  0.36358887727E+03  0.00000000000E+00 0. -1.
         -2   -1    0    0    0  501 -0.00000000000E+00 -0.00000000000E+00 -0.11839669960E+04  0.11839669960E+04  0.00000000000E+00 0.  1.
         23    2    1    2    0    0  0.26443929115E+03 -0.22085001866E+03 -0.25528778673E+03  0.43824704933E+03  0.90475149857E+02 0.  0.
        254    2    1    2    0    0 -0.26443929115E+03  0.22085001866E+03 -0.56509033203E+03  0.11093088240E+04  0.89024497424E+03 0.  0.
        -24    2    4    4    0    0  0.15534945878E+03 -0.24251810119E+03 -0.87426356982E+02  0.31854864281E+03  0.10431388304E+03 0.  0.
         24    2    4    4    0    0 -0.41978874993E+03  0.46336811986E+03 -0.47766397505E+03  0.79076018117E+03  0.78779324656E+02 0.  0.
         11    1    3    3    0    0  0.10825628403E+03 -0.59112086927E+02 -0.13644756192E+03  0.18393368101E+03  0.00000000000E+00 0.  1.
        -11    1    3    3    0    0  0.15618300712E+03 -0.16173793173E+03 -0.11884022481E+03  0.25431336832E+03  0.00000000000E+00 0. -1.
          2    1    6    6  502    0 -0.34277714676E+03  0.34851338548E+03 -0.40344315085E+03  0.63381710940E+03  0.00000000000E+00 0. -1.
          3    1    5    5  503    0  0.11162050536E+03 -0.21290552936E+03 -0.10578388922E+03  0.26263688406E+03  0.00000000000E+00 0. -1.
         -4    1    5    5    0  503  0.43728953418E+02 -0.29612571835E+02  0.18357532236E+02  0.55911758759E+02  0.00000000000E+00 0.  1.
         -1    1    6    6    0  502 -0.77011603172E+02  0.11485473438E+03 -0.74220824203E+02  0.15694307177E+03  0.00000000000E+00 0.  1.
<mgrwt>
<rscale>  0 0.13122153E+04</rscale>
<asrwt>0</asrwt>
<pdfrwt beam="1">  1        2 0.55936751E-01 0.13122153E+04</pdfrwt>
<pdfrwt beam="2">  1       -2 0.18214877E+00 0.13122153E+04</pdfrwt>
<totfact> 0.15178824E+01</totfact>
</mgrwt>
</event>
<event>
12    1  0.2502641E-008  0.1314531E+04  0.7818608E-02  0.9018121E-01
          2   -1    0    0  501    0  0.00000000000E+00  0.00000000000E+00  0.25603291277E+04  0.25603291277E+04  0.00000000000E+00 0. -1.
         -2   -1    0    0    0  501 -0.00000000000E+00 -0.00000000000E+00 -0.16872742576E+03  0.16872742576E+03  0.00000000000E+00 0.  1.
         23    2    1    2    0    0 -0.18248254850E+03  0.25587153775E+03  0.51690768937E+03  0.61116190784E+03  0.86920618547E+02 0.  0.
        254    2    1    2    0    0  0.18248254850E+03 -0.25587153775E+03  0.18746940126E+04  0.21178946456E+04  0.93393252691E+03 0.  0.
        -24    2    4    4    0    0 -0.24600207525E+02  0.18439443401E+03  0.14572762740E+04  0.14718916144E+04  0.90577636737E+02 0.  0.
         24    2    4    4    0    0  0.20708275603E+03 -0.44026597176E+03  0.41741773854E+03  0.64600303118E+03  0.79780662567E+02 0.  0.
         11    1    3    3    0    0 -0.14015565431E+03  0.20291599959E+03  0.32737169244E+03  0.40986672874E+03  0.00000000000E+00 0.  1.
        -11    1    3    3    0    0 -0.42326894196E+02  0.52955538161E+02  0.18953599693E+03  0.20129517910E+03  0.00000000000E+00 0. -1.
          4    1    6    6  502    0  0.28345466725E+02 -0.68567224259E+02  0.29645649622E+02  0.79898649976E+02  0.00000000000E+00 0. -1.
          3    1    5    5  503    0 -0.15343458015E+02  0.33868669963E+02  0.10816435289E+03  0.11437672729E+03  0.00000000000E+00 0. -1.
         -4    1    5    5    0  503 -0.92567495094E+01  0.15052576405E+03  0.13491119211E+04  0.13575148871E+04  0.00000000000E+00 0.  1.
         -3    1    6    6    0  502  0.17873728930E+03 -0.37169874750E+03  0.38777208892E+03  0.56610438121E+03  0.00000000000E+00 0.  1.
<mgrwt>
<rscale>  0 0.13145307E+04</rscale>
<asrwt>0</asrwt>
<pdfrwt beam="1">  1        2 0.39389676E+00 0.13145307E+04</pdfrwt>
<pdfrwt beam="2">  1       -2 0.25958067E-01 0.13145307E+04</pdfrwt>
<totfact> 0.42337612E+01</totfact>
</mgrwt>
</event>
<event>
12    1  0.2502641E-008  0.1769858E+04  0.7818608E-02  0.8722495E-01
         -2   -1    0    0    0  501 -0.00000000000E+00  0.00000000000E+00  0.50802940276E+03  0.50802940276E+03  0.00000000000E+00 0.  1.
          2   -1    0    0  501    0  0.00000000000E+00 -0.00000000000E+00 -0.15414449492E+04  0.15414449492E+04  0.00000000000E+00 0. -1.
         23    2    1    2    0    0 -0.78330472527E+02 -0.56613719634E+03 -0.19153382750E+02  0.57927899703E+03  0.92467920469E+02 0.  0.
        254    2    1    2    0    0  0.78330472527E+02  0.56613719634E+03 -0.10142621637E+04  0.14701953550E+04  0.89783052801E+03 0.  0.
        -24    2    4    4    0    0  0.39429410495E+03  0.21050264668E+03 -0.83721425367E+03  0.95506817442E+03  0.10699675593E+03 0.  0.
         24    2    4    4    0    0 -0.31596363242E+03  0.35563454966E+03 -0.17704791005E+03  0.51512718056E+03  0.87755910151E+02 0.  0.
         11    1    3    3    0    0  0.13925894343E+02 -0.22602318059E+03 -0.20791652601E+01  0.22646132479E+03  0.00000000000E+00 0. -1.
        -11    1    3    3    0    0 -0.92256366870E+02 -0.34011401575E+03 -0.17074217490E+02  0.35281767224E+03  0.00000000000E+00 0.  1.
          4    1    6    6  502    0 -0.10141980712E+03  0.13048808443E+03 -0.10529248081E+03  0.19595821996E+03  0.00000000000E+00 0. -1.
          3    1    5    5  503    0  0.17929638444E+03  0.38515062012E+02 -0.30602931643E+03  0.35676959791E+03  0.00000000000E+00 0. -1.
         -4    1    5    5    0  503  0.21499772051E+03  0.17198758467E+03 -0.53118493724E+03  0.59829857651E+03  0.00000000000E+00 0.  1.
         -3    1    6    6    0  502 -0.21454382531E+03  0.22514646524E+03 -0.71755429243E+02  0.31916896060E+03  0.00000000000E+00 0.  1.
<mgrwt>
<rscale>  0 0.17698580E+04</rscale>
<asrwt>0</asrwt>
<pdfrwt beam="1">  1        2 0.23714537E+00 0.17698580E+04</pdfrwt>
<pdfrwt beam="2">  1       -2 0.78158370E-01 0.17698580E+04</pdfrwt>
<totfact> 0.16578995E+01</totfact>
</mgrwt>
</event>
<event>
11    1  0.2502641E-008  0.1155347E+04  0.7818608E-02  0.9152865E-01
          1   -1    0    0  501    0  0.00000000000E+00  0.00000000000E+00  0.14402716362E+04  0.14402716362E+04  0.00000000000E+00 0. -1.
         -1   -1    0    0    0  501 -0.00000000000E+00 -0.00000000000E+00 -0.23169712555E+03  0.23169712555E+03  0.00000000000E+00 0.  1.
         23    2    1    2    0    0 -0.44289528355E+02 -0.11922842409E+03  0.50224553140E+03  0.52653599845E+03  0.93875472904E+02 0.  0.
        254    2    1    2    0    0  0.44289528355E+02  0.11922842409E+03  0.70632897928E+03  0.11454327633E+04  0.89271418098E+03 0.  0.
         24    2    4    4    0    0  0.73491475553E+02 -0.33125971585E+03  0.82779197047E+02  0.35807797313E+03  0.78952156750E+02 0.  0.
         11    1    3    3    0    0 -0.30411145763E+02 -0.47536587446E+02  0.79280455664E+02  0.97313696790E+02  0.00000000000E+00 0.  1.
        -11    1    3    3    0    0 -0.13878382592E+02 -0.71691836648E+02  0.42296507574E+03  0.42922230166E+03  0.00000000000E+00 0. -1.
          4    1    5    5  502    0  0.59443566434E+02 -0.20882888506E+03  0.89068920432E+02  0.23468343234E+03  0.00000000000E+00 0. -1.
          3    1    4    4  503    0 -0.24085405787E+02  0.46456617198E+03  0.59666091293E+03  0.75657523085E+03  0.00000000000E+00 0. -1.
         -4    1    4    4    0  503 -0.51165414098E+01 -0.14078032038E+02  0.26888869309E+02  0.30779559366E+02  0.00000000000E+00 0.  1.
         -3    1    5    5    0  502  0.14047909118E+02 -0.12243083078E+03 -0.62897233849E+01  0.12339454079E+03  0.00000000000E+00 0.  1.
<mgrwt>
<rscale>  0 0.11553472E+04</rscale>
<asrwt>0</asrwt>
<pdfrwt beam="1">  1        1 0.22158025E+00 0.11553472E+04</pdfrwt>
<pdfrwt beam="2">  1       -1 0.35645712E-01 0.11553472E+04</pdfrwt>
<totfact> 0.53649739E+01</totfact>
</mgrwt>
</event>
<event>
11    1  0.2502641E-008  0.2195105E+04  0.7818608E-02  0.8520468E-01
          1   -1    0    0  501    0  0.00000000000E+00  0.00000000000E+00  0.10882762489E+04  0.10882762489E+04  0.00000000000E+00 0. -1.
         -1   -1    0    0    0  501 -0.00000000000E+00 -0.00000000000E+00 -0.11069075816E+04  0.11069075816E+04  0.00000000000E+00 0.  1.
         23    2    1    2    0    0 -0.32447407439E+03  0.42373579833E+02 -0.85434967626E+03  0.92000989486E+03  0.97087033536E+02 0.  0.
        254    2    1    2    0    0  0.32447407439E+03 -0.42373579833E+02  0.83571834363E+03  0.12751739356E+04  0.90585013717E+03 0.  0.
         24    2    4    4    0    0  0.34365251620E+03 -0.18146179907E+03  0.71758549365E+03  0.81970928916E+03  0.77258925875E+02 0.  0.
         13    1    3    3    0    0 -0.14681821696E+01 -0.13400061660E+02 -0.30470528462E+02  0.33319218420E+02  0.00000000000E+00 0. -1.
        -13    1    3    3    0    0 -0.32300589222E+03  0.55773641493E+02 -0.82387914780E+03  0.88669067644E+03  0.00000000000E+00 0.  1.
          2    1    5    5  502    0  0.13951413080E+03 -0.10663191124E+03  0.26948325277E+03  0.32164542700E+03  0.00000000000E+00 0. -1.
          1    1    4    4  503    0 -0.75214692367E+02 -0.11876468491E+03 -0.42107591892E+02  0.14674927470E+03  0.00000000000E+00 0. -1.
         -2    1    4    4    0  503  0.56036250563E+02  0.25785290415E+03  0.16024044187E+03  0.30871537177E+03  0.00000000000E+00 0.  1.
         -3    1    5    5    0  502  0.20413838540E+03 -0.74829887825E+02  0.44810224088E+03  0.49806386216E+03  0.00000000000E+00 0.  1.
<mgrwt>
<rscale>  0 0.21951048E+04</rscale>
<asrwt>0</asrwt>
<pdfrwt beam="1">  1        1 0.16742712E+00 0.21951048E+04</pdfrwt>
<pdfrwt beam="2">  1       -1 0.17029347E+00 0.21951048E+04</pdfrwt>
<totfact> 0.28899654E+00</totfact>
</mgrwt>
</event>
<event>
12    1  0.2502641E-008  0.1726483E+04  0.7818608E-02  0.8746403E-01
         -2   -1    0    0    0  501 -0.00000000000E+00  0.00000000000E+00  0.87570285158E+03  0.87570285158E+03  0.00000000000E+00 0.  1.
          2   -1    0    0  501    0  0.00000000000E+00 -0.00000000000E+00 -0.85095732619E+03  0.85095732619E+03  0.00000000000E+00 0. -1.
         23    2    1    2    0    0 -0.16106589488E+03 -0.34601925589E+03  0.50914579623E+03  0.64262766433E+03  0.89829422793E+02 0.  0.
        254    2    1    2    0    0  0.16106589488E+03  0.34601925589E+03 -0.48440027083E+03  0.10840325134E+04  0.89152191217E+03 0.  0.
        -24    2    4    4    0    0  0.16117038618E+03  0.35671249500E+02 -0.68011957404E+03  0.70752125730E+03  0.10380444646E+03 0.  0.
         24    2    4    4    0    0 -0.10449129969E+00  0.31034800639E+03  0.19571930321E+03  0.37651125614E+03  0.84491327144E+02 0.  0.
         11    1    3    3    0    0  0.60436298107E+00  0.46543894711E-01 -0.33743671138E+01  0.34283778038E+01  0.00000000000E+00 0. -1.
        -11    1    3    3    0    0 -0.16167025786E+03 -0.34606579979E+03  0.51252016334E+03  0.63919928652E+03  0.00000000000E+00 0.  1.
          2    1    6    6  502    0  0.40397786012E+02  0.11443981400E+03  0.80863480970E+02  0.14583331135E+03  0.00000000000E+00 0. -1.
          3    1    5    5  503    0  0.61596794288E+02  0.43140943309E+02 -0.45606019004E+03  0.46221878261E+03  0.00000000000E+00 0. -1.
         -4    1    5    5    0  503  0.99573591893E+02 -0.74696938090E+01 -0.22405938401E+03  0.24530247469E+03  0.00000000000E+00 0.  1.
         -1    1    6    6    0  502 -0.40502277312E+02  0.19590819239E+03  0.11485582224E+03  0.23067794480E+03  0.00000000000E+00 0.  1.
<mgrwt>
<rscale>  0 0.17264828E+04</rscale>
<asrwt>0</asrwt>
<pdfrwt beam="1">  1        2 0.13091651E+00 0.17264828E+04</pdfrwt>
<pdfrwt beam="2">  1       -2 0.13472351E+00 0.17264828E+04</pdfrwt>
<totfact> 0.11931902E+01</totfact>
</mgrwt>
</event>
<event>
12    1  0.2502641E-008  0.1964494E+04  0.7818608E-02  0.8623403E-01
         -1   -1    0    0    0  501 -0.00000000000E+00  0.00000000000E+00  0.14178179570E+04  0.14178179570E+04  0.00000000000E+00 0.  1.
          1   -1    0    0  501    0  0.00000000000E+00 -0.00000000000E+00 -0.68048862954E+03  0.68048862954E+03  0.00000000000E+00 0. -1.
         23    2    1    2    0    0 -0.26344781165E+03  0.53999909490E+03 -0.25062686329E+03  0.65725503875E+03  0.90369183960E+02 0.  0.
        254    2    1    2    0    0  0.26344781165E+03 -0.53999909490E+03  0.98795619079E+03  0.14410515478E+04  0.85998160249E+03 0.  0.
        -24    2    4    4    0    0  0.15882991627E+03 -0.19914762867E+03  0.10374349030E+04  0.10722556476E+04  0.92597384606E+02 0.  0.
         24    2    4    4    0    0  0.10461789538E+03 -0.34085146623E+03 -0.49478712188E+02  0.36879590020E+03  0.80234948650E+02 0.  0.
         11    1    3    3    0    0 -0.25613535272E+03  0.45612726724E+03 -0.20888715364E+03  0.56328611361E+03  0.00000000000E+00 0. -1.
        -11    1    3    3    0    0 -0.73124589289E+01  0.83871827654E+02 -0.41739709656E+02  0.93968925139E+02  0.00000000000E+00 0.  1.
          2    1    6    6  502    0 -0.10897445453E+02 -0.27774526099E+02  0.62045612406E+01  0.30474172633E+02  0.00000000000E+00 0. -1.
          1    1    5    5  503    0  0.39528516781E+02 -0.27295149054E+01  0.11539395603E+03  0.12200704479E+03  0.00000000000E+00 0. -1.
         -4    1    5    5    0  503  0.11930139949E+03 -0.19641811377E+03  0.92204094695E+03  0.95024860283E+03  0.00000000000E+00 0.  1.
         -1    1    6    6    0  502  0.11551534083E+03 -0.31307694013E+03 -0.55683273428E+02  0.33832172757E+03  0.00000000000E+00 0.  1.
<mgrwt>
<rscale>  0 0.19644938E+04</rscale>
<asrwt>0</asrwt>
<pdfrwt beam="1">  1        1 0.10469056E+00 0.19644938E+04</pdfrwt>
<pdfrwt beam="2">  1       -1 0.21812584E+00 0.19644938E+04</pdfrwt>
<totfact> 0.29970886E+00</totfact>
</mgrwt>
</event>
<event>
11    1  0.2502641E-008  0.1418177E+04  0.7818608E-02  0.8940765E-01
         -1   -1    0    0    0  501 -0.00000000000E+00  0.00000000000E+00  0.24634019618E+03  0.24634019618E+03  0.00000000000E+00 0.  1.
          1   -1    0    0  501    0  0.00000000000E+00 -0.00000000000E+00 -0.20411057779E+04  0.20411057779E+04  0.00000000000E+00 0. -1.
         23    2    1    2    0    0 -0.53177252215E+02 -0.35139053275E+02 -0.11808882442E+04  0.11858366479E+04  0.87458201773E+02 0.  0.
        254    2    1    2    0    0  0.53177252215E+02  0.35139053275E+02 -0.61387733752E+03  0.11016093262E+04  0.91248843759E+03 0.  0.
         24    2    4    4    0    0 -0.36024599290E+03  0.10214532688E+03 -0.39635472615E+03  0.55099879690E+03  0.79320628111E+02 0.  0.
         11    1    3    3    0    0 -0.30738408487E+02 -0.39011351719E+02 -0.11153524505E+04  0.11164577127E+04  0.00000000000E+00 0. -1.
        -11    1    3    3    0    0 -0.22438843728E+02  0.38722984435E+01 -0.65535793718E+02  0.69378935286E+02  0.00000000000E+00 0.  1.
          4    1    5    5  502    0 -0.22622901651E+03  0.29539754547E+02 -0.20834008962E+03  0.30896238922E+03  0.00000000000E+00 0. -1.
          3    1    4    4  503    0  0.19226472569E+03 -0.75816846222E+02  0.40561602156E+02  0.21061614963E+03  0.00000000000E+00 0. -1.
         -4    1    4    4    0  503  0.22115851942E+03  0.88105726170E+01 -0.25808421353E+03  0.33999437962E+03  0.00000000000E+00 0.  1.
         -3    1    5    5    0  502 -0.13401697639E+03  0.72605572334E+02 -0.18801463653E+03  0.24203640768E+03  0.00000000000E+00 0.  1.
<mgrwt>
<rscale>  0 0.14181769E+04</rscale>
<asrwt>0</asrwt>
<pdfrwt beam="1">  1        1 0.31401626E+00 0.14181769E+04</pdfrwt>
<pdfrwt beam="2">  1       -1 0.37898493E-01 0.14181769E+04</pdfrwt>
<totfact> 0.18306519E+01</totfact>
</mgrwt>
</event>
<event>
11    1  0.2502641E-008  0.1558221E+04  0.7818608E-02  0.8846634E-01
         -2   -1    0    0    0  501 -0.00000000000E+00  0.00000000000E+00  0.58096087577E+03  0.58096087577E+03  0.00000000000E+00 0.  1.
          2   -1    0    0  501    0  0.00000000000E+00 -0.00000000000E+00 -0.10448436556E+04  0.10448436556E+04  0.00000000000E+00 0. -1.
         23    2    1    2    0    0  0.24116221564E+02  0.51723497247E+03 -0.16394684853E+03  0.55058153878E+03  0.90265457499E+02 0.  0.
        254    2    1    2    0    0 -0.24116221564E+02 -0.51723497247E+03 -0.29993593134E+03  0.10752229926E+04  0.89332486367E+03 0.  0.
         24    2    4    4    0    0 -0.11946949582E+03 -0.52845003542E+03  0.11126988685E+03  0.55784339725E+03  0.72635168945E+02 0.  0.
         11    1    3    3    0    0 -0.13232800952E+02  0.42669527224E+03 -0.12162597847E+03  0.44388832042E+03  0.00000000000E+00 0.  1.
        -11    1    3    3    0    0  0.37349022516E+02  0.90539700236E+02 -0.42320870061E+02  0.10669321836E+03  0.00000000000E+00 0. -1.
          4    1    5    5  502    0 -0.12750305253E+02 -0.20505051154E+03  0.54915180868E+02  0.21265925716E+03  0.00000000000E+00 0. -1.
          1    1    4    4  503    0 -0.57937940659E+02  0.80539819745E+02 -0.34892424894E+02  0.10517104567E+03  0.00000000000E+00 0. -1.
         -2    1    4    4    0  503  0.15329121492E+03 -0.69324756801E+02 -0.37631339329E+03  0.41220854970E+03  0.00000000000E+00 0.  1.
         -3    1    5    5    0  502 -0.10671919057E+03 -0.32339952387E+03  0.56354705983E+02  0.34518414008E+03  0.00000000000E+00 0.  1.
<mgrwt>
<rscale>  0 0.15582211E+04</rscale>
<asrwt>0</asrwt>
<pdfrwt beam="1">  1        2 0.16074518E+00 0.15582211E+04</pdfrwt>
<pdfrwt beam="2">  1       -2 0.89378597E-01 0.15582211E+04</pdfrwt>
<totfact> 0.24368210E+01</totfact>
</mgrwt>
</event>
<event>
11    1  0.2502641E-008  0.1523416E+04  0.7818608E-02  0.8869029E-01
         -1   -1    0    0    0  501 -0.00000000000E+00  0.00000000000E+00  0.44672707102E+03  0.44672707102E+03  0.00000000000E+00 0.  1.
          1   -1    0    0  501    0  0.00000000000E+00 -0.00000000000E+00 -0.12987771233E+04  0.12987771233E+04  0.00000000000E+00 0. -1.
         23    2    1    2    0    0  0.40776621631E+03  0.27426291728E+03 -0.28211166977E+03  0.57384352208E+03  0.90641925480E+02 0.  0.
        254    2    1    2    0    0 -0.40776621631E+03 -0.27426291728E+03 -0.56993838248E+03  0.11716606722E+04  0.89803426217E+03 0.  0.
         24    2    4    4    0    0 -0.25244104288E+03 -0.36635920651E+03 -0.56109975949E+03  0.72106986296E+03  0.84636037503E+02 0.  0.
         11    1    3    3    0    0  0.11706063716E+03  0.53943408023E+02 -0.36019266976E+02  0.13383001022E+03  0.00000000000E+00 0.  1.
        -11    1    3    3    0    0  0.29070557914E+03  0.22031950925E+03 -0.24609240279E+03  0.44001351185E+03  0.00000000000E+00 0. -1.
          2    1    5    5  502    0 -0.38976862414E+02 -0.43275518672E+02 -0.35433946407E+02  0.68172801600E+02  0.00000000000E+00 0. -1.
          3    1    4    4  503    0 -0.10590999973E+03 -0.15028348283E+03 -0.68383958507E+02  0.19615916760E+03  0.00000000000E+00 0. -1.
         -4    1    4    4    0  503 -0.49415173692E+02  0.24237977206E+03  0.59545335514E+02  0.25443164165E+03  0.00000000000E+00 0.  1.
         -1    1    5    5    0  502 -0.21346418047E+03 -0.32308368784E+03 -0.52566581308E+03  0.65289706136E+03  0.00000000000E+00 0.  1.
<mgrwt>
<rscale>  0 0.15234158E+04</rscale>
<asrwt>0</asrwt>
<pdfrwt beam="1">  1        1 0.19981186E+00 0.15234158E+04</pdfrwt>
<pdfrwt beam="2">  1       -1 0.68727242E-01 0.15234158E+04</pdfrwt>
<totfact> 0.18749038E+01</totfact>
</mgrwt>
</event>
<event>
12    1  0.2502641E-008  0.3223246E+04  0.7818608E-02  0.8182705E-01
         -1   -1    0    0    0  501 -0.00000000000E+00  0.00000000000E+00  0.25147307968E+04  0.25147307968E+04  0.00000000000E+00 0.  1.
          1   -1    0    0  501    0  0.00000000000E+00 -0.00000000000E+00 -0.10328453058E+04  0.10328453058E+04  0.00000000000E+00 0. -1.
         23    2    1    2    0    0 -0.12063928753E+04 -0.17122233291E+03 -0.24467173340E+03  0.12459711455E+04  0.88763626161E+02 0.  0.
        254    2    1    2    0    0  0.12063928753E+04  0.17122233291E+03  0.17265572244E+04  0.23016049572E+04  0.91196747369E+03 0.  0.
        -24    2    4    4    0    0  0.27166493710E+03 -0.25143957799E+02 -0.41054254049E+02  0.29093627171E+03  0.92327708502E+02 0.  0.
         24    2    4    4    0    0  0.93472793821E+03  0.19636629071E+03  0.17676114784E+04  0.20106686855E+04  0.77860038166E+02 0.  0.
         11    1    3    3    0    0 -0.87941291984E+03 -0.14865240948E+03 -0.14660915162E+03  0.90385776855E+03  0.00000000000E+00 0. -1.
        -11    1    3    3    0    0 -0.32697995547E+03 -0.22569923435E+02 -0.98062581780E+02  0.34211337692E+03  0.00000000000E+00 0.  1.
          4    1    6    6  502    0  0.19681886328E+03  0.70053140255E+02  0.41913846921E+03  0.46831844270E+03  0.00000000000E+00 0. -1.
          3    1    5    5  503    0 -0.64971471796E+01 -0.12604762028E+01  0.45762445855E+01  0.80463492490E+01  0.00000000000E+00 0. -1.
         -4    1    5    5    0  503  0.27816208428E+03 -0.23883481596E+02 -0.45630498634E+02  0.28288992246E+03  0.00000000000E+00 0.  1.
         -3    1    6    6    0  502  0.73790907493E+03  0.12631315046E+03  0.13484730092E+04  0.15423502428E+04  0.00000000000E+00 0.  1.
<mgrwt>
<rscale>  0 0.32232455E+04</rscale>
<asrwt>0</asrwt>
<pdfrwt beam="1">  1        1 0.15889928E+00 0.32232455E+04</pdfrwt>
<pdfrwt beam="2">  1       -1 0.38688166E+00 0.32232455E+04</pdfrwt>
<totfact> 0.10461515E-01</totfact>
</mgrwt>
</event>
<event>
12    1  0.2502641E-008  0.2945709E+04  0.7818608E-02  0.8259406E-01
         -1   -1    0    0    0  501 -0.00000000000E+00  0.00000000000E+00  0.18689776302E+04  0.18689776302E+04  0.00000000000E+00 0.  1.
          1   -1    0    0  501    0  0.00000000000E+00 -0.00000000000E+00 -0.11606880744E+04  0.11606880744E+04  0.00000000000E+00 0. -1.
         23    2    1    2    0    0 -0.45545962823E+03  0.27441973459E+03 -0.93541636451E+03  0.10815459500E+04  0.10949065371E+03 0.  0.
        254    2    1    2    0    0  0.45545962823E+03 -0.27441973459E+03  0.16437059203E+04  0.19481197547E+04  0.90036201749E+03 0.  0.
        -24    2    4    4    0    0 -0.17790026224E+03 -0.25186190693E+03  0.95511548540E+03  0.10089322149E+04  0.10303252036E+03 0.  0.
         24    2    4    4    0    0  0.63335989047E+03 -0.22557827662E+02  0.68859043489E+03  0.93918753984E+03  0.79138116694E+02 0.  0.
         13    1    3    3    0    0  0.37107314623E+01 -0.43409783076E+01 -0.10896142758E+02  0.12302013968E+02  0.00000000000E+00 0.  1.
        -13    1    3    3    0    0 -0.45917035969E+03  0.27876071290E+03 -0.92452022176E+03  0.10692439360E+04  0.00000000000E+00 0. -1.
          2    1    6    6  502    0  0.27174186854E+02  0.11110752677E+02  0.50535855395E+02  0.58444485939E+02  0.00000000000E+00 0. -1.
          1    1    5    5  503    0  0.75430779049E+01 -0.26728345093E+02  0.15143248383E+03  0.15395810993E+03  0.00000000000E+00 0. -1.
         -2    1    5    5    0  503 -0.18544334015E+03 -0.22513356183E+03  0.80368300157E+03  0.85497410492E+03  0.00000000000E+00 0.  1.
         -1    1    6    6    0  502  0.60618570362E+03 -0.33668580339E+02  0.63805457950E+03  0.88074305390E+03  0.00000000000E+00 0.  1.
<mgrwt>
<rscale>  0 0.29457088E+04</rscale>
<asrwt>0</asrwt>
<pdfrwt beam="1">  1        1 0.17856740E+00 0.29457088E+04</pdfrwt>
<pdfrwt beam="2">  1       -1 0.28753502E+00 0.29457088E+04</pdfrwt>
<totfact> 0.38842368E-01</totfact>
</mgrwt>
</event>
<event>
11    1  0.2502641E-008  0.1736827E+04  0.7818608E-02  0.8740635E-01
         -2   -1    0    0    0  501 -0.00000000000E+00  0.00000000000E+00  0.49202082397E+03  0.49202082397E+03  0.00000000000E+00 0.  1.
          2   -1    0    0  501    0  0.00000000000E+00 -0.00000000000E+00 -0.15327440742E+04  0.15327440742E+04  0.00000000000E+00 0. -1.
         23    2    1    2    0    0 -0.42884793113E+03 -0.24358721504E+03  0.88112375481E+02  0.50910345247E+03  0.90428177223E+02 0.  0.
        254    2    1    2    0    0  0.42884793113E+03  0.24358721504E+03 -0.11288356257E+04  0.15156614457E+04  0.88301442158E+03 0.  0.
         24    2    4    4    0    0 -0.17411633014E+03  0.17837072346E+03 -0.12701645576E+03  0.29143433781E+03  0.81658935904E+02 0.  0.
         13    1    3    3    0    0 -0.40771616104E+03 -0.24980489503E+03  0.76618512498E+02  0.48425752447E+03  0.00000000000E+00 0.  1.
        -13    1    3    3    0    0 -0.21131770088E+02  0.62176799869E+01  0.11493862983E+02  0.24845927991E+02  0.00000000000E+00 0. -1.
          2    1    5    5  502    0  0.89280068042E+01  0.94332396246E+01 -0.37791252750E+01  0.13526902940E+02  0.00000000000E+00 0. -1.
          1    1    4    4  503    0 -0.95068813478E+01 -0.73556932939E+02 -0.83135467728E+02  0.11141144093E+03  0.00000000000E+00 0. -1.
         -2    1    4    4    0  503  0.61247114261E+03  0.13877342452E+03 -0.91868370219E+03  0.11128156669E+04  0.00000000000E+00 0.  1.
         -3    1    5    5    0  502 -0.18304433694E+03  0.16893748384E+03 -0.12323733049E+03  0.27790743487E+03  0.00000000000E+00 0.  1.
<mgrwt>
<rscale>  0 0.17368270E+04</rscale>
<asrwt>0</asrwt>
<pdfrwt beam="1">  1        2 0.23580678E+00 0.17368270E+04</pdfrwt>
<pdfrwt beam="2">  1       -2 0.75695512E-01 0.17368270E+04</pdfrwt>
<totfact> 0.18055918E+01</totfact>
</mgrwt>
</event>
<event>
11    1  0.2502641E-008  0.1384999E+04  0.7818608E-02  0.8964749E-01
         -2   -1    0    0    0  501 -0.00000000000E+00  0.00000000000E+00  0.12566458656E+04  0.12566458656E+04  0.00000000000E+00 0.  1.
          2   -1    0    0  501    0  0.00000000000E+00 -0.00000000000E+00 -0.38161537893E+03  0.38161537893E+03  0.00000000000E+00 0. -1.
         23    2    1    2    0    0 -0.32321023869E+03  0.17938096117E+03  0.10430899099E+03  0.39294144591E+03  0.82947131906E+02 0.  0.
        254    2    1    2    0    0  0.32321023869E+03 -0.17938096117E+03  0.77072149566E+03  0.12453197986E+04  0.90563093437E+03 0.  0.
         24    2    4    4    0    0  0.19726741063E+03  0.19969350724E+03  0.23465488014E+03  0.37368839641E+03  0.76080067702E+02 0.  0.
         13    1    3    3    0    0 -0.94085165684E+02  0.66810176695E+02  0.71014905527E+02  0.13549440918E+03  0.00000000000E+00 0. -1.
        -13    1    3    3    0    0 -0.22912507300E+03  0.11257078447E+03  0.33294085468E+02  0.25744703673E+03  0.00000000000E+00 0.  1.
          2    1    5    5  502    0  0.82913397484E+02  0.34349004087E+02  0.75418128077E+02  0.11722789603E+03  0.00000000000E+00 0. -1.
          1    1    4    4  503    0 -0.11440867224E+03 -0.41117476688E+03  0.24253204331E+03  0.49089288571E+03  0.00000000000E+00 0. -1.
         -2    1    4    4    0  503  0.24035150030E+03  0.32100298474E+02  0.29353457220E+03  0.38073851648E+03  0.00000000000E+00 0.  1.
         -1    1    5    5    0  502  0.11435401315E+03  0.16534450316E+03  0.15923675207E+03  0.25646050038E+03  0.00000000000E+00 0.  1.
<mgrwt>
<rscale>  0 0.13849988E+04</rscale>
<asrwt>0</asrwt>
<pdfrwt beam="1">  1        2 0.58710059E-01 0.13849988E+04</pdfrwt>
<pdfrwt beam="2">  1       -2 0.19333013E+00 0.13849988E+04</pdfrwt>
<totfact> 0.12017336E+01</totfact>
</mgrwt>
</event>
<event>
12    1  0.2502641E-008  0.2179515E+04  0.7818608E-02  0.8527003E-01
         -2   -1    0    0    0  501 -0.00000000000E+00  0.00000000000E+00  0.66631082159E+03  0.66631082159E+03  0.00000000000E+00 0.  1.
          2   -1    0    0  501    0  0.00000000000E+00 -0.00000000000E+00 -0.17823091143E+04  0.17823091143E+04  0.00000000000E+00 0. -1.
         23    2    1    2    0    0  0.74387956374E+03 -0.50094134999E+03 -0.36152957972E+03  0.97113853854E+03  0.90041004774E+02 0.  0.
        254    2    1    2    0    0 -0.74387956374E+03  0.50094134999E+03 -0.75446871302E+03  0.14774813974E+04  0.89968283257E+03 0.  0.
        -24    2    4    4    0    0  0.12201089858E+03  0.26088759638E+03 -0.40993225803E+03  0.51181137389E+03  0.10467773859E+03 0.  0.
         24    2    4    4    0    0 -0.86589046232E+03  0.24005375361E+03 -0.34453645500E+03  0.96567002350E+03  0.80131941816E+02 0.  0.
         11    1    3    3    0    0  0.45077723665E+03 -0.25089672040E+03 -0.19758547015E+03  0.55243940790E+03  0.00000000000E+00 0.  1.
        -11    1    3    3    0    0  0.29310232709E+03 -0.25004462959E+03 -0.16394410957E+03  0.41869913064E+03  0.00000000000E+00 0. -1.
          4    1    6    6  502    0 -0.80945274760E+03  0.20289039663E+03 -0.32134813126E+03  0.89422753542E+03  0.00000000000E+00 0. -1.
          3    1    5    5  503    0  0.10324481613E+03  0.19470432681E+03 -0.37424311696E+03  0.43431230414E+03  0.00000000000E+00 0. -1.
         -4    1    5    5    0  503  0.18766082455E+02  0.66183269575E+02 -0.35689141063E+02  0.77499069750E+02  0.00000000000E+00 0.  1.
         -3    1    6    6    0  502 -0.56437714724E+02  0.37163356976E+02 -0.23188323735E+02  0.71442488077E+02  0.00000000000E+00 0.  1.
<mgrwt>
<rscale>  0 0.21795154E+04</rscale>
<asrwt>0</asrwt>
<pdfrwt beam="1">  1        2 0.27420140E+00 0.21795154E+04</pdfrwt>
<pdfrwt beam="2">  1       -2 0.10250936E+00 0.21795154E+04</pdfrwt>
<totfact> 0.62922245E+00</totfact>
</mgrwt>
</event>
<event>
11    1  0.2502641E-008  0.3555675E+04  0.7818608E-02  0.8100721E-01
         -2   -1    0    0    0  501 -0.00000000000E+00  0.00000000000E+00  0.26514289973E+04  0.26514289973E+04  0.00000000000E+00 0. -1.
          2   -1    0    0  501    0  0.00000000000E+00 -0.00000000000E+00 -0.11920767056E+04  0.11920767056E+04  0.00000000000E+00 0.  1.
         23    2    1    2    0    0 -0.11131996839E+04 -0.64556653321E+03 -0.45105740324E+03  0.13666626817E+04  0.91347795137E+02 0.  0.
        254    2    1    2    0    0  0.11131996839E+04  0.64556653321E+03  0.19104096950E+04  0.24768430212E+04  0.91055832552E+03 0.  0.
         24    2    4    4    0    0 -0.16254557815E+02  0.86763457065E+02 -0.44471137196E+02  0.12727854954E+03  0.80187523949E+02 0.  0.
         13    1    3    3    0    0 -0.10367070711E+04 -0.57915882537E+03 -0.39885569720E+03  0.12527060163E+04  0.00000000000E+00 0. -1.
        -13    1    3    3    0    0 -0.76492612796E+02 -0.66407707839E+02 -0.52201706037E+02  0.11395666539E+03  0.00000000000E+00 0.  1.
          2    1    5    5  502    0 -0.27405911790E+02  0.48584939283E+02  0.13104970219E+02  0.57300266759E+02  0.00000000000E+00 0. -1.
          1    1    4    4  503    0  0.38248141220E+03  0.32518455027E+03  0.96381514802E+03  0.10867275012E+04  0.00000000000E+00 0. -1.
         -2    1    4    4    0  503  0.74697282947E+03  0.23361852587E+03  0.99106568415E+03  0.12628369704E+04  0.00000000000E+00 0.  1.
         -1    1    5    5    0  502  0.11151353976E+02  0.38178517782E+02 -0.57576107415E+02  0.69978282778E+02  0.00000000000E+00 0.  1.
<mgrwt>
<rscale>  0 0.35556753E+04</rscale>
<asrwt>0</asrwt>
<pdfrwt beam="1">  1        2 0.18339642E+00 0.35556753E+04</pdfrwt>
<pdfrwt beam="2">  1       -2 0.40791215E+00 0.35556753E+04</pdfrwt>
<totfact> 0.10308033E-01</totfact>
</mgrwt>
</event>
<event>
11    1  0.2502641E-008  0.2261963E+04  0.7818608E-02  0.8493071E-01
         -2   -1    0    0    0  501 -0.00000000000E+00  0.00000000000E+00  0.46457614445E+03  0.46457614445E+03  0.00000000000E+00 0.  1.
          2   -1    0    0  501    0  0.00000000000E+00 -0.00000000000E+00 -0.27533027255E+04  0.27533027255E+04  0.00000000000E+00 0. -1.
         23    2    1    2    0    0 -0.44280985391E+03  0.72583517766E+03 -0.15672420306E+04  0.17853026878E+04  0.90226563624E+02 0.  0.
        254    2    1    2    0    0  0.44280985391E+03 -0.72583517766E+03 -0.72148455048E+03  0.14325761822E+04  0.89934269845E+03 0.  0.
         24    2    4    4    0    0  0.31320373691E+03 -0.29213603037E+03  0.13389995073E+03  0.45610027266E+03  0.81597921909E+02 0.  0.
         13    1    3    3    0    0 -0.36679411437E+03  0.58433381508E+03 -0.11945282541E+04  0.13794497742E+04  0.00000000000E+00 0. -1.
        -13    1    3    3    0    0 -0.76015739532E+02  0.14150136258E+03 -0.37271377649E+03  0.40585291357E+03  0.00000000000E+00 0.  1.
          2    1    5    5  502    0  0.19846726978E+01 -0.23060260133E+02  0.15970976904E+02  0.28120928619E+02  0.00000000000E+00 0. -1.
          1    1    4    4  503    0 -0.10037121401E+02 -0.28607388242E+02 -0.13438834570E+03  0.13776557599E+03  0.00000000000E+00 0. -1.
         -2    1    4    4    0  503  0.13964323840E+03 -0.40509175905E+03 -0.72099615551E+03  0.83871033351E+03  0.00000000000E+00 0.  1.
         -1    1    5    5    0  502  0.31121906421E+03 -0.26907577023E+03  0.11792897382E+03  0.42797934404E+03  0.00000000000E+00 0.  1.
<mgrwt>
<rscale>  0 0.22619627E+04</rscale>
<asrwt>0</asrwt>
<pdfrwt beam="1">  1        2 0.42358504E+00 0.22619627E+04</pdfrwt>
<pdfrwt beam="2">  1       -2 0.71473252E-01 0.22619627E+04</pdfrwt>
<totfact> 0.39866391E+00</totfact>
</mgrwt>
</event>
<event>
11    1  0.2502641E-008  0.1332501E+04  0.7818608E-02  0.9004182E-01
          1   -1    0    0  501    0  0.00000000000E+00  0.00000000000E+00  0.26301245847E+04  0.26301245847E+04  0.00000000000E+00 0.  1.
         -1   -1    0    0    0  501 -0.00000000000E+00 -0.00000000000E+00 -0.16877130675E+03  0.16877130675E+03  0.00000000000E+00 0. -1.
         23    2    1    2    0    0 -0.24802647833E+03 -0.25910315578E+03  0.63855431339E+03  0.73807412926E+03  0.91379592111E+02 0.  0.
        254    2    1    2    0    0  0.24802647833E+03  0.25910315578E+03  0.18227989646E+04  0.20608217622E+04  0.89204186618E+03 0.  0.
         24    2    4    4    0    0 -0.31506347997E+02  0.27413020083E+03  0.96624790522E+03  0.10081065091E+04  0.80645535386E+02 0.  0.
         13    1    3    3    0    0 -0.49315800873E+02 -0.22023391527E+02  0.52145432157E+02  0.75074789942E+02  0.00000000000E+00 0.  1.
        -13    1    3    3    0    0 -0.19871067746E+03 -0.23707976426E+03  0.58640888123E+03  0.66299933932E+03  0.00000000000E+00 0. -1.
          4    1    5    5  502    0  0.14354543865E+02  0.98759242515E+02  0.45079237883E+03  0.46170684392E+03  0.00000000000E+00 0. -1.
          1    1    4    4  503    0 -0.11189257483E+03  0.86087181064E+01  0.53195045772E+03  0.54365922028E+03  0.00000000000E+00 0. -1.
         -2    1    4    4    0  503  0.39142540116E+03 -0.23635763158E+02  0.32460060166E+03  0.50905603284E+03  0.00000000000E+00 0.  1.
         -3    1    5    5    0  502 -0.45860891862E+02  0.17537095832E+03  0.51545552638E+03  0.54639966518E+03  0.00000000000E+00 0.  1.
<mgrwt>
<rscale>  0 0.13325008E+04</rscale>
<asrwt>0</asrwt>
<pdfrwt beam="1">  1        1 0.40463452E+00 0.13325008E+04</pdfrwt>
<pdfrwt beam="2">  1       -1 0.25964818E-01 0.13325008E+04</pdfrwt>
<totfact> 0.14212956E+01</totfact>
</mgrwt>
</event>
<event>
11    1  0.2502641E-008  0.1184860E+04  0.7818608E-02  0.9126213E-01
         -1   -1    0    0    0  501 -0.00000000000E+00  0.00000000000E+00  0.63420453231E+03  0.63420453231E+03  0.00000000000E+00 0.  1.
          1   -1    0    0  501    0  0.00000000000E+00 -0.00000000000E+00 -0.55340667716E+03  0.55340667716E+03  0.00000000000E+00 0. -1.
         23    2    1    2    0    0 -0.12262510686E+03  0.12518277432E+03 -0.14456998482E+03  0.24525366946E+03  0.92418818711E+02 0.  0.
        254    2    1    2    0    0  0.12262510686E+03 -0.12518277432E+03  0.22536783997E+03  0.94235754000E+03  0.89807540111E+03 0.  0.
         24    2    4    4    0    0  0.13459303575E+03  0.36607681621E+03  0.27147634529E+02  0.39920257401E+03  0.80611291994E+02 0.  0.
         13    1    3    3    0    0 -0.13320244642E+03  0.12597763736E+03 -0.12173187480E+03  0.22007250212E+03  0.00000000000E+00 0. -1.
        -13    1    3    3    0    0  0.10577339554E+02 -0.79486303582E+00 -0.22838110027E+02  0.25181167345E+02  0.00000000000E+00 0.  1.
          2    1    5    5  502    0  0.38217559251E+02  0.39349748343E+02 -0.12493864433E+02  0.56259054188E+02  0.00000000000E+00 0. -1.
          3    1    4    4  503    0  0.52341358143E+01 -0.22354065339E+02  0.43318764100E+02  0.49026683939E+02  0.00000000000E+00 0. -1.
         -4    1    4    4    0  503 -0.17202064702E+02 -0.46890552520E+03  0.15490144134E+03  0.49412828205E+03  0.00000000000E+00 0.  1.
         -1    1    5    5    0  502  0.96375476499E+02  0.32672706787E+03  0.39641498962E+02  0.34294351983E+03  0.00000000000E+00 0.  1.
<mgrwt>
<rscale>  0 0.11848595E+04</rscale>
<asrwt>0</asrwt>
<pdfrwt beam="1">  1        1 0.85139489E-01 0.11848595E+04</pdfrwt>
<pdfrwt beam="2">  1       -1 0.97569928E-01 0.11848595E+04</pdfrwt>
<totfact> 0.38428555E+01</totfact>
</mgrwt>
</event>
<event>
11    1  0.2502641E-008  0.1741751E+04  0.7818608E-02  0.8737904E-01
          2   -1    0    0  501    0  0.00000000000E+00  0.00000000000E+00  0.36595372117E+04  0.36595372117E+04  0.00000000000E+00 0. -1.
         -2   -1    0    0    0  501 -0.00000000000E+00 -0.00000000000E+00 -0.20724594244E+03  0.20724594244E+03  0.00000000000E+00 0.  1.
         23    2    1    2    0    0 -0.41076379696E+03  0.26297058991E+03  0.21568799591E+04  0.22132078790E+04  0.90980929770E+02 0.  0.
        254    2    1    2    0    0  0.41076379696E+03 -0.26297058991E+03  0.12954113102E+04  0.16535752752E+04  0.90462163364E+03 0.  0.
         24    2    4    4    0    0 -0.69567586905E+02  0.19624695221E+03  0.75052540804E+03  0.78265314780E+03  0.76844298731E+02 0.  0.
         11    1    3    3    0    0 -0.34944225849E+03  0.25246002804E+03  0.17967787074E+04  0.18477715446E+04  0.00000000000E+00 0. -1.
        -11    1    3    3    0    0 -0.61321538473E+02  0.10510561868E+02  0.36010125166E+03  0.36543633432E+03  0.00000000000E+00 0.  1.
          2    1    5    5  502    0 -0.78634959081E+02  0.15315095444E+03  0.65850047838E+03  0.68063319906E+03  0.00000000000E+00 0. -1.
          1    1    4    4  503    0  0.17251330430E+03 -0.14613378360E+03  0.10453860457E+03  0.24908681762E+03  0.00000000000E+00 0. -1.
         -2    1    4    4    0  503  0.30781807957E+03 -0.31308375853E+03  0.44034729757E+03  0.62183530974E+03  0.00000000000E+00 0.  1.
         -1    1    5    5    0  502  0.90673721758E+01  0.43095997770E+02  0.92024929657E+02  0.10201994874E+03  0.00000000000E+00 0.  1.
<mgrwt>
<rscale>  0 0.17417511E+04</rscale>
<asrwt>0</asrwt>
<pdfrwt beam="1">  1        2 0.56300568E+00 0.17417511E+04</pdfrwt>
<pdfrwt beam="2">  1       -2 0.31883994E-01 0.17417511E+04</pdfrwt>
<totfact> 0.54834449E+00</totfact>
</mgrwt>
</event>
<event>
11    1  0.2502641E-008  0.1717116E+04  0.7818608E-02  0.8751662E-01
         -2   -1    0    0    0  501 -0.00000000000E+00  0.00000000000E+00  0.13849920487E+04  0.13849920487E+04  0.00000000000E+00 0.  1.
          2   -1    0    0  501    0  0.00000000000E+00 -0.00000000000E+00 -0.53222076523E+03  0.53222076523E+03  0.00000000000E+00 0. -1.
         23    2    1    2    0    0  0.18472441804E+03 -0.49713803527E+03 -0.30084000496E+02  0.54326022051E+03  0.11383006352E+03 0.  0.
        254    2    1    2    0    0 -0.18472441804E+03  0.49713803527E+03  0.88285528394E+03  0.13739525934E+04  0.90941901223E+03 0.  0.
         24    2    4    4    0    0  0.63479312081E+02  0.32848832895E+03  0.90702792325E+03  0.97011240550E+03  0.80524657252E+02 0.  0.
         11    1    3    3    0    0 -0.18440417739E+00 -0.21141976488E+02 -0.24791430900E+02  0.32582698182E+02  0.00000000000E+00 0.  1.
        -11    1    3    3    0    0  0.18490882222E+03 -0.47599605878E+03 -0.52925695954E+01  0.51067752232E+03  0.00000000000E+00 0. -1.
          4    1    5    5  502    0  0.70162995004E+02  0.18306709273E+03  0.46190564320E+03  0.50179002534E+03  0.00000000000E+00 0. -1.
          1    1    4    4  503    0  0.31131083431E+02  0.73728557795E+02  0.56525503137E+02  0.97980493442E+02  0.00000000000E+00 0. -1.
         -2    1    4    4    0  503 -0.27933481356E+03  0.94921148527E+02 -0.80698142448E+02  0.30585969446E+03  0.00000000000E+00 0.  1.
         -3    1    5    5    0  502 -0.66836829225E+01  0.14542123622E+03  0.44512228005E+03  0.46832238016E+03  0.00000000000E+00 0.  1.
<mgrwt>
<rscale>  0 0.17171156E+04</rscale>
<asrwt>0</asrwt>
<pdfrwt beam="1">  1        2 0.81880118E-01 0.17171156E+04</pdfrwt>
<pdfrwt beam="2">  1       -2 0.21307570E+00 0.17171156E+04</pdfrwt>
<totfact> 0.59459375E+00</totfact>
</mgrwt>
</event>
<event>
12    1  0.2502641E-008  0.1556586E+04  0.7818608E-02  0.8847672E-01
         -1   -1    0    0    0  501 -0.00000000000E+00  0.00000000000E+00  0.31331454434E+03  0.31331454434E+03  0.00000000000E+00 0.  1.
          1   -1    0    0  501    0  0.00000000000E+00 -0.00000000000E+00 -0.19333287732E+04  0.19333287732E+04  0.00000000000E+00 0. -1.
         23    2    1    2    0    0  0.21552166329E+03  0.41719792107E+03 -0.18631920059E+03  0.51137895249E+03  0.79308863633E+02 0.  0.
        254    2    1    2    0    0 -0.21552166329E+03 -0.41719792107E+03 -0.14336950283E+04  0.17352643651E+04  0.85741313836E+03 0.  0.
        -24    2    4    4    0    0 -0.33938040439E+03 -0.62643528480E+03 -0.10031646085E+04  0.12341223191E+04  0.95490533204E+02 0.  0.
         24    2    4    4    0    0  0.12385874110E+03  0.20923736373E+03 -0.43053041985E+03  0.50114204598E+03  0.81643405751E+02 0.  0.
         11    1    3    3    0    0  0.20234897457E+03  0.41244320429E+03 -0.18960267472E+03  0.49699464639E+03  0.00000000000E+00 0.  1.
        -11    1    3    3    0    0  0.13172688720E+02  0.47547167811E+01  0.32834741328E+01  0.14384306107E+02  0.00000000000E+00 0. -1.
          4    1    6    6  502    0  0.12833485298E+03  0.15167791211E+03 -0.32861856006E+03  0.38401325697E+03  0.00000000000E+00 0. -1.
          3    1    5    5  503    0 -0.23186140820E+03 -0.41964908883E+03 -0.59528038698E+03  0.76434534701E+03  0.00000000000E+00 0. -1.
         -4    1    5    5    0  503 -0.10751899619E+03 -0.20678619597E+03 -0.40788422148E+03  0.46977697210E+03  0.00000000000E+00 0.  1.
         -3    1    6    6    0  502 -0.44761118862E+01  0.57559451620E+02 -0.10191185979E+03  0.11712878901E+03  0.00000000000E+00 0.  1.
<mgrwt>
<rscale>  0 0.15565860E+04</rscale>
<asrwt>0</asrwt>
<pdfrwt beam="1">  1        1 0.29743520E+00 0.15565860E+04</pdfrwt>
<pdfrwt beam="2">  1       -1 0.48202238E-01 0.15565860E+04</pdfrwt>
<totfact> 0.13709054E+01</totfact>
</mgrwt>
</event>
<event>
12    1  0.2502641E-008  0.1400208E+04  0.7818608E-02  0.8953668E-01
         -2   -1    0    0    0  501 -0.00000000000E+00  0.00000000000E+00  0.16576601183E+03  0.16576601183E+03  0.00000000000E+00 0. -1.
          2   -1    0    0  501    0  0.00000000000E+00 -0.00000000000E+00 -0.29568538506E+04  0.29568538506E+04  0.00000000000E+00 0.  1.
         23    2    1    2    0    0 -0.31912059602E+03 -0.22369150621E+03 -0.10831116397E+04  0.11547784728E+04  0.92231515112E+02 0.  0.
        254    2    1    2    0    0  0.31912059602E+03  0.22369150621E+03 -0.17079761990E+04  0.19678413896E+04  0.89629302881E+03 0.  0.
        -24    2    4    4    0    0  0.69214589453E+02 -0.19455035699E+03 -0.25017256962E+02  0.21397146037E+03  0.50173916639E+02 0.  0.
         24    2    4    4    0    0  0.24990600656E+03  0.41824186320E+03 -0.16829589421E+04  0.17538699292E+04  0.79559159080E+02 0.  0.
         11    1    3    3    0    0 -0.27656525059E+03 -0.15276080120E+03 -0.90011108635E+03  0.95395186880E+03  0.00000000000E+00 0.  1.
        -11    1    3    3    0    0 -0.42555345424E+02 -0.70930705015E+02 -0.18300055337E+03  0.20082660399E+03  0.00000000000E+00 0. -1.
          2    1    6    6  502    0  0.15680284094E+02  0.84014683013E+02 -0.28006441203E+03  0.29281463959E+03  0.00000000000E+00 0. -1.
          3    1    5    5  503    0 -0.71404266872E+01 -0.88595606955E+01  0.13998891733E+01  0.11464606347E+02  0.00000000000E+00 0. -1.
         -4    1    5    5    0  503  0.76355016141E+02 -0.18569079629E+03 -0.26417146135E+02  0.20250685402E+03  0.00000000000E+00 0.  1.
         -1    1    6    6    0  502  0.23422572247E+03  0.33422718019E+03 -0.14028945300E+04  0.14610552896E+04  0.00000000000E+00 0.  1.
<mgrwt>
<rscale>  0 0.14002084E+04</rscale>
<asrwt>0</asrwt>
<pdfrwt beam="1">  1        2 0.45490057E+00 0.14002084E+04</pdfrwt>
<pdfrwt beam="2">  1       -2 0.25502465E-01 0.14002084E+04</pdfrwt>
<totfact> 0.25164227E+01</totfact>
</mgrwt>
</event>
<event>
11    1  0.2502641E-008  0.2261575E+04  0.7818608E-02  0.8493228E-01
         -3   -1    0    0    0  501 -0.00000000000E+00  0.00000000000E+00  0.20896538421E+04  0.20896538421E+04  0.00000000000E+00 0.  1.
          3   -1    0    0  501    0  0.00000000000E+00 -0.00000000000E+00 -0.61191003505E+03  0.61191003505E+03  0.00000000000E+00 0. -1.
         23    2    1    2    0    0 -0.60548553211E+03  0.98043213081E+02  0.14802834380E+04  0.16049339965E+04  0.91372179311E+02 0.  0.
        254    2    1    2    0    0  0.60548553211E+03 -0.98043213081E+02 -0.25396308741E+01  0.10966298807E+04  0.90904644782E+03 0.  0.
         24    2    4    4    0    0 -0.11441636022E+03 -0.69097503563E+02  0.25143766283E+03  0.29720716637E+03  0.85121283843E+02 0.  0.
         13    1    3    3    0    0 -0.17792161872E+03  0.32889547180E+02  0.55071014711E+03  0.57967188206E+03  0.00000000000E+00 0. -1.
        -13    1    3    3    0    0 -0.42756391339E+03  0.65153665901E+02  0.92957329085E+03  0.10252621144E+04  0.00000000000E+00 0.  1.
          4    1    5    5  502    0 -0.11421536280E+03 -0.84160236475E+02  0.23769755031E+03  0.27681802674E+03  0.00000000000E+00 0. -1.
          3    1    4    4  503    0  0.62437574757E+03  0.14370294955E+02 -0.13161607535E+03  0.63825885879E+03  0.00000000000E+00 0. -1.
         -4    1    4    4    0  503  0.95526144757E+02 -0.43316004473E+02 -0.12236121836E+03  0.16116385554E+03  0.00000000000E+00 0.  1.
         -3    1    5    5    0  502 -0.20099742681E+00  0.15062732911E+02  0.13740112520E+02  0.20389139628E+02  0.00000000000E+00 0.  1.
<mgrwt>
<rscale>  0 0.22615748E+04</rscale>
<asrwt>0</asrwt>
<pdfrwt beam="1">  1        3 0.94140006E-01 0.22615748E+04</pdfrwt>
<pdfrwt beam="2">  1       -3 0.32148520E+00 0.22615748E+04</pdfrwt>
<totfact> 0.68880431E-02</totfact>
</mgrwt>
</event>
<event>
11    1  0.2502641E-008  0.1655030E+04  0.7818608E-02  0.8787436E-01
         -1   -1    0    0    0  501 -0.00000000000E+00  0.00000000000E+00  0.13941817910E+04  0.13941817910E+04  0.00000000000E+00 0.  1.
          1   -1    0    0  501    0  0.00000000000E+00 -0.00000000000E+00 -0.49117046176E+03  0.49117046176E+03  0.00000000000E+00 0. -1.
         23    2    1    2    0    0 -0.12425435986E+03 -0.51896241859E+03  0.74213786288E+02  0.54583810532E+03  0.87580895715E+02 0.  0.
        254    2    1    2    0    0  0.12425435986E+03  0.51896241859E+03  0.82879754299E+03  0.13395141475E+04  0.90699043332E+03 0.  0.
         24    2    4    4    0    0 -0.21240127928E+03 -0.11983131382E+03  0.38844698571E+03  0.46557454903E+03  0.79967198175E+02 0.  0.
         11    1    3    3    0    0  0.60372579105E+01 -0.48647586669E+00 -0.34978448025E+00  0.60669177537E+01  0.00000000000E+00 0.  1.
        -11    1    3    3    0    0 -0.13029161777E+03 -0.51847594273E+03  0.74563570768E+02  0.53977118757E+03  0.00000000000E+00 0. -1.
          2    1    5    5  502    0 -0.43970115121E+01 -0.29380105946E+02  0.49717079213E+02  0.57916425141E+02  0.00000000000E+00 0. -1.
          1    1    4    4  503    0 -0.11592554011E+02  0.12528154799E+03  0.27826152896E+02  0.12885708502E+03  0.00000000000E+00 0. -1.
         -2    1    4    4    0  503  0.34824819315E+03  0.51351218442E+03  0.41252440438E+03  0.74508251341E+03  0.00000000000E+00 0.  1.
         -1    1    5    5    0  502 -0.20800426777E+03 -0.90451207872E+02  0.33872990649E+03  0.40765812389E+03  0.00000000000E+00 0.  1.
<mgrwt>
<rscale>  0 0.16550298E+04</rscale>
<asrwt>0</asrwt>
<pdfrwt beam="1">  1        1 0.75564687E-01 0.16550298E+04</pdfrwt>
<pdfrwt beam="2">  1       -1 0.21448950E+00 0.16550298E+04</pdfrwt>
<totfact> 0.52001157E+00</totfact>
</mgrwt>
</event>
<event>
12    1  0.2502641E-008  0.1122089E+04  0.7818608E-02  0.9183926E-01
         -1   -1    0    0    0  501 -0.00000000000E+00  0.00000000000E+00  0.37229974233E+03  0.37229974233E+03  0.00000000000E+00 0.  1.
          1   -1    0    0  501    0  0.00000000000E+00 -0.00000000000E+00 -0.84547731767E+03  0.84547731767E+03  0.00000000000E+00 0. -1.
         23    2    1    2    0    0  0.38118905852E+02  0.12891199120E+03  0.27944151470E+02  0.16489954986E+03  0.91321593751E+02 0.  0.
        254    2    1    2    0    0 -0.38118905852E+02 -0.12891199120E+03 -0.50112172681E+03  0.10528775101E+04  0.91616413039E+03 0.  0.
        -24    2    4    4    0    0 -0.28241494927E+03  0.30032099580E+03 -0.30143041616E+03  0.51425501482E+03  0.60390565348E+02 0.  0.
         24    2    4    4    0    0  0.24429604342E+03 -0.42923298700E+03 -0.19969131064E+03  0.53862249532E+03  0.79473636879E+02 0.  0.
         11    1    3    3    0    0  0.49074923358E+02  0.70923508785E+02  0.52512326395E+02  0.10097542584E+03  0.00000000000E+00 0.  1.
        -11    1    3    3    0    0 -0.10956017505E+02  0.57988482418E+02 -0.24568174926E+02  0.63924124021E+02  0.00000000000E+00 0. -1.
          4    1    6    6  502    0  0.17824793920E+03 -0.23842308080E+03 -0.10565174984E+03  0.31588001762E+03  0.00000000000E+00 0. -1.
          1    1    5    5  503    0 -0.22518537748E+03  0.25376565176E+03 -0.21991238171E+03  0.40431042019E+03  0.00000000000E+00 0. -1.
         -4    1    5    5    0  503 -0.57229571789E+02  0.46555344043E+02 -0.81518034458E+02  0.10994459463E+03  0.00000000000E+00 0.  1.
         -3    1    6    6    0  502  0.66048104215E+02 -0.19080990621E+03 -0.94039560807E+02  0.22274247771E+03  0.00000000000E+00 0.  1.
<mgrwt>
<rscale>  0 0.11220891E+04</rscale>
<asrwt>0</asrwt>
<pdfrwt beam="1">  1        1 0.13007343E+00 0.11220891E+04</pdfrwt>
<pdfrwt beam="2">  1       -1 0.57276884E-01 0.11220891E+04</pdfrwt>
<totfact> 0.62056390E+01</totfact>
</mgrwt>
</event>
<event>
12    1  0.2502641E-008  0.1551103E+04  0.7818608E-02  0.8851164E-01
          1   -1    0    0  501    0  0.00000000000E+00  0.00000000000E+00  0.93701853854E+03  0.93701853854E+03  0.00000000000E+00 0. -1.
         -1   -1    0    0    0  501 -0.00000000000E+00 -0.00000000000E+00 -0.64190839567E+03  0.64190839567E+03  0.00000000000E+00 0.  1.
         23    2    1    2    0    0  0.11222845518E+03  0.17287814318E+03 -0.34473247723E+03  0.41137455941E+03  0.88918326171E+02 0.  0.
        254    2    1    2    0    0 -0.11222845518E+03 -0.17287814318E+03  0.63984262010E+03  0.11675523748E+04  0.95461923868E+03 0.  0.
        -24    2    4    4    0    0 -0.98545291489E+02  0.36969146142E+03  0.41915173315E+03  0.57622023085E+03  0.99792925160E+02 0.  0.
         24    2    4    4    0    0 -0.13683163693E+02 -0.54256960460E+03  0.22069088694E+03  0.59133214395E+03  0.80001450515E+02 0.  0.
         13    1    3    3    0    0  0.24433805177E+02  0.67047404836E+02 -0.19711528187E+03  0.20963491999E+03  0.00000000000E+00 0.  1.
        -13    1    3    3    0    0  0.87794650005E+02  0.10583073835E+03 -0.14761719536E+03  0.20173963942E+03  0.00000000000E+00 0. -1.
          4    1    6    6  502    0 -0.76655075679E+00 -0.20153766849E+03  0.12396898286E+03  0.23661430247E+03  0.00000000000E+00 0. -1.
          3    1    5    5  503    0 -0.78621006057E+01  0.45620634858E+01 -0.40637031361E+01  0.99568434938E+01  0.00000000000E+00 0. -1.
         -4    1    5    5    0  503 -0.90683190884E+02  0.36512939793E+03  0.42321543629E+03  0.56626338735E+03  0.00000000000E+00 0.  1.
         -3    1    6    6    0  502 -0.12916612936E+02 -0.34103193611E+03  0.96721904082E+02  0.35471784148E+03  0.00000000000E+00 0.  1.
<mgrwt>
<rscale>  0 0.15511029E+04</rscale>
<asrwt>0</asrwt>
<pdfrwt beam="1">  1        1 0.14415670E+00 0.15511029E+04</pdfrwt>
<pdfrwt beam="2">  1       -1 0.98755137E-01 0.15511029E+04</pdfrwt>
<totfact> 0.16045869E+01</totfact>
</mgrwt>
</event>
<event>
11    1  0.2502641E-008  0.1326957E+04  0.7818608E-02  0.9008457E-01
         -1   -1    0    0    0  501 -0.00000000000E+00  0.00000000000E+00  0.41319371997E+03  0.41319371997E+03  0.00000000000E+00 0.  1.
          1   -1    0    0  501    0  0.00000000000E+00 -0.00000000000E+00 -0.10653687274E+04  0.10653687274E+04  0.00000000000E+00 0. -1.
         23    2    1    2    0    0 -0.34036279773E+03 -0.44671884895E+02 -0.82731512947E+02  0.36401742985E+03  0.88440797282E+02 0.  0.
        254    2    1    2    0    0  0.34036279773E+03  0.44671884895E+02 -0.56944349449E+03  0.11145450175E+04  0.89448437175E+03 0.  0.
         24    2    4    4    0    0 -0.18307862671E+03  0.13364975917E+03  0.90083443115E+02  0.25652477039E+03  0.79434812377E+02 0.  0.
         11    1    3    3    0    0 -0.79852178877E+02 -0.28997292658E+02 -0.55820108859E+02  0.10165184704E+03  0.00000000000E+00 0. -1.
        -11    1    3    3    0    0 -0.26051061885E+03 -0.15674592237E+02 -0.26911404088E+02  0.26236558282E+03  0.00000000000E+00 0.  1.
          2    1    5    5  502    0 -0.16340226057E+03  0.10161334399E+03  0.10107894085E+03  0.21735345113E+03  0.00000000000E+00 0. -1.
          1    1    4    4  503    0  0.24990741291E+03 -0.91275258816E+02 -0.24695710638E+03  0.36300509679E+03  0.00000000000E+00 0. -1.
         -2    1    4    4    0  503  0.27353401152E+03  0.22973845367E+01 -0.41256983122E+03  0.49501515034E+03  0.00000000000E+00 0.  1.
         -1    1    5    5    0  502 -0.19676366135E+02  0.32036415187E+02 -0.10995497731E+02  0.39171319262E+02  0.00000000000E+00 0.  1.
<mgrwt>
<rscale>  0 0.13269569E+04</rscale>
<asrwt>0</asrwt>
<pdfrwt beam="1">  1        1 0.16390288E+00 0.13269569E+04</pdfrwt>
<pdfrwt beam="2">  1       -1 0.63568266E-01 0.13269569E+04</pdfrwt>
<totfact> 0.33149525E+01</totfact>
</mgrwt>
</event>
<event>
11    1  0.2502641E-008  0.1727658E+04  0.7818608E-02  0.8745746E-01
          1   -1    0    0  501    0  0.00000000000E+00  0.00000000000E+00  0.10474469605E+04  0.10474469605E+04  0.00000000000E+00 0. -1.
         -1   -1    0    0    0  501 -0.00000000000E+00 -0.00000000000E+00 -0.71239898549E+03  0.71239898549E+03  0.00000000000E+00 0.  1.
         23    2    1    2    0    0  0.13699280684E+03 -0.52678499520E+03  0.43710935266E+03  0.70429119258E+03  0.93231097159E+02 0.  0.
        254    2    1    2    0    0 -0.13699280684E+03  0.52678499520E+03 -0.10206137765E+03  0.10555547534E+04  0.89861551974E+03 0.  0.
         24    2    4    4    0    0  0.22096543502E+03 -0.21027917789E+02 -0.23916153744E+03  0.33581617357E+03  0.79412622657E+02 0.  0.
         11    1    3    3    0    0  0.14628412722E+03 -0.45882257412E+03  0.36121140954E+03  0.60198910520E+03  0.00000000000E+00 0. -1.
        -11    1    3    3    0    0 -0.92913203798E+01 -0.67962421076E+02  0.75897943120E+02  0.10230208738E+03  0.00000000000E+00 0.  1.
          2    1    5    5  502    0  0.59867654878E+02 -0.29081600132E+02 -0.33696174084E+02  0.74600990038E+02  0.00000000000E+00 0. -1.
          3    1    4    4  503    0 -0.38766079720E+03  0.54602968115E+03  0.10834114086E+03  0.67835618165E+03  0.00000000000E+00 0. -1.
         -4    1    4    4    0  503  0.29702555333E+02  0.17832318381E+01  0.28759018934E+02  0.41382398180E+02  0.00000000000E+00 0.  1.
         -1    1    5    5    0  502  0.16109778015E+03  0.80536823430E+01 -0.20546536336E+03  0.26121518353E+03  0.00000000000E+00 0.  1.
<mgrwt>
<rscale>  0 0.17276575E+04</rscale>
<asrwt>0</asrwt>
<pdfrwt beam="1">  1        1 0.16114569E+00 0.17276575E+04</pdfrwt>
<pdfrwt beam="2">  1       -1 0.10959984E+00 0.17276575E+04</pdfrwt>
<totfact> 0.10161958E+01</totfact>
</mgrwt>
</event>
<event>
11    1  0.2502641E-008  0.1948491E+04  0.7818608E-02  0.8631089E-01
          2   -1    0    0  501    0  0.00000000000E+00  0.00000000000E+00  0.25513055116E+04  0.25513055116E+04  0.00000000000E+00 0. -1.
         -2   -1    0    0    0  501 -0.00000000000E+00 -0.00000000000E+00 -0.37202701164E+03  0.37202701164E+03  0.00000000000E+00 0.  1.
         23    2    1    2    0    0 -0.47338811552E+03 -0.50439221499E+03  0.37638707502E+03  0.79267022978E+03  0.90283157237E+02 0.  0.
        254    2    1    2    0    0  0.47338811552E+03  0.50439221499E+03  0.18028914250E+04  0.21306622935E+04  0.90044239363E+03 0.  0.
         24    2    4    4    0    0  0.45160647380E+03  0.34359757816E+03  0.16207258873E+04  0.17190083426E+04  0.78927669138E+02 0.  0.
         11    1    3    3    0    0 -0.40092488996E+03 -0.44080049496E+03  0.28771783989E+03  0.66168527197E+03  0.00000000000E+00 0.  1.
        -11    1    3    3    0    0 -0.72463225556E+02 -0.63591720028E+02  0.88669235130E+02  0.13098495781E+03  0.00000000000E+00 0. -1.
          2    1    5    5  502    0  0.23576158120E+02 -0.37618013192E+00  0.57717212887E+02  0.62347842037E+02  0.00000000000E+00 0. -1.
          1    1    4    4  503    0 -0.15179572759E+03  0.69666735417E+02  0.12115826308E+03  0.20633642831E+03  0.00000000000E+00 0. -1.
         -2    1    4    4    0  503  0.17357736931E+03  0.91127901414E+02  0.61007274551E+02  0.20531752263E+03  0.00000000000E+00 0.  1.
         -1    1    5    5    0  502  0.42803031568E+03  0.34397375829E+03  0.15630086745E+04  0.16566605005E+04  0.00000000000E+00 0.  1.
<mgrwt>
<rscale>  0 0.19484913E+04</rscale>
<asrwt>0</asrwt>
<pdfrwt beam="1">  1        2 0.39250853E+00 0.19484913E+04</pdfrwt>
<pdfrwt beam="2">  1       -2 0.57234927E-01 0.19484913E+04</pdfrwt>
<totfact> 0.86803410E+00</totfact>
</mgrwt>
</event>
<event>
12    1  0.2502641E-008  0.2815435E+04  0.7818608E-02  0.8298492E-01
          2   -1    0    0  501    0  0.00000000000E+00  0.00000000000E+00  0.22570310345E+04  0.22570310345E+04  0.00000000000E+00 0. -1.
         -2   -1    0    0    0  501 -0.00000000000E+00 -0.00000000000E+00 -0.87799770807E+03  0.87799770807E+03  0.00000000000E+00 0.  1.
         23    2    1    2    0    0  0.57778435283E+03 -0.46868677797E+03 -0.51841620077E+03  0.91119766882E+03  0.89575555953E+02 0.  0.
        254    2    1    2    0    0 -0.57778435283E+03  0.46868677797E+03  0.18974495272E+04  0.22238310738E+04  0.88972348630E+03 0.  0.
        -24    2    4    4    0    0  0.43203301123E+02 -0.17428316499E+03  0.68904171572E+03  0.71880700341E+03  0.98305011713E+02 0.  0.
         24    2    4    4    0    0 -0.62098765396E+03  0.64296994295E+03  0.12084078115E+04  0.15050240703E+04  0.76236471160E+02 0.  0.
         13    1    3    3    0    0  0.66866980797E+02 -0.95311914767E+02 -0.86384228833E+02  0.14497513307E+03  0.00000000000E+00 0. -1.
        -13    1    3    3    0    0  0.51091737204E+03 -0.37337486320E+03 -0.43203197194E+03  0.76622253575E+03  0.00000000000E+00 0.  1.
          4    1    6    6  502    0  0.14418654540E+01  0.16926726987E+01  0.90874923201E+01  0.93555669802E+01  0.00000000000E+00 0. -1.
          1    1    5    5  503    0  0.53727748328E+02 -0.14071088998E+03  0.39627991423E+03  0.42393867000E+03  0.00000000000E+00 0. -1.
         -2    1    5    5    0  503 -0.10524447205E+02 -0.33572275006E+02  0.29276180149E+03  0.29486833341E+03  0.00000000000E+00 0.  1.
         -3    1    6    6    0  502 -0.62242951941E+03  0.64127727025E+03  0.11993203192E+04  0.14956685034E+04  0.00000000000E+00 0.  1.
<mgrwt>
<rscale>  0 0.28154347E+04</rscale>
<asrwt>0</asrwt>
<pdfrwt beam="1">  1        2 0.34723554E+00 0.28154347E+04</pdfrwt>
<pdfrwt beam="2">  1       -2 0.13507657E+00 0.28154347E+04</pdfrwt>
<totfact> 0.16414915E+00</totfact>
</mgrwt>
</event>
<event>
12    1  0.2502641E-008  0.1615521E+04  0.7818608E-02  0.8811069E-01
         -2   -1    0    0    0  501 -0.00000000000E+00  0.00000000000E+00  0.19806444763E+03  0.19806444763E+03  0.00000000000E+00 0.  1.
          2   -1    0    0  501    0  0.00000000000E+00 -0.00000000000E+00 -0.32942673519E+04  0.32942673519E+04  0.00000000000E+00 0. -1.
         23    2    1    2    0    0  0.14135127068E+03  0.13908523583E+03 -0.22617877249E+04  0.22722750915E+04  0.90694512914E+02 0.  0.
        254    2    1    2    0    0 -0.14135127068E+03 -0.13908523583E+03 -0.83441517936E+03  0.12200567079E+04  0.86773544040E+03 0.  0.
        -24    2    4    4    0    0 -0.83756436661E+02  0.19820789239E+03 -0.83362833813E+03  0.86764792248E+03  0.10758811255E+03 0.  0.
         24    2    4    4    0    0 -0.57594834016E+02 -0.33729312822E+03 -0.78684123081E+00  0.35240878547E+03  0.84306071618E+02 0.  0.
         13    1    3    3    0    0  0.11015691829E+03  0.13429249084E+03 -0.21156640424E+04  0.21227819860E+04  0.00000000000E+00 0. -1.
        -13    1    3    3    0    0  0.31194352385E+02  0.47927449904E+01 -0.14612368244E+03  0.14949310551E+03  0.00000000000E+00 0.  1.
          2    1    6    6  502    0 -0.39522999946E+02 -0.25002857034E+03 -0.37747216969E+02  0.25593203375E+03  0.00000000000E+00 0. -1.
          1    1    5    5  503    0 -0.96492062778E+02  0.17563378557E+03 -0.80249723600E+03  0.82713950372E+03  0.00000000000E+00 0. -1.
         -2    1    5    5    0  503  0.12735626117E+02  0.22574106816E+02 -0.31131102124E+02  0.40508418762E+02  0.00000000000E+00 0.  1.
         -1    1    6    6    0  502 -0.18071834069E+02 -0.87264557875E+02  0.36960375738E+02  0.96476751720E+02  0.00000000000E+00 0.  1.
<mgrwt>
<rscale>  0 0.16155213E+04</rscale>
<asrwt>0</asrwt>
<pdfrwt beam="1">  1        2 0.50681036E+00 0.16155213E+04</pdfrwt>
<pdfrwt beam="2">  1       -2 0.30471453E-01 0.16155213E+04</pdfrwt>
<totfact> 0.10815509E+01</totfact>
</mgrwt>
</event>
<event>
11    1  0.2502641E-008  0.2331637E+04  0.7818608E-02  0.8465551E-01
         -2   -1    0    0    0  501 -0.00000000000E+00  0.00000000000E+00  0.42936086065E+03  0.42936086065E+03  0.00000000000E+00 0.  1.
          2   -1    0    0  501    0  0.00000000000E+00 -0.00000000000E+00 -0.31654785722E+04  0.31654785722E+04  0.00000000000E+00 0. -1.
         23    2    1    2    0    0 -0.17768173736E+03  0.62762342218E+03 -0.16885588154E+02  0.65852830145E+03  0.88839410502E+02 0.  0.
        254    2    1    2    0    0  0.17768173736E+03 -0.62762342218E+03 -0.27192321234E+04  0.29363111314E+04  0.89566609831E+03 0.  0.
         24    2    4    4    0    0 -0.11101804776E+03 -0.70396899820E+03 -0.14436471063E+04  0.16118690714E+04  0.78150997737E+02 0.  0.
         13    1    3    3    0    0 -0.56140381544E+02  0.11254922419E+03  0.22794966166E+02  0.12782284924E+03  0.00000000000E+00 0. -1.
        -13    1    3    3    0    0 -0.12154135582E+03  0.51507419799E+03 -0.39680554320E+02  0.53070545221E+03  0.00000000000E+00 0.  1.
          4    1    5    5  502    0 -0.62099797188E+02 -0.49147414204E+03 -0.10730909945E+04  0.11819168751E+04  0.00000000000E+00 0. -1.
          1    1    4    4  503    0  0.29970572410E+03  0.33006325958E+02 -0.11931758836E+04  0.12306833987E+04  0.00000000000E+00 0. -1.
         -2    1    4    4    0  503 -0.11005938973E+02  0.43339250060E+02 -0.82409133468E+02  0.93758661293E+02  0.00000000000E+00 0.  1.
         -3    1    5    5    0  502 -0.48918250576E+02 -0.21249485616E+03 -0.37055611183E+03  0.42995219635E+03  0.00000000000E+00 0.  1.
<mgrwt>
<rscale>  0 0.23316369E+04</rscale>
<asrwt>0</asrwt>
<pdfrwt beam="1">  1        2 0.48699671E+00 0.23316369E+04</pdfrwt>
<pdfrwt beam="2">  1       -2 0.66055516E-01 0.23316369E+04</pdfrwt>
<totfact> 0.26069178E+00</totfact>
</mgrwt>
</event>
<event>
12    1  0.2502641E-008  0.1347718E+04  0.7818608E-02  0.8992557E-01
         -1   -1    0    0    0  501 -0.00000000000E+00  0.00000000000E+00  0.10261490929E+04  0.10261490929E+04  0.00000000000E+00 0.  1.
          1   -1    0    0  501    0  0.00000000000E+00 -0.00000000000E+00 -0.44251474876E+03  0.44251474876E+03  0.00000000000E+00 0. -1.
         23    2    1    2    0    0 -0.66701496917E+02 -0.14005354164E+03 -0.19704376200E+03  0.26854713653E+03  0.96058503927E+02 0.  0.
        254    2    1    2    0    0  0.66701496917E+02  0.14005354164E+03  0.78067810611E+03  0.12001167051E+04  0.89819692513E+03 0.  0.
        -24    2    4    4    0    0  0.28268133550E+03 -0.29471006130E+03  0.38007255948E+03  0.56587692246E+03  0.94861916603E+02 0.  0.
         24    2    4    4    0    0 -0.21597983859E+03  0.43476360295E+03  0.40060554663E+03  0.63423978266E+03  0.78157640648E+02 0.  0.
         11    1    3    3    0    0 -0.27111948266E+02 -0.44003829175E+02 -0.14170948136E+03  0.15084088248E+03  0.00000000000E+00 0. -1.
        -11    1    3    3    0    0 -0.39589548651E+02 -0.96049712468E+02 -0.55334280640E+02  0.11770625405E+03  0.00000000000E+00 0.  1.
          4    1    6    6  502    0 -0.21062321183E+03  0.36577190705E+03  0.33472068460E+03  0.53869208464E+03  0.00000000000E+00 0. -1.
          1    1    5    5  503    0  0.21978303485E+03 -0.18805801876E+03  0.30833949082E+03  0.42278084444E+03  0.00000000000E+00 0. -1.
         -2    1    5    5    0  503  0.62898300652E+02 -0.10665204254E+03  0.71733068664E+02  0.14309607801E+03  0.00000000000E+00 0.  1.
         -3    1    6    6    0  502 -0.53566267571E+01  0.68991695891E+02  0.65884862031E+02  0.95547698020E+02  0.00000000000E+00 0.  1.
<mgrwt>
<rscale>  0 0.13477182E+04</rscale>
<asrwt>0</asrwt>
<pdfrwt beam="1">  1        1 0.68079192E-01 0.13477182E+04</pdfrwt>
<pdfrwt beam="2">  1       -1 0.15786909E+00 0.13477182E+04</pdfrwt>
<totfact> 0.15556591E+01</totfact>
</mgrwt>
</event>
<event>
11    1  0.2502641E-008  0.2183448E+04  0.7818608E-02  0.8525349E-01
         -1   -1    0    0    0  501 -0.00000000000E+00  0.00000000000E+00  0.56092131396E+03  0.56092131396E+03  0.00000000000E+00 0.  1.
          1   -1    0    0  501    0  0.00000000000E+00 -0.00000000000E+00 -0.21248285131E+04  0.21248285131E+04  0.00000000000E+00 0. -1.
         23    2    1    2    0    0 -0.63819062965E+03  0.23259007531E+03  0.80553087132E+02  0.69007155792E+03  0.91238874975E+02 0.  0.
        254    2    1    2    0    0  0.63819062965E+03 -0.23259007531E+03 -0.16444602863E+04  0.19956782692E+04  0.90393401194E+03 0.  0.
         24    2    4    4    0    0  0.55461394046E+03  0.12578967131E+03 -0.49293108415E+03  0.75693733331E+03  0.80953125187E+02 0.  0.
         13    1    3    3    0    0 -0.60492699002E+03  0.20142814788E+03  0.61060829463E+02  0.64049854559E+03  0.00000000000E+00 0.  1.
        -13    1    3    3    0    0 -0.33263639624E+02  0.31161927428E+02  0.19492257669E+02  0.49573012326E+02  0.00000000000E+00 0. -1.
          2    1    5    5  502    0  0.16238971968E+02  0.64023684274E+01 -0.25503490250E+00  0.17457364488E+02  0.00000000000E+00 0. -1.
          1    1    4    4  503    0  0.61584929046E+02  0.65549895637E+01 -0.37951881152E+03  0.38453894429E+03  0.00000000000E+00 0. -1.
         -2    1    4    4    0  503  0.21991760139E+02 -0.36493473618E+03 -0.77201039063E+03  0.85420199158E+03  0.00000000000E+00 0.  1.
         -1    1    5    5    0  502  0.53837496849E+03  0.11938730288E+03 -0.49267604925E+03  0.73947996882E+03  0.00000000000E+00 0.  1.
<mgrwt>
<rscale>  0 0.21834483E+04</rscale>
<asrwt>0</asrwt>
<pdfrwt beam="1">  1        1 0.32689669E+00 0.21834483E+04</pdfrwt>
<pdfrwt beam="2">  1       -1 0.86295587E-01 0.21834483E+04</pdfrwt>
<totfact> 0.29644036E+00</totfact>
</mgrwt>
</event>
<event>
12    1  0.2502641E-008  0.1549538E+04  0.7818608E-02  0.8852163E-01
          2   -1    0    0  501    0  0.00000000000E+00  0.00000000000E+00  0.50776045100E+03  0.50776045100E+03  0.00000000000E+00 0. -1.
         -2   -1    0    0    0  501 -0.00000000000E+00 -0.00000000000E+00 -0.11821854204E+04  0.11821854204E+04  0.00000000000E+00 0.  1.
         23    2    1    2    0    0 -0.13052514965E+03 -0.17499923521E+03  0.27913048234E+03  0.36580886677E+03  0.90778597802E+02 0.  0.
        254    2    1    2    0    0  0.13052514965E+03  0.17499923521E+03 -0.95355545172E+03  0.13241370046E+04  0.89241764912E+03 0.  0.
        -24    2    4    4    0    0 -0.26621943431E+03  0.22692390881E+03 -0.87903325684E+02  0.36714577556E+03  0.68569514050E+02 0.  0.
         24    2    4    4    0    0  0.39674458396E+03 -0.51924673593E+02 -0.86565212604E+03  0.95699122905E+03  0.79850939488E+02 0.  0.
         13    1    3    3    0    0 -0.66626511804E+02 -0.11485631820E+03  0.22909972796E+03  0.26479756657E+03  0.00000000000E+00 0. -1.
        -13    1    3    3    0    0 -0.63898637847E+02 -0.60142917011E+02  0.50030754377E+02  0.10101130020E+03  0.00000000000E+00 0.  1.
          4    1    6    6  502    0  0.26956305239E+03 -0.34114236944E+02 -0.66952949702E+03  0.72256333131E+03  0.00000000000E+00 0. -1.
          1    1    5    5  503    0 -0.18310955559E+03  0.13999693272E+03 -0.26211277685E+02  0.23198120957E+03  0.00000000000E+00 0. -1.
         -2    1    5    5    0  503 -0.83109878720E+02  0.86926976086E+02 -0.61692047999E+02  0.13516456599E+03  0.00000000000E+00 0.  1.
         -3    1    6    6    0  502  0.12718153156E+03 -0.17810436649E+02 -0.19612262902E+03  0.23442789774E+03  0.00000000000E+00 0.  1.
<mgrwt>
<rscale>  0 0.15495380E+04</rscale>
<asrwt>0</asrwt>
<pdfrwt beam="1">  1        2 0.78116993E-01 0.15495380E+04</pdfrwt>
<pdfrwt beam="2">  1       -2 0.18187468E+00 0.15495380E+04</pdfrwt>
<totfact> 0.10236609E+01</totfact>
</mgrwt>
</event>
<event>
11    1  0.2502641E-008  0.2402093E+04  0.7818608E-02  0.8438720E-01
         -1   -1    0    0    0  501 -0.00000000000E+00  0.00000000000E+00  0.44120045983E+03  0.44120045983E+03  0.00000000000E+00 0.  1.
          1   -1    0    0  501    0  0.00000000000E+00 -0.00000000000E+00 -0.32695170381E+04  0.32695170381E+04  0.00000000000E+00 0. -1.
         23    2    1    2    0    0 -0.69598039782E+03 -0.47258583422E+03 -0.21283452153E+04  0.22901999267E+04  0.86233775422E+02 0.  0.
        254    2    1    2    0    0  0.69598039782E+03  0.47258583422E+03 -0.69997136305E+03  0.14205175713E+04  0.90564020249E+03 0.  0.
         24    2    4    4    0    0  0.15188416584E+03  0.34439522230E+03 -0.74363053856E+03  0.83723158646E+03  0.79331472333E+02 0.  0.
         13    1    3    3    0    0 -0.67361886154E+03 -0.47327102559E+03 -0.20680803866E+04  0.22259165123E+04  0.00000000000E+00 0. -1.
        -13    1    3    3    0    0 -0.22361536280E+02  0.68519137136E+00 -0.60264828626E+02  0.64283414356E+02  0.00000000000E+00 0.  1.
          2    1    5    5  502    0  0.15271217318E+03  0.34108341215E+03 -0.70037300367E+03  0.79383955945E+03  0.00000000000E+00 0. -1.
          1    1    4    4  503    0  0.54849775540E+03  0.10615838802E+03  0.37224984945E+02  0.55991525299E+03  0.00000000000E+00 0. -1.
         -2    1    4    4    0  503 -0.44015234138E+01  0.22032223895E+02  0.64341905631E+01  0.23370731831E+02  0.00000000000E+00 0.  1.
         -1    1    5    5    0  502 -0.82800734635E+00  0.33118101531E+01 -0.43257534889E+02  0.43392027002E+02  0.00000000000E+00 0.  1.
<mgrwt>
<rscale>  0 0.24020928E+04</rscale>
<asrwt>0</asrwt>
<pdfrwt beam="1">  1        1 0.50300259E+00 0.24020928E+04</pdfrwt>
<pdfrwt beam="2">  1       -1 0.67876998E-01 0.24020928E+04</pdfrwt>
<totfact> 0.74233436E-01</totfact>
</mgrwt>
</event>
<event>
12    1  0.2502641E-008  0.1449228E+04  0.7818608E-02  0.8918936E-01
          2   -1    0    0  501    0  0.00000000000E+00  0.00000000000E+00  0.40029042936E+04  0.40029042936E+04  0.00000000000E+00 0.  1.
         -2   -1    0    0    0  501 -0.00000000000E+00 -0.00000000000E+00 -0.13117104109E+03  0.13117104109E+03  0.00000000000E+00 0. -1.
         23    2    1    2    0    0 -0.18462135869E+03 -0.40753635988E+03  0.11004688272E+04  0.11914070304E+04  0.90819280775E+02 0.  0.
        254    2    1    2    0    0  0.18462135869E+03  0.40753635988E+03  0.27712644252E+04  0.29426683042E+04  0.88273399355E+03 0.  0.
        -24    2    4    4    0    0 -0.16140507501E+03  0.54770607800E+03  0.13018287721E+04  0.14244337365E+04  0.90662956716E+02 0.  0.
         24    2    4    4    0    0  0.34602643370E+03 -0.14016971812E+03  0.14694356532E+04  0.15182345677E+04  0.80082589752E+02 0.  0.
         13    1    3    3    0    0 -0.10164255908E+03 -0.31770239390E+03  0.83310914129E+03  0.89740562858E+03  0.00000000000E+00 0. -1.
        -13    1    3    3    0    0 -0.82978799606E+02 -0.89833965980E+02  0.26735968596E+03  0.29400140187E+03  0.00000000000E+00 0.  1.
          4    1    6    6  502    0  0.75470823820E+02 -0.90126246855E+01  0.20774608218E+03  0.22121371412E+03  0.00000000000E+00 0. -1.
          1    1    5    5  503    0  0.95315828396E+01  0.31734063941E+02  0.10148244084E+03  0.10675480169E+03  0.00000000000E+00 0. -1.
         -2    1    5    5    0  503 -0.17093665785E+03  0.51597201405E+03  0.12003463312E+04  0.13176789348E+04  0.00000000000E+00 0.  1.
         -3    1    6    6    0  502  0.27055560988E+03 -0.13115709343E+03  0.12616895710E+04  0.12970208536E+04  0.00000000000E+00 0.  1.
<mgrwt>
<rscale>  0 0.14492276E+04</rscale>
<asrwt>0</asrwt>
<pdfrwt beam="1">  1        2 0.61583134E+00 0.14492276E+04</pdfrwt>
<pdfrwt beam="2">  1       -2 0.20180163E-01 0.14492276E+04</pdfrwt>
<totfact> 0.71263423E+00</totfact>
</mgrwt>
</event>
<event>
12    1  0.2502641E-008  0.1771588E+04  0.7818608E-02  0.8721556E-01
         -2   -1    0    0    0  501 -0.00000000000E+00  0.00000000000E+00  0.25717055103E+03  0.25717055103E+03  0.00000000000E+00 0.  1.
          2   -1    0    0  501    0  0.00000000000E+00 -0.00000000000E+00 -0.30510151479E+04  0.30510151479E+04  0.00000000000E+00 0. -1.
         23    2    1    2    0    0 -0.29406822476E+03 -0.43385065148E+03 -0.17624963400E+04  0.18410005258E+04  0.90482477629E+02 0.  0.
        254    2    1    2    0    0  0.29406822476E+03  0.43385065148E+03 -0.10313482569E+04  0.14671851732E+04  0.90235835279E+03 0.  0.
        -24    2    4    4    0    0  0.68282928083E+02 -0.25686283807E+03 -0.47621727804E+03  0.54922654264E+03  0.65006333475E+02 0.  0.
         24    2    4    4    0    0  0.22578529668E+03  0.69071348955E+03 -0.55513097887E+03  0.91795863056E+03  0.80084448489E+02 0.  0.
         13    1    3    3    0    0 -0.27345456398E+03 -0.42981246543E+03 -0.17151147267E+04  0.17891715065E+04  0.00000000000E+00 0. -1.
        -13    1    3    3    0    0 -0.20613660780E+02 -0.40381860529E+01 -0.47381613321E+02  0.51829019268E+02  0.00000000000E+00 0.  1.
          2    1    6    6  502    0  0.53108336902E+02  0.82332567969E+02 -0.88481556698E+02  0.13201565465E+03  0.00000000000E+00 0. -1.
          3    1    5    5  503    0 -0.85339990641E+01 -0.13985971360E+02 -0.14399620404E+02  0.21812510234E+02  0.00000000000E+00 0. -1.
         -4    1    5    5    0  503  0.76816927147E+02 -0.24287686671E+03 -0.46181765764E+03  0.52741403241E+03  0.00000000000E+00 0.  1.
         -1    1    6    6    0  502  0.17267695978E+03  0.60838092158E+03 -0.46664942217E+03  0.78594297592E+03  0.00000000000E+00 0.  1.
<mgrwt>
<rscale>  0 0.17715883E+04</rscale>
<asrwt>0</asrwt>
<pdfrwt beam="1">  1        2 0.46938695E+00 0.17715883E+04</pdfrwt>
<pdfrwt beam="2">  1       -2 0.39564700E-01 0.17715883E+04</pdfrwt>
<totfact> 0.92860131E+00</totfact>
</mgrwt>
</event>
<event>
11    1  0.2502641E-008  0.1654637E+04  0.7818608E-02  0.8787668E-01
         -2   -1    0    0    0  501 -0.00000000000E+00  0.00000000000E+00  0.22674935620E+03  0.22674935620E+03  0.00000000000E+00 0.  1.
          2   -1    0    0  501    0  0.00000000000E+00 -0.00000000000E+00 -0.30185566083E+04  0.30185566083E+04  0.00000000000E+00 0. -1.
         23    2    1    2    0    0 -0.42560908935E+02  0.24115092675E+03  0.39614596937E+02  0.26404256438E+03  0.90465236802E+02 0.  0.
        254    2    1    2    0    0  0.42560908935E+02 -0.24115092675E+03 -0.28314218491E+04  0.29812634002E+04  0.90056458582E+03 0.  0.
         24    2    4    4    0    0  0.26797155960E+03 -0.75645646640E+02 -0.25625812272E+03  0.38697349269E+03  0.80927362328E+02 0.  0.
         13    1    3    3    0    0 -0.54675218953E+02  0.17477428742E+03  0.61389837185E+02  0.19314280526E+03  0.00000000000E+00 0.  1.
        -13    1    3    3    0    0  0.12114310018E+02  0.66376639328E+02 -0.21775240249E+02  0.70899759122E+02  0.00000000000E+00 0. -1.
          2    1    5    5  502    0  0.24431549966E+03 -0.40576669863E+02 -0.21836074085E+03  0.33017865263E+03  0.00000000000E+00 0. -1.
          1    1    4    4  503    0 -0.20343545320E+03 -0.18720799728E+03 -0.24415647196E+04  0.24571672914E+04  0.00000000000E+00 0. -1.
         -2    1    4    4    0  503 -0.21975197464E+02  0.21702717163E+02 -0.13359900679E+03  0.13712261612E+03  0.00000000000E+00 0.  1.
         -1    1    5    5    0  502  0.23656059940E+02 -0.35068976778E+02 -0.37897381873E+02  0.56794840055E+02  0.00000000000E+00 0.  1.
<mgrwt>
<rscale>  0 0.16546368E+04</rscale>
<asrwt>0</asrwt>
<pdfrwt beam="1">  1        2 0.46439331E+00 0.16546368E+04</pdfrwt>
<pdfrwt beam="2">  1       -2 0.34884517E-01 0.16546368E+04</pdfrwt>
<totfact> 0.12547373E+01</totfact>
</mgrwt>
</event>
<event>
12    1  0.2502641E-008  0.2228026E+04  0.7818608E-02  0.8506853E-01
          2   -1    0    0  501    0  0.00000000000E+00  0.00000000000E+00  0.17785803615E+04  0.17785803615E+04  0.00000000000E+00 0.  1.
         -2   -1    0    0    0  501 -0.00000000000E+00 -0.00000000000E+00 -0.69776144041E+03  0.69776144041E+03  0.00000000000E+00 0. -1.
         23    2    1    2    0    0 -0.73380015944E+03 -0.47705849024E+02  0.10739642361E+04  0.13045376939E+04  0.87640701196E+02 0.  0.
        254    2    1    2    0    0  0.73380015944E+03  0.47705849024E+02  0.68546850607E+01  0.11718041080E+04  0.91232634449E+03 0.  0.
        -24    2    4    4    0    0 -0.62863206508E+02  0.30152567727E+03  0.66160460552E+02  0.32930938835E+03  0.95905943132E+02 0.  0.
         24    2    4    4    0    0  0.79666336595E+03 -0.25381982825E+03 -0.59305775491E+02  0.84249471968E+03  0.84753488554E+02 0.  0.
         13    1    3    3    0    0 -0.27391004637E+03 -0.22863281354E+02  0.32906809085E+03  0.42876013289E+03  0.00000000000E+00 0. -1.
        -13    1    3    3    0    0 -0.45989011307E+03 -0.24842567669E+02  0.74489614521E+03  0.87577756104E+03  0.00000000000E+00 0.  1.
          4    1    6    6  502    0  0.66609084015E+03 -0.18475122573E+03 -0.29919438560E+02  0.69188524738E+03  0.00000000000E+00 0. -1.
          1    1    5    5  503    0 -0.14637826607E+02  0.33621524417E+02 -0.22502657113E+02  0.43023742852E+02  0.00000000000E+00 0. -1.
         -2    1    5    5    0  503 -0.48225379901E+02  0.26790415285E+03  0.88663117665E+02  0.28628564549E+03  0.00000000000E+00 0.  1.
         -3    1    6    6    0  502  0.13057252580E+03 -0.69068602518E+02 -0.29386336932E+02  0.15060947230E+03  0.00000000000E+00 0.  1.
<mgrwt>
<rscale>  0 0.22280258E+04</rscale>
<asrwt>0</asrwt>
<pdfrwt beam="1">  1        2 0.27362775E+00 0.22280258E+04</pdfrwt>
<pdfrwt beam="2">  1       -2 0.10734791E+00 0.22280258E+04</pdfrwt>
<totfact> 0.56368976E+00</totfact>
</mgrwt>
</event>
<event>
11    1  0.2502641E-008  0.1033845E+04  0.7818608E-02  0.9272184E-01
          1   -1    0    0  501    0  0.00000000000E+00  0.00000000000E+00  0.21061371652E+03  0.21061371652E+03  0.00000000000E+00 0. -1.
         -1   -1    0    0    0  501 -0.00000000000E+00 -0.00000000000E+00 -0.12687147459E+04  0.12687147459E+04  0.00000000000E+00 0.  1.
         23    2    1    2    0    0  0.23737795368E+02 -0.80976727786E+02 -0.13655376084E+03  0.18639697328E+03  0.94742750000E+02 0.  0.
        254    2    1    2    0    0 -0.23737795368E+02  0.80976727786E+02 -0.92154726858E+03  0.12929314892E+04  0.90294061495E+03 0.  0.
         24    2    4    4    0    0  0.15265967850E+03 -0.18494390026E+03 -0.11292105366E+03  0.27700465189E+03  0.80443701579E+02 0.  0.
         11    1    3    3    0    0 -0.25239060246E+01 -0.76665896547E+02 -0.13992472627E+03  0.15957117163E+03  0.00000000000E+00 0.  1.
        -11    1    3    3    0    0  0.26261701393E+02 -0.43108312391E+01  0.33709654331E+01  0.26825801646E+02  0.00000000000E+00 0. -1.
          2    1    5    5  502    0 -0.76632129180E+00 -0.46441586014E+01 -0.23451212462E+02  0.23918921869E+02  0.00000000000E+00 0. -1.
          1    1    4    4  503    0  0.66437648058E+02 -0.13229079623E+03 -0.21365871439E+03  0.25993241830E+03  0.00000000000E+00 0. -1.
         -2    1    4    4    0  503 -0.24283512193E+03  0.39821142428E+03 -0.59496750053E+03  0.75599441900E+03  0.00000000000E+00 0.  1.
         -1    1    5    5    0  502  0.15342599980E+03 -0.18029974166E+03 -0.89469841201E+02  0.25308573002E+03  0.00000000000E+00 0.  1.
<mgrwt>
<rscale>  0 0.10338447E+04</rscale>
<asrwt>0</asrwt>
<pdfrwt beam="1">  1        1 0.32402111E-01 0.10338447E+04</pdfrwt>
<pdfrwt beam="2">  1       -1 0.19518688E+00 0.10338447E+04</pdfrwt>
<totfact> 0.22644447E+01</totfact>
</mgrwt>
</event>
<event>
12    1  0.2502641E-008  0.1622584E+04  0.7818608E-02  0.8806793E-01
         -2   -1    0    0    0  501 -0.00000000000E+00  0.00000000000E+00  0.27286807159E+03  0.27286807159E+03  0.00000000000E+00 0.  1.
          2   -1    0    0  501    0  0.00000000000E+00 -0.00000000000E+00 -0.24121353278E+04  0.24121353278E+04  0.00000000000E+00 0. -1.
         23    2    1    2    0    0 -0.14182956754E+03 -0.29998520048E+02 -0.14054710701E+04  0.14158195659E+04  0.90446541458E+02 0.  0.
        254    2    1    2    0    0  0.14182956754E+03  0.29998520048E+02 -0.73379618611E+03  0.12691838335E+04  0.10253561445E+04 0.  0.
        -24    2    4    4    0    0 -0.15424532620E+03 -0.11127697438E+03 -0.87659119829E+03  0.90258895480E+03  0.10040172670E+03 0.  0.
         24    2    4    4    0    0  0.29607489374E+03  0.14127549442E+03  0.14279501218E+03  0.36659487868E+03  0.79889182916E+02 0.  0.
         11    1    3    3    0    0 -0.12989085143E+03 -0.35870210424E+02 -0.13841094822E+04  0.13906535744E+04  0.00000000000E+00 0. -1.
        -11    1    3    3    0    0 -0.11938716116E+02  0.58716903767E+01 -0.21361587888E+02  0.25165991486E+02  0.00000000000E+00 0.  1.
          4    1    6    6  502    0  0.21676508471E+03  0.61904915858E+02  0.96327769238E+02  0.24514966792E+03  0.00000000000E+00 0. -1.
          3    1    5    5  503    0 -0.13005351004E+03 -0.34628211139E+02 -0.53484038949E+03  0.55151361788E+03  0.00000000000E+00 0. -1.
         -4    1    5    5    0  503 -0.24191816156E+02 -0.76648763237E+02 -0.34175080880E+03  0.35107533691E+03  0.00000000000E+00 0.  1.
         -3    1    6    6    0  502  0.79309809029E+02  0.79370578566E+02  0.46467242941E+02  0.12144521076E+03  0.00000000000E+00 0.  1.
<mgrwt>
<rscale>  0 0.16225840E+04</rscale>
<asrwt>0</asrwt>
<pdfrwt beam="1">  1        2 0.37109772E+00 0.16225840E+04</pdfrwt>
<pdfrwt beam="2">  1       -2 0.41979705E-01 0.16225840E+04</pdfrwt>
<totfact> 0.20171524E+01</totfact>
</mgrwt>
</event>
<event>
11    1  0.2502641E-008  0.1751761E+04  0.7818608E-02  0.8732382E-01
         -4   -1    0    0    0  501 -0.00000000000E+00  0.00000000000E+00  0.10090636504E+04  0.10090636504E+04  0.00000000000E+00 0. -1.
          4   -1    0    0  501    0  0.00000000000E+00 -0.00000000000E+00 -0.76027582775E+03  0.76027582775E+03  0.00000000000E+00 0.  1.
         23    2    1    2    0    0  0.57510048610E+03 -0.51083774235E+02  0.38490466857E+03  0.70006746339E+03  0.92696970343E+02 0.  0.
        254    2    1    2    0    0 -0.57510048610E+03  0.51083774235E+02 -0.13611684588E+03  0.10692720148E+04  0.88964303224E+03 0.  0.
         24    2    4    4    0    0 -0.77155701040E+03  0.63500171558E+02  0.34610473241E+02  0.77843739231E+03  0.73718361423E+02 0.  0.
         11    1    3    3    0    0  0.52925892989E+03 -0.28475612884E+02  0.32677517689E+03  0.62266194008E+03  0.00000000000E+00 0. -1.
        -11    1    3    3    0    0  0.45841556205E+02 -0.22608161351E+02  0.58129491681E+02  0.77405523305E+02  0.00000000000E+00 0.  1.
          4    1    5    5  502    0 -0.31622126766E+03 -0.10291833281E+02  0.15052992757E+02  0.31674659358E+03  0.00000000000E+00 0. -1.
          1    1    4    4  503    0  0.16893538784E+03  0.42345566457E+02 -0.12609612447E+03  0.21501754549E+03  0.00000000000E+00 0. -1.
         -2    1    4    4    0  503  0.27521136461E+02 -0.54761963780E+02 -0.44631194645E+02  0.75817076998E+02  0.00000000000E+00 0.  1.
         -3    1    5    5    0  502 -0.45533574273E+03  0.73792004839E+02  0.19557480484E+02  0.46169079873E+03  0.00000000000E+00 0.  1.
<mgrwt>
<rscale>  0 0.17517611E+04</rscale>
<asrwt>0</asrwt>
<pdfrwt beam="1">  1        4 0.11696551E+00 0.17517611E+04</pdfrwt>
<pdfrwt beam="2">  1       -4 0.15524056E+00 0.17517611E+04</pdfrwt>
<totfact> 0.29062673E-01</totfact>
</mgrwt>
</event>
<event>
12    1  0.2502641E-008  0.1738763E+04  0.7818608E-02  0.8739560E-01
         -1   -1    0    0    0  501 -0.00000000000E+00  0.00000000000E+00  0.57415911618E+03  0.57415911618E+03  0.00000000000E+00 0.  1.
          1   -1    0    0  501    0  0.00000000000E+00 -0.00000000000E+00 -0.13164022947E+04  0.13164022947E+04  0.00000000000E+00 0. -1.
         23    2    1    2    0    0  0.11278831179E+03 -0.17548700406E+03 -0.92610536582E+03  0.95342968365E+03  0.88544458895E+02 0.  0.
        254    2    1    2    0    0 -0.11278831179E+03  0.17548700406E+03  0.18386218734E+03  0.93713172717E+03  0.89492663290E+03 0.  0.
        -24    2    4    4    0    0  0.85860231737E+02 -0.25693119045E+03 -0.17393044703E+03  0.33611759501E+03  0.96631367840E+02 0.  0.
         24    2    4    4    0    0 -0.19864854352E+03  0.43241819450E+03  0.35779263438E+03  0.60101413217E+03  0.82192938050E+02 0.  0.
         13    1    3    3    0    0  0.12701424928E+03 -0.15903275116E+03 -0.86319888626E+03  0.88686884752E+03  0.00000000000E+00 0. -1.
        -13    1    3    3    0    0 -0.14225937495E+02 -0.16454252894E+02 -0.62906479560E+02  0.66560836132E+02  0.00000000000E+00 0.  1.
          2    1    6    6  502    0 -0.58374627037E+02  0.12818386085E+03  0.15484345670E+03  0.20932079530E+03  0.00000000000E+00 0. -1.
          3    1    5    5  503    0  0.48767319556E+02 -0.46150141429E+02 -0.73989893800E+02  0.99912919060E+02  0.00000000000E+00 0. -1.
         -4    1    5    5    0  503  0.37092912181E+02 -0.21078104902E+03 -0.99940553233E+02  0.23620467595E+03  0.00000000000E+00 0.  1.
         -1    1    6    6    0  502 -0.14027391649E+03  0.30423433366E+03  0.20294917768E+03  0.39169333686E+03  0.00000000000E+00 0.  1.
<mgrwt>
<rscale>  0 0.17387632E+04</rscale>
<asrwt>0</asrwt>
<pdfrwt beam="1">  1        1 0.20252343E+00 0.17387632E+04</pdfrwt>
<pdfrwt beam="2">  1       -1 0.88332172E-01 0.17387632E+04</pdfrwt>
<totfact> 0.10513119E+01</totfact>
</mgrwt>
</event>
<event>
12    1  0.2502641E-008  0.1233432E+04  0.7818608E-02  0.9084086E-01
         -1   -1    0    0    0  501 -0.00000000000E+00  0.00000000000E+00  0.60154015875E+03  0.60154015875E+03  0.00000000000E+00 0.  1.
          1   -1    0    0  501    0  0.00000000000E+00 -0.00000000000E+00 -0.63227519331E+03  0.63227519331E+03  0.00000000000E+00 0. -1.
         23    2    1    2    0    0 -0.21933160917E+02 -0.11860958394E+03 -0.25439283743E+03  0.29569990293E+03  0.90406968232E+02 0.  0.
        254    2    1    2    0    0  0.21933160917E+02  0.11860958394E+03  0.22365780286E+03  0.93811544913E+03  0.90304401120E+03 0.  0.
        -24    2    4    4    0    0 -0.95863934737E+02 -0.21988707605E+03  0.44216739890E+03  0.51137045968E+03  0.91910381287E+02 0.  0.
         24    2    4    4    0    0  0.11779709565E+03  0.33849665999E+03 -0.21850959604E+03  0.42674498945E+03  0.76868055047E+02 0.  0.
         11    1    3    3    0    0 -0.51373532366E+02 -0.96702893026E+02 -0.15523889554E+03  0.18997316662E+03  0.00000000000E+00 0.  1.
        -11    1    3    3    0    0  0.29440371450E+02 -0.21906690918E+02 -0.99153941885E+02  0.10572673630E+03  0.00000000000E+00 0. -1.
          2    1    6    6  502    0  0.40682908368E+01  0.14170182471E+02 -0.33098966218E+02  0.36233777422E+02  0.00000000000E+00 0. -1.
          1    1    5    5  503    0 -0.84625608749E+02 -0.11909219909E+03  0.32549670491E+03  0.35678081570E+03  0.00000000000E+00 0. -1.
         -2    1    5    5    0  503 -0.11238325987E+02 -0.10079487696E+03  0.11667069399E+03  0.15458964399E+03  0.00000000000E+00 0.  1.
         -1    1    6    6    0  502  0.11372880482E+03  0.32432647752E+03 -0.18541062982E+03  0.39051121203E+03  0.00000000000E+00 0.  1.
<mgrwt>
<rscale>  0 0.12334325E+04</rscale>
<asrwt>0</asrwt>
<pdfrwt beam="1">  1        1 0.97273107E-01 0.12334325E+04</pdfrwt>
<pdfrwt beam="2">  1       -1 0.92544640E-01 0.12334325E+04</pdfrwt>
<totfact> 0.35587537E+01</totfact>
</mgrwt>
</event>
<event>
11    1  0.2502641E-008  0.1336915E+04  0.7818608E-02  0.9000793E-01
         -1   -1    0    0    0  501 -0.00000000000E+00  0.00000000000E+00  0.37840249511E+03  0.37840249511E+03  0.00000000000E+00 0.  1.
          1   -1    0    0  501    0  0.00000000000E+00 -0.00000000000E+00 -0.11808461335E+04  0.11808461335E+04  0.00000000000E+00 0. -1.
         23    2    1    2    0    0  0.27765190656E+03  0.33351050099E+02 -0.50315798370E+03  0.58283884494E+03  0.91270416023E+02 0.  0.
        254    2    1    2    0    0 -0.27765190656E+03 -0.33351050099E+02 -0.29928565471E+03  0.97640978370E+03  0.88634151930E+03 0.  0.
         24    2    4    4    0    0  0.16748908725E+03 -0.19502220647E+03  0.15319434725E+03  0.30995427245E+03  0.80727242094E+02 0.  0.
         13    1    3    3    0    0  0.33018760489E+02 -0.26231958609E+02 -0.80163041464E+02  0.90578515187E+02  0.00000000000E+00 0.  1.
        -13    1    3    3    0    0  0.24463314607E+03  0.59583008708E+02 -0.42299494224E+03  0.49226032975E+03  0.00000000000E+00 0. -1.
          4    1    5    5  502    0  0.16698558579E+03 -0.17468795516E+03  0.11713334987E+03  0.26855220944E+03  0.00000000000E+00 0. -1.
          1    1    4    4  503    0 -0.44765440030E+03  0.14909338783E+03 -0.45233459914E+03  0.65362825060E+03  0.00000000000E+00 0. -1.
         -4    1    4    4    0  503  0.25134064833E+01  0.12577768543E+02 -0.14540282242E+00  0.12827260645E+02  0.00000000000E+00 0.  1.
         -3    1    5    5    0  502  0.50350146066E+00 -0.20334251314E+02  0.36060997380E+02  0.41402063019E+02  0.00000000000E+00 0.  1.
<mgrwt>
<rscale>  0 0.13369145E+04</rscale>
<asrwt>0</asrwt>
<pdfrwt beam="1">  1        1 0.18166864E+00 0.13369145E+04</pdfrwt>
<pdfrwt beam="2">  1       -1 0.58215769E-01 0.13369145E+04</pdfrwt>
<totfact> 0.32328990E+01</totfact>
</mgrwt>
</event>
<event>
12    1  0.2502641E-008  0.1222893E+04  0.7818608E-02  0.9093051E-01
          1   -1    0    0  501    0  0.00000000000E+00  0.00000000000E+00  0.18173531559E+04  0.18173531559E+04  0.00000000000E+00 0. -1.
         -1   -1    0    0    0  501 -0.00000000000E+00 -0.00000000000E+00 -0.20572058951E+03  0.20572058951E+03  0.00000000000E+00 0.  1.
         23    2    1    2    0    0  0.20947971467E+03 -0.25784375324E+01  0.10602878216E+03  0.25111653586E+03  0.89045004003E+02 0.  0.
        254    2    1    2    0    0 -0.20947971467E+03  0.25784375324E+01  0.15056037842E+04  0.17719572095E+04  0.91054994272E+03 0.  0.
        -24    2    4    4    0    0  0.34923443728E+03 -0.54518199444E+02  0.53669127448E+03  0.64916660558E+03  0.91884881513E+02 0.  0.
         24    2    4    4    0    0 -0.55871415195E+03  0.57096636976E+02  0.96891250973E+03  0.11227906039E+04  0.80285486023E+02 0.  0.
         13    1    3    3    0    0  0.16786575360E+03 -0.33903823648E+02  0.10092187790E+03  0.19878029563E+03  0.00000000000E+00 0. -1.
        -13    1    3    3    0    0  0.41613961066E+02  0.31325386115E+02  0.51069042665E+01  0.52336240236E+02  0.00000000000E+00 0.  1.
          4    1    6    6  502    0 -0.44292624151E+03  0.37734203255E+02  0.69796605235E+03  0.82750476479E+03  0.00000000000E+00 0. -1.
          1    1    5    5  503    0  0.90508388706E+02 -0.27211692310E+02  0.21913114222E+03  0.23864346234E+03  0.00000000000E+00 0. -1.
         -2    1    5    5    0  503  0.25872604857E+03 -0.27306507134E+02  0.31756013226E+03  0.41052314325E+03  0.00000000000E+00 0.  1.
         -3    1    6    6    0  502 -0.11578791044E+03  0.19362433721E+02  0.27094645737E+03  0.29528583916E+03  0.00000000000E+00 0.  1.
<mgrwt>
<rscale>  0 0.12228932E+04</rscale>
<asrwt>0</asrwt>
<pdfrwt beam="1">  1        1 0.27959278E+00 0.12228932E+04</pdfrwt>
<pdfrwt beam="2">  1       -1 0.31649323E-01 0.12228932E+04</pdfrwt>
<totfact> 0.36401282E+01</totfact>
</mgrwt>
</event>
<event>
12    1  0.2502641E-008  0.2360098E+04  0.7818608E-02  0.8454595E-01
          2   -1    0    0  501    0  0.00000000000E+00  0.00000000000E+00  0.32593837385E+04  0.32593837385E+04  0.00000000000E+00 0. -1.
         -2   -1    0    0    0  501 -0.00000000000E+00 -0.00000000000E+00 -0.42723287480E+03  0.42723287480E+03  0.00000000000E+00 0.  1.
         23    2    1    2    0    0 -0.70866164201E+03 -0.71863196244E+03  0.12316416696E+04  0.15951366437E+04  0.94268177695E+02 0.  0.
        254    2    1    2    0    0  0.70866164201E+03  0.71863196244E+03  0.16005091940E+04  0.20914799696E+04  0.89108112017E+03 0.  0.
        -24    2    4    4    0    0  0.17026543443E+03 -0.16540162013E+03  0.58946473993E+03  0.64225544970E+03  0.93141660684E+02 0.  0.
         24    2    4    4    0    0  0.53839620758E+03  0.88403358257E+03  0.10110444541E+04  0.14492245199E+04  0.81577995843E+02 0.  0.
         13    1    3    3    0    0 -0.17693633934E+03 -0.12520169965E+03  0.25371922578E+03  0.33369953446E+03  0.00000000000E+00 0. -1.
        -13    1    3    3    0    0 -0.53172530267E+03 -0.59343026279E+03  0.97792244387E+03  0.12614371092E+04  0.00000000000E+00 0.  1.
          2    1    6    6  502    0  0.80591261357E+02  0.14995049406E+03  0.20844760818E+03  0.26912916496E+03  0.00000000000E+00 0. -1.
          1    1    5    5  503    0  0.68721243996E+02 -0.32166327039E+02  0.28298552965E+03  0.29298138501E+03  0.00000000000E+00 0. -1.
         -2    1    5    5    0  503  0.10154419043E+03 -0.13323529309E+03  0.30647921028E+03  0.34927406470E+03  0.00000000000E+00 0.  1.
         -1    1    6    6    0  502  0.45780494622E+03  0.73408308851E+03  0.80259684591E+03  0.11800953549E+04  0.00000000000E+00 0.  1.
<mgrwt>
<rscale>  0 0.23600982E+04</rscale>
<asrwt>0</asrwt>
<pdfrwt beam="1">  1        2 0.50144364E+00 0.23600982E+04</pdfrwt>
<pdfrwt beam="2">  1       -2 0.65728137E-01 0.23600982E+04</pdfrwt>
<totfact> 0.22821494E+00</totfact>
</mgrwt>
</event>
<event>
11    1  0.2502641E-008  0.2136701E+04  0.7818608E-02  0.8545246E-01
          2   -1    0    0  501    0  0.00000000000E+00  0.00000000000E+00  0.36510545664E+04  0.36510545664E+04  0.00000000000E+00 0. -1.
         -2   -1    0    0    0  501 -0.00000000000E+00 -0.00000000000E+00 -0.31261455308E+03  0.31261455308E+03  0.00000000000E+00 0.  1.
         23    2    1    2    0    0  0.79923763403E+03  0.36436793366E+03  0.13738756714E+04  0.16338795420E+04  0.10238755014E+03 0.  0.
        254    2    1    2    0    0 -0.79923763403E+03 -0.36436793366E+03  0.19645643419E+04  0.23297895775E+04  0.89267106777E+03 0.  0.
         24    2    4    4    0    0 -0.31951876811E+03 -0.22664859853E+03  0.12155106627E+04  0.12801657548E+04  0.88861455062E+02 0.  0.
         11    1    3    3    0    0  0.12994083116E+03  0.85495758457E+02  0.30355771787E+03  0.34108859904E+03  0.00000000000E+00 0.  1.
        -11    1    3    3    0    0  0.66929680287E+03  0.27887217521E+03  0.10703179535E+04  0.12927909429E+04  0.00000000000E+00 0. -1.
          4    1    5    5  502    0 -0.29087420234E+03 -0.21088034459E+03  0.10084032051E+04  0.10704930385E+04  0.00000000000E+00 0. -1.
          1    1    4    4  503    0 -0.79715907672E+02  0.52840712064E+02 -0.69923894119E+02  0.11847412273E+03  0.00000000000E+00 0. -1.
         -2    1    4    4    0  503 -0.40000295825E+03 -0.19056004720E+03  0.81897757329E+03  0.93114969997E+03  0.00000000000E+00 0.  1.
         -3    1    5    5    0  502 -0.28644565775E+02 -0.15768253934E+02  0.20710745758E+03  0.20967271631E+03  0.00000000000E+00 0.  1.
<mgrwt>
<rscale>  0 0.21367010E+04</rscale>
<asrwt>0</asrwt>
<pdfrwt beam="1">  1        2 0.56170067E+00 0.21367010E+04</pdfrwt>
<pdfrwt beam="2">  1       -2 0.48094549E-01 0.21367010E+04</pdfrwt>
<totfact> 0.23984806E+00</totfact>
</mgrwt>
</event>
<event>
12    1  0.2502641E-008  0.3712410E+04  0.7818608E-02  0.8065217E-01
          1   -1    0    0  501    0  0.00000000000E+00  0.00000000000E+00  0.13530066385E+04  0.13530066385E+04  0.00000000000E+00 0. -1.
         -1   -1    0    0    0  501 -0.00000000000E+00 -0.00000000000E+00 -0.25465485401E+04  0.25465485401E+04  0.00000000000E+00 0.  1.
         23    2    1    2    0    0 -0.56292832444E+03  0.20703649056E+02  0.11733940224E+04  0.13047800714E+04  0.90997601980E+02 0.  0.
        254    2    1    2    0    0  0.56292832444E+03 -0.20703649056E+02 -0.23669359239E+04  0.25947751071E+04  0.90175121235E+03 0.  0.
        -24    2    4    4    0    0 -0.22029928077E+03  0.10531940282E+03 -0.59341225419E+03  0.65016925905E+03  0.10468052481E+03 0.  0.
         24    2    4    4    0    0  0.78322760521E+03 -0.12602305188E+03 -0.17735236697E+04  0.19446058481E+04  0.82331075789E+02 0.  0.
         11    1    3    3    0    0 -0.51859844421E+03  0.33742776363E+02  0.11161911553E+04  0.12312455549E+04  0.00000000000E+00 0. -1.
        -11    1    3    3    0    0 -0.44329880225E+02 -0.13039127308E+02  0.57202867052E+02  0.73534516526E+02  0.00000000000E+00 0.  1.
          2    1    6    6  502    0  0.11502849953E+03  0.10472357713E+02 -0.24854373461E+03  0.27407154904E+03  0.00000000000E+00 0. -1.
          3    1    5    5  503    0 -0.92226405800E+02  0.58173939542E+01 -0.31167472636E+03  0.32508566109E+03  0.00000000000E+00 0. -1.
         -4    1    5    5    0  503 -0.12807287497E+03  0.99502008870E+02 -0.28173752783E+03  0.32508359796E+03  0.00000000000E+00 0.  1.
         -1    1    6    6    0  502  0.66819910568E+03 -0.13649540959E+03 -0.15249799351E+04  0.16705342990E+04  0.00000000000E+00 0.  1.
<mgrwt>
<rscale>  0 0.37124100E+04</rscale>
<asrwt>0</asrwt>
<pdfrwt beam="1">  1        1 0.20815487E+00 0.37124100E+04</pdfrwt>
<pdfrwt beam="2">  1       -1 0.39177670E+00 0.37124100E+04</pdfrwt>
<totfact> 0.54062773E-02</totfact>
</mgrwt>
</event>
<event>
12    1  0.2502641E-008  0.2553183E+04  0.7818608E-02  0.8384280E-01
         -2   -1    0    0    0  501 -0.00000000000E+00  0.00000000000E+00  0.37628171705E+03  0.37628171705E+03  0.00000000000E+00 0.  1.
          2   -1    0    0  501    0  0.00000000000E+00 -0.00000000000E+00 -0.43310249388E+04  0.43310249388E+04  0.00000000000E+00 0. -1.
         23    2    1    2    0    0  0.76985684366E+03  0.69912431572E+03 -0.98155708287E+03  0.14326741496E+04  0.87444516911E+02 0.  0.
        254    2    1    2    0    0 -0.76985684366E+03 -0.69912431572E+03 -0.29731861388E+04  0.32746325062E+04  0.89550425222E+03 0.  0.
        -24    2    4    4    0    0 -0.52014008661E+03 -0.46231414390E+03 -0.76388270201E+03  0.10374062037E+04  0.91732064657E+02 0.  0.
         24    2    4    4    0    0 -0.24971675705E+03 -0.23681017181E+03 -0.22093034368E+04  0.22372263025E+04  0.75646125336E+02 0.  0.
         11    1    3    3    0    0  0.53494206170E+02  0.81573227842E+02 -0.82879753886E+02  0.12800341870E+03  0.00000000000E+00 0. -1.
        -11    1    3    3    0    0  0.71636263749E+03  0.61755108787E+03 -0.89867732898E+03  0.13046707309E+04  0.00000000000E+00 0.  1.
          4    1    6    6  502    0 -0.22199244986E+03 -0.21181208697E+03 -0.20844475109E+04  0.21069092134E+04  0.00000000000E+00 0. -1.
          1    1    5    5  503    0 -0.45873551929E+03 -0.41296473131E+03 -0.62937695299E+03  0.88152906640E+03  0.00000000000E+00 0. -1.
         -2    1    5    5    0  503 -0.61404567324E+02 -0.49349412598E+02 -0.13450574901E+03  0.15587713729E+03  0.00000000000E+00 0.  1.
         -3    1    6    6    0  502 -0.27724307195E+02 -0.24998084840E+02 -0.12485592593E+03  0.13031708903E+03  0.00000000000E+00 0.  1.
<mgrwt>
<rscale>  0 0.25531827E+04</rscale>
<asrwt>0</asrwt>
<pdfrwt beam="1">  1        2 0.66631151E+00 0.25531827E+04</pdfrwt>
<pdfrwt beam="2">  1       -2 0.57889496E-01 0.25531827E+04</pdfrwt>
<totfact> 0.44282472E-01</totfact>
</mgrwt>
</event>
<event>
11    1  0.2502641E-008  0.2622570E+04  0.7818608E-02  0.8360575E-01
          2   -1    0    0  501    0  0.00000000000E+00  0.00000000000E+00  0.30040463081E+04  0.30040463081E+04  0.00000000000E+00 0. -1.
         -2   -1    0    0    0  501 -0.00000000000E+00 -0.00000000000E+00 -0.57238416316E+03  0.57238416316E+03  0.00000000000E+00 0.  1.
         23    2    1    2    0    0  0.52374629782E+03 -0.14127986829E+03 -0.31567231817E+03  0.63434962822E+03  0.92088287507E+02 0.  0.
        254    2    1    2    0    0 -0.52374629782E+03  0.14127986829E+03  0.27473344632E+04  0.29420808431E+04  0.90206587847E+03 0.  0.
         24    2    4    4    0    0 -0.67206371988E+03 -0.12697430375E+03  0.21724267487E+04  0.22789379973E+04  0.79550610820E+02 0.  0.
         13    1    3    3    0    0  0.18218209692E+02  0.75975197188E+00  0.52104015998E+01  0.18963878092E+02  0.00000000000E+00 0. -1.
        -13    1    3    3    0    0  0.50552808813E+03 -0.14203962026E+03 -0.32088271977E+03  0.61538575013E+03  0.00000000000E+00 0.  1.
          2    1    5    5  502    0 -0.46372213487E+03 -0.11649249774E+03  0.15866260211E+04  0.16571031504E+04  0.00000000000E+00 0. -1.
          3    1    4    4  503    0  0.12276373981E+03  0.25116592376E+03  0.41547885495E+03  0.50077733173E+03  0.00000000000E+00 0. -1.
         -4    1    4    4    0  503  0.25553682248E+02  0.17088248272E+02  0.15942885956E+03  0.16236551409E+03  0.00000000000E+00 0.  1.
         -1    1    5    5    0  502 -0.20834158502E+03 -0.10481806010E+02  0.58580072760E+03  0.62183484686E+03  0.00000000000E+00 0.  1.
<mgrwt>
<rscale>  0 0.26225701E+04</rscale>
<asrwt>0</asrwt>
<pdfrwt beam="1">  1        2 0.46216096E+00 0.26225701E+04</pdfrwt>
<pdfrwt beam="2">  1       -2 0.88059104E-01 0.26225701E+04</pdfrwt>
<totfact> 0.16981211E+00</totfact>
</mgrwt>
</event>
<event>
12    1  0.2502641E-008  0.1590028E+04  0.7818608E-02  0.8826698E-01
          2   -1    0    0  501    0  0.00000000000E+00  0.00000000000E+00  0.42236516356E+03  0.42236516356E+03  0.00000000000E+00 0. -1.
         -2   -1    0    0    0  501 -0.00000000000E+00 -0.00000000000E+00 -0.14964468809E+04  0.14964468809E+04  0.00000000000E+00 0.  1.
         23    2    1    2    0    0  0.29169202643E+03 -0.16831245222E+03 -0.87501056319E+03  0.94304740051E+03  0.10139819557E+03 0.  0.
        254    2    1    2    0    0 -0.29169202643E+03  0.16831245222E+03 -0.19907115414E+03  0.97576464394E+03  0.89390938920E+03 0.  0.
        -24    2    4    4    0    0 -0.29649365161E+03  0.29065625851E+03  0.25673176070E+03  0.49747429745E+03  0.95811970093E+02 0.  0.
         24    2    4    4    0    0  0.48016251812E+01 -0.12234380629E+03 -0.45580291485E+03  0.47829034649E+03  0.77551891126E+02 0.  0.
         13    1    3    3    0    0  0.21994562005E+03 -0.14422511514E+03 -0.55440275025E+03  0.61362803807E+03  0.00000000000E+00 0.  1.
        -13    1    3    3    0    0  0.71746406378E+02 -0.24087337077E+02 -0.32060781294E+03  0.32941936245E+03  0.00000000000E+00 0. -1.
          4    1    6    6  502    0 -0.28369917413E+02 -0.86145269819E+02 -0.23054401910E+03  0.24774261739E+03  0.00000000000E+00 0. -1.
          1    1    5    5  503    0 -0.13299541228E+02 -0.59030390647E+01  0.17405972771E+02  0.22686814566E+02  0.00000000000E+00 0. -1.
         -2    1    5    5    0  503 -0.28319411038E+03  0.29655929758E+03  0.23932578793E+03  0.47478748289E+03  0.00000000000E+00 0.  1.
         -3    1    6    6    0  502  0.33171542594E+02 -0.36198536475E+02 -0.22525889574E+03  0.23054772910E+03  0.00000000000E+00 0.  1.
<mgrwt>
<rscale>  0 0.15900277E+04</rscale>
<asrwt>0</asrwt>
<pdfrwt beam="1">  1        2 0.64979254E-01 0.15900277E+04</pdfrwt>
<pdfrwt beam="2">  1       -2 0.23022260E+00 0.15900277E+04</pdfrwt>
<totfact> 0.61122547E+00</totfact>
</mgrwt>
</event>
<event>
12    1  0.2502641E-008  0.1727350E+04  0.7818608E-02  0.8745917E-01
         -1   -1    0    0    0  501 -0.00000000000E+00  0.00000000000E+00  0.23807986629E+04  0.23807986629E+04  0.00000000000E+00 0.  1.
          1   -1    0    0  501    0  0.00000000000E+00 -0.00000000000E+00 -0.31331288616E+03  0.31331288616E+03  0.00000000000E+00 0. -1.
         23    2    1    2    0    0 -0.42362588267E+03  0.20062774127E+03  0.13160501190E+04  0.13998473265E+04  0.88736930875E+02 0.  0.
        254    2    1    2    0    0  0.42362588267E+03 -0.20062774127E+03  0.75143565780E+03  0.12942642226E+04  0.94379762184E+03 0.  0.
        -24    2    4    4    0    0  0.80699975728E+02 -0.11552118119E+03  0.89288301086E+03  0.90551922422E+03  0.53547781983E+02 0.  0.
         24    2    4    4    0    0  0.34292590694E+03 -0.85106560075E+02 -0.14144735306E+03  0.38874499836E+03  0.79208685405E+02 0.  0.
         11    1    3    3    0    0 -0.47519087863E+02  0.44669749745E+02  0.12280341822E+03  0.13904722140E+03  0.00000000000E+00 0. -1.
        -11    1    3    3    0    0 -0.37610679480E+03  0.15595799152E+03  0.11932467007E+04  0.12608001051E+04  0.00000000000E+00 0.  1.
          2    1    6    6  502    0  0.24910504839E+02 -0.10906719903E+02  0.97436946284E+01  0.28886491227E+02  0.00000000000E+00 0. -1.
          3    1    5    5  503    0  0.36272461003E+02 -0.29046539315E+02  0.43211591617E+03  0.43460736059E+03  0.00000000000E+00 0. -1.
         -4    1    5    5    0  503  0.44427514725E+02 -0.86474641877E+02  0.46076709469E+03  0.47091186362E+03  0.00000000000E+00 0.  1.
         -1    1    6    6    0  502  0.31801540210E+03 -0.74199840172E+02 -0.15119104769E+03  0.35985850713E+03  0.00000000000E+00 0.  1.
<mgrwt>
<rscale>  0 0.17273505E+04</rscale>
<asrwt>0</asrwt>
<pdfrwt beam="1">  1        1 0.48201984E-01 0.17273505E+04</pdfrwt>
<pdfrwt beam="2">  1       -1 0.36627671E+00 0.17273505E+04</pdfrwt>
<totfact> 0.95502133E-01</totfact>
</mgrwt>
</event>
<event>
11    1  0.2502641E-008  0.1497199E+04  0.7818608E-02  0.8886318E-01
          1   -1    0    0  501    0  0.00000000000E+00  0.00000000000E+00  0.41095090724E+04  0.41095090724E+04  0.00000000000E+00 0. -1.
         -1   -1    0    0    0  501 -0.00000000000E+00 -0.00000000000E+00 -0.13636687567E+03  0.13636687567E+03  0.00000000000E+00 0.  1.
         23    2    1    2    0    0 -0.14112150178E+03 -0.42803571832E+03  0.89642087126E+03  0.10074542883E+04  0.90906051478E+02 0.  0.
        254    2    1    2    0    0  0.14112150178E+03  0.42803571832E+03  0.30767213254E+04  0.32384216597E+04  0.90445059419E+03 0.  0.
         24    2    4    4    0    0  0.21397561820E+03  0.53590922810E+03  0.10472957726E+04  0.11982682233E+04  0.77679043233E+02 0.  0.
         11    1    3    3    0    0 -0.13694849324E+03 -0.35420593843E+03  0.68147756575E+03  0.78014640244E+03  0.00000000000E+00 0.  1.
        -11    1    3    3    0    0 -0.41730085475E+01 -0.73829779889E+02  0.21494330550E+03  0.22730788587E+03  0.00000000000E+00 0. -1.
          2    1    5    5  502    0  0.17453254659E+03  0.49202430397E+03  0.91609319707E+03  0.10544080193E+04  0.00000000000E+00 0. -1.
          3    1    4    4  503    0 -0.55852446351E+01  0.30112876500E+02  0.87871553175E+03  0.87924909213E+03  0.00000000000E+00 0. -1.
         -4    1    4    4    0  503 -0.67268871786E+02 -0.13798638628E+03  0.11507100211E+04  0.11609043443E+04  0.00000000000E+00 0.  1.
         -1    1    5    5    0  502  0.39443071619E+02  0.43884924129E+02  0.13120257555E+03  0.14386020400E+03  0.00000000000E+00 0.  1.
<mgrwt>
<rscale>  0 0.14971986E+04</rscale>
<asrwt>0</asrwt>
<pdfrwt beam="1">  1        1 0.63223207E+00 0.14971986E+04</pdfrwt>
<pdfrwt beam="2">  1       -1 0.20979523E-01 0.14971986E+04</pdfrwt>
<totfact> 0.14294428E+00</totfact>
</mgrwt>
</event>
<event>
12    1  0.2502641E-008  0.2349704E+04  0.7818608E-02  0.8458578E-01
         -1   -1    0    0    0  501 -0.00000000000E+00  0.00000000000E+00  0.83548373280E+03  0.83548373280E+03  0.00000000000E+00 0.  1.
          1   -1    0    0  501    0  0.00000000000E+00 -0.00000000000E+00 -0.16520688836E+04  0.16520688836E+04  0.00000000000E+00 0. -1.
         23    2    1    2    0    0 -0.92057531019E+03 -0.33446481042E+03 -0.14349053522E+03  0.99405009264E+03  0.90666652252E+02 0.  0.
        254    2    1    2    0    0  0.92057531019E+03  0.33446481042E+03 -0.67309461554E+03  0.14935025237E+04  0.90452629356E+03 0.  0.
        -24    2    4    4    0    0  0.99752591138E+03  0.69508741818E+02 -0.67203393143E+03  0.12063439201E+04  0.61209798492E+02 0.  0.
         24    2    4    4    0    0 -0.76950601184E+02  0.26495606860E+03 -0.10606841107E+01  0.28715860365E+03  0.79597897526E+02 0.  0.
         13    1    3    3    0    0 -0.69320624879E+03 -0.24782364207E+03 -0.14700329294E+03  0.75070728587E+03  0.00000000000E+00 0.  1.
        -13    1    3    3    0    0 -0.22736906140E+03 -0.86641168349E+02  0.35127577251E+01  0.24334280676E+03  0.00000000000E+00 0. -1.
          4    1    6    6  502    0  0.13753166080E+02  0.56173072941E+02  0.12324354152E+02  0.59130816045E+02  0.00000000000E+00 0. -1.
          1    1    5    5  503    0  0.95764017707E+02 -0.10920287637E+02 -0.69484568157E+02  0.11881963214E+03  0.00000000000E+00 0. -1.
         -2    1    5    5    0  503  0.90176189367E+03  0.80429029455E+02 -0.60254936327E+03  0.10875242879E+04  0.00000000000E+00 0.  1.
         -3    1    6    6    0  502 -0.90703767264E+02  0.20878299566E+03 -0.13385038263E+02  0.22802778761E+03  0.00000000000E+00 0.  1.
<mgrwt>
<rscale>  0 0.23497035E+04</rscale>
<asrwt>0</asrwt>
<pdfrwt beam="1">  1        1 0.25416444E+00 0.23497035E+04</pdfrwt>
<pdfrwt beam="2">  1       -1 0.12853596E+00 0.23497035E+04</pdfrwt>
<totfact> 0.24138405E+00</totfact>
</mgrwt>
</event>
<event>
11    1  0.2502641E-008  0.1549632E+04  0.7818608E-02  0.8852103E-01
         -2   -1    0    0    0  501 -0.00000000000E+00  0.00000000000E+00  0.23309478101E+03  0.23309478101E+03  0.00000000000E+00 0. -1.
          2   -1    0    0  501    0  0.00000000000E+00 -0.00000000000E+00 -0.25755181754E+04  0.25755181754E+04  0.00000000000E+00 0.  1.
         23    2    1    2    0    0 -0.34287230406E+03  0.79857082206E+02 -0.11275415704E+03  0.37934958260E+03  0.85170625323E+02 0.  0.
        254    2    1    2    0    0  0.34287230406E+03 -0.79857082206E+02 -0.22296692373E+04  0.24292633738E+04  0.89775111300E+03 0.  0.
         24    2    4    4    0    0 -0.19634411093E+03 -0.20370525266E+02 -0.11948147865E+03  0.24492740332E+03  0.82144025720E+02 0.  0.
         13    1    3    3    0    0 -0.22953278567E+03  0.20133629579E+02 -0.98005649111E+02  0.25039123386E+03  0.00000000000E+00 0. -1.
        -13    1    3    3    0    0 -0.11333951839E+03  0.59723452627E+02 -0.14748507929E+02  0.12895834873E+03  0.00000000000E+00 0.  1.
          2    1    5    5  502    0 -0.19420034319E+03 -0.76810016025E+01 -0.92941649400E+02  0.21543194117E+03  0.00000000000E+00 0. -1.
          1    1    4    4  503    0  0.48527780614E+03 -0.10069743233E+03 -0.18916751710E+04  0.19555228136E+04  0.00000000000E+00 0. -1.
         -2    1    4    4    0  503  0.53938608850E+02  0.41210875391E+02 -0.21851258769E+03  0.22881315686E+03  0.00000000000E+00 0.  1.
         -1    1    5    5    0  502 -0.21437677332E+01 -0.12689523664E+02 -0.26539829252E+02  0.29495462153E+02  0.00000000000E+00 0.  1.
<mgrwt>
<rscale>  0 0.15496320E+04</rscale>
<asrwt>0</asrwt>
<pdfrwt beam="1">  1        2 0.39623357E+00 0.15496320E+04</pdfrwt>
<pdfrwt beam="2">  1       -2 0.35860735E-01 0.15496320E+04</pdfrwt>
<totfact> 0.22204663E+01</totfact>
</mgrwt>
</event>
<event>
11    1  0.2502641E-008  0.1680179E+04  0.7818608E-02  0.8772750E-01
         -1   -1    0    0    0  501 -0.00000000000E+00  0.00000000000E+00  0.71653617280E+03  0.71653617280E+03  0.00000000000E+00 0.  1.
          1   -1    0    0  501    0  0.00000000000E+00 -0.00000000000E+00 -0.98494752428E+03  0.98494752428E+03  0.00000000000E+00 0. -1.
         23    2    1    2    0    0  0.16842444798E+03  0.26117955476E+03  0.42129757258E+03  0.53142429401E+03  0.91315831579E+02 0.  0.
        254    2    1    2    0    0 -0.16842444798E+03 -0.26117955476E+03 -0.68970892406E+03  0.11700594031E+04  0.89261360750E+03 0.  0.
         24    2    4    4    0    0 -0.49652223977E+03 -0.18533257014E+03 -0.30892112903E+03  0.61862013775E+03  0.79850577512E+02 0.  0.
         11    1    3    3    0    0  0.11707251187E+03  0.23711303030E+03  0.37115497588E+03  0.45572423492E+03  0.00000000000E+00 0.  1.
        -11    1    3    3    0    0  0.51351936107E+02  0.24066524453E+02  0.50142596701E+02  0.75700059083E+02  0.00000000000E+00 0. -1.
          2    1    5    5  502    0 -0.54385694459E+02 -0.48766535031E+02 -0.36838591566E+02  0.81811127173E+02  0.00000000000E+00 0. -1.
          3    1    4    4  503    0  0.52352876046E+02 -0.10703185989E+03 -0.14178432193E+03  0.18520107075E+03  0.00000000000E+00 0. -1.
         -4    1    4    4    0  503  0.27574491575E+03  0.31184875275E+02 -0.23900347309E+03  0.36623819457E+03  0.00000000000E+00 0.  1.
         -1    1    5    5    0  502 -0.44213654531E+03 -0.13656603511E+03 -0.27208253746E+03  0.53680901058E+03  0.00000000000E+00 0.  1.
<mgrwt>
<rscale>  0 0.16801792E+04</rscale>
<asrwt>0</asrwt>
<pdfrwt beam="1">  1        1 0.15153039E+00 0.16801792E+04</pdfrwt>
<pdfrwt beam="2">  1       -1 0.11023634E+00 0.16801792E+04</pdfrwt>
<totfact> 0.11255985E+01</totfact>
</mgrwt>
</event>
<event>
12    1  0.2502641E-008  0.1510611E+04  0.7818608E-02  0.8877427E-01
         -2   -1    0    0    0  501 -0.00000000000E+00  0.00000000000E+00  0.27288690789E+03  0.27288690789E+03  0.00000000000E+00 0.  1.
          2   -1    0    0  501    0  0.00000000000E+00 -0.00000000000E+00 -0.20905592852E+04  0.20905592852E+04  0.00000000000E+00 0. -1.
         23    2    1    2    0    0 -0.13424289137E+03 -0.33910470680E+03 -0.10747558160E+04  0.11385025448E+04  0.89860027388E+02 0.  0.
        254    2    1    2    0    0  0.13424289137E+03  0.33910470680E+03 -0.74291656140E+03  0.12249436483E+04  0.90307738779E+03 0.  0.
        -24    2    4    4    0    0  0.36560708766E+03  0.51050875055E+03 -0.65756241679E+03  0.91370452157E+03  0.90442765466E+02 0.  0.
         24    2    4    4    0    0 -0.23136419629E+03 -0.17140404375E+03 -0.85354144606E+02  0.31123912677E+03  0.81705119115E+02 0.  0.
         13    1    3    3    0    0 -0.15694479784E+02 -0.12521527425E+03 -0.28348551568E+03  0.31030504218E+03  0.00000000000E+00 0. -1.
        -13    1    3    3    0    0 -0.11854841159E+03 -0.21388943255E+03 -0.79127030027E+03  0.82819750262E+03  0.00000000000E+00 0.  1.
          2    1    6    6  502    0 -0.19191343526E+03 -0.17394491445E+03 -0.66350104899E+02  0.26737602046E+03  0.00000000000E+00 0. -1.
          3    1    5    5  503    0  0.31872539421E+03  0.38180719551E+03 -0.52124537229E+03  0.72045773616E+03  0.00000000000E+00 0. -1.
         -4    1    5    5    0  503  0.46881693453E+02  0.12870155504E+03 -0.13631704450E+03  0.19324678541E+03  0.00000000000E+00 0.  1.
         -1    1    6    6    0  502 -0.39450761033E+02  0.25408706980E+01 -0.19004039706E+02  0.43863106310E+02  0.00000000000E+00 0.  1.
<mgrwt>
<rscale>  0 0.15106108E+04</rscale>
<asrwt>0</asrwt>
<pdfrwt beam="1">  1        2 0.32162449E+00 0.15106108E+04</pdfrwt>
<pdfrwt beam="2">  1       -2 0.41982603E-01 0.15106108E+04</pdfrwt>
<totfact> 0.30893937E+01</totfact>
</mgrwt>
</event>
<event>
12    1  0.2502641E-008  0.1280344E+04  0.7818608E-02  0.9045299E-01
          1   -1    0    0  501    0  0.00000000000E+00  0.00000000000E+00  0.11315673128E+04  0.11315673128E+04  0.00000000000E+00 0. -1.
         -1   -1    0    0    0  501 -0.00000000000E+00 -0.00000000000E+00 -0.36217066346E+03  0.36217066346E+03  0.00000000000E+00 0.  1.
         23    2    1    2    0    0 -0.11242790390E+03  0.27226938071E+03  0.33364697541E+03  0.45424702541E+03  0.90826244251E+02 0.  0.
        254    2    1    2    0    0  0.11242790390E+03 -0.27226938071E+03  0.43574967394E+03  0.10394909509E+04  0.89660080823E+03 0.  0.
        -24    2    4    4    0    0  0.40403054853E+03 -0.42373589460E+03  0.35249823753E+03  0.68996717798E+03  0.94904724373E+02 0.  0.
         24    2    4    4    0    0 -0.29160264463E+03  0.15146651389E+03  0.83251436412E+02  0.34952377288E+03  0.85216541568E+02 0.  0.
         13    1    3    3    0    0 -0.12100626334E+03  0.25236866974E+03  0.27779456979E+03  0.39433777937E+03  0.00000000000E+00 0.  1.
        -13    1    3    3    0    0  0.85783594380E+01  0.19900710975E+02  0.55852405616E+02  0.59909246040E+02  0.00000000000E+00 0. -1.
          4    1    6    6  502    0 -0.28238574489E+03  0.13901805221E+03  0.96425991498E+02  0.32918945851E+03  0.00000000000E+00 0. -1.
          1    1    5    5  503    0  0.33771655419E+03 -0.34886497784E+03  0.24762556779E+03  0.54504831489E+03  0.00000000000E+00 0. -1.
         -2    1    5    5    0  503  0.66313994333E+02 -0.74870916766E+02  0.10487266973E+03  0.14491886309E+03  0.00000000000E+00 0.  1.
         -3    1    6    6    0  502 -0.92168997340E+01  0.12448461680E+02 -0.13174555086E+02  0.20334314363E+02  0.00000000000E+00 0.  1.
<mgrwt>
<rscale>  0 0.12803445E+04</rscale>
<asrwt>0</asrwt>
<pdfrwt beam="1">  1        1 0.17408728E+00 0.12803445E+04</pdfrwt>
<pdfrwt beam="2">  1       -1 0.55718564E-01 0.12803445E+04</pdfrwt>
<totfact> 0.38479747E+01</totfact>
</mgrwt>
</event>
<event>
12    1  0.2502641E-008  0.2912884E+04  0.7818608E-02  0.8269054E-01
          2   -1    0    0  501    0  0.00000000000E+00  0.00000000000E+00  0.16040154458E+04  0.16040154458E+04  0.00000000000E+00 0. -1.
         -2   -1    0    0    0  501 -0.00000000000E+00 -0.00000000000E+00 -0.13224459700E+04  0.13224459700E+04  0.00000000000E+00 0.  1.
         23    2    1    2    0    0 -0.71830237880E+02 -0.21402425021E+03  0.14285133803E+04  0.14491793873E+04  0.92219608296E+02 0.  0.
        254    2    1    2    0    0  0.71830237880E+02  0.21402425021E+03 -0.11469439045E+04  0.14772820286E+04  0.90328063691E+03 0.  0.
        -24    2    4    4    0    0  0.26672529103E+03  0.48610187700E+03 -0.54393611069E+03  0.78318335611E+03  0.10036065503E+03 0.  0.
         24    2    4    4    0    0 -0.19489505315E+03 -0.27207762679E+03 -0.60300779383E+03  0.69409867244E+03  0.78385272328E+02 0.  0.
         11    1    3    3    0    0 -0.19392130385E+02  0.38479902583E+01  0.11719063095E+03  0.11884656382E+03  0.00000000000E+00 0.  1.
        -11    1    3    3    0    0 -0.52438107494E+02 -0.21787224047E+03  0.13113227494E+04  0.13303328235E+04  0.00000000000E+00 0. -1.
          4    1    6    6  502    0 -0.19577314199E+03 -0.27405686267E+03 -0.57777904958E+03  0.66877718056E+03  0.00000000000E+00 0. -1.
          1    1    5    5  503    0  0.88156158669E+02  0.26184474081E+03 -0.28387819537E+03  0.39613256166E+03  0.00000000000E+00 0. -1.
         -2    1    5    5    0  503  0.17856913236E+03  0.22425713619E+03 -0.26005791533E+03  0.38705079445E+03  0.00000000000E+00 0.  1.
         -3    1    6    6    0  502  0.87808884199E+00  0.19792358749E+01 -0.25228744251E+02  0.25321491883E+02  0.00000000000E+00 0.  1.
<mgrwt>
<rscale>  0 0.29128843E+04</rscale>
<asrwt>0</asrwt>
<pdfrwt beam="1">  1        2 0.24677161E+00 0.29128843E+04</pdfrwt>
<pdfrwt beam="2">  1       -2 0.20345323E+00 0.29128843E+04</pdfrwt>
<totfact> 0.12077494E+00</totfact>
</mgrwt>
</event>
<event>
12    1  0.2502641E-008  0.1379946E+04  0.7818608E-02  0.8968464E-01
          2   -1    0    0  501    0  0.00000000000E+00  0.00000000000E+00  0.52520599001E+03  0.52520599001E+03  0.00000000000E+00 0.  1.
         -2   -1    0    0    0  501 -0.00000000000E+00 -0.00000000000E+00 -0.90642987080E+03  0.90642987080E+03  0.00000000000E+00 0. -1.
         23    2    1    2    0    0  0.26684559598E+03 -0.24107213702E+03 -0.26065016471E+03  0.45403313753E+03  0.94261520622E+02 0.  0.
        254    2    1    2    0    0 -0.26684559598E+03  0.24107213702E+03 -0.12057371608E+03  0.97760272327E+03  0.90102536934E+03 0.  0.
        -24    2    4    4    0    0 -0.22515872867E+02 -0.11025209368E+03  0.32336158454E+03  0.35588324459E+03  0.97096244655E+02 0.  0.
         24    2    4    4    0    0 -0.24432972312E+03  0.35132423070E+03 -0.44393530062E+03  0.62171947869E+03  0.79566515329E+02 0.  0.
         11    1    3    3    0    0  0.64715816206E+02 -0.74359864560E+02 -0.12437234123E+03  0.15870099428E+03  0.00000000000E+00 0.  1.
        -11    1    3    3    0    0  0.20212977978E+03 -0.16671227246E+03 -0.13627782349E+03  0.29533214325E+03  0.00000000000E+00 0. -1.
          4    1    6    6  502    0 -0.19346269287E+03  0.31188520618E+03 -0.40471416855E+03  0.54634581868E+03  0.00000000000E+00 0. -1.
          3    1    5    5  503    0  0.24586403420E+01 -0.65273181354E+02  0.28314690574E+03  0.29058355657E+03  0.00000000000E+00 0. -1.
         -4    1    5    5    0  503 -0.24974513209E+02 -0.44978912327E+02  0.40214678803E+02  0.65299688019E+02  0.00000000000E+00 0.  1.
         -3    1    6    6    0  502 -0.50867030246E+02  0.39439024519E+02 -0.39221132075E+02  0.75373660003E+02  0.00000000000E+00 0.  1.
<mgrwt>
<rscale>  0 0.13799455E+04</rscale>
<asrwt>0</asrwt>
<pdfrwt beam="1">  1        2 0.80800922E-01 0.13799455E+04</pdfrwt>
<pdfrwt beam="2">  1       -2 0.13945075E+00 0.13799455E+04</pdfrwt>
<totfact> 0.20546583E+01</totfact>
</mgrwt>
</event>
<event>
11    1  0.2502641E-008  0.2636107E+04  0.7818608E-02  0.8356039E-01
          1   -1    0    0  501    0  0.00000000000E+00  0.00000000000E+00  0.25073328987E+04  0.25073328987E+04  0.00000000000E+00 0. -1.
         -1   -1    0    0    0  501 -0.00000000000E+00 -0.00000000000E+00 -0.69287350106E+03  0.69287350106E+03  0.00000000000E+00 0.  1.
         23    2    1    2    0    0 -0.42629537257E+03  0.10463939877E+04  0.11347598791E+04  0.16039885970E+04  0.91822186449E+02 0.  0.
        254    2    1    2    0    0  0.42629537257E+03 -0.10463939877E+04  0.67969951857E+03  0.15962178028E+04  0.89958419080E+03 0.  0.
         24    2    4    4    0    0  0.27282172150E+03  0.83924157814E+02  0.10004904568E+03  0.31142150363E+03  0.74152446969E+02 0.  0.
         13    1    3    3    0    0 -0.23256881111E+03  0.50354432076E+03  0.50243317106E+03  0.74838775127E+03  0.00000000000E+00 0.  1.
        -13    1    3    3    0    0 -0.19372656146E+03  0.54284966692E+03  0.63232670805E+03  0.85560084573E+03  0.00000000000E+00 0. -1.
          2    1    5    5  502    0  0.14918203583E+03  0.81003078965E+02  0.73208739972E+02  0.18486832672E+03  0.00000000000E+00 0. -1.
          1    1    4    4  503    0  0.10960924777E+03 -0.79252064946E+03  0.46503109092E+03  0.92539563568E+03  0.00000000000E+00 0. -1.
         -2    1    4    4    0  503  0.43864403305E+02 -0.33779749603E+03  0.11461938198E+03  0.35940066351E+03  0.00000000000E+00 0.  1.
         -1    1    5    5    0  502  0.12363968567E+03  0.29210788490E+01  0.26840305709E+02  0.12655317690E+03  0.00000000000E+00 0.  1.
<mgrwt>
<rscale>  0 0.26361066E+04</rscale>
<asrwt>0</asrwt>
<pdfrwt beam="1">  1        1 0.38574352E+00 0.26361066E+04</pdfrwt>
<pdfrwt beam="2">  1       -1 0.10659592E+00 0.26361066E+04</pdfrwt>
<totfact> 0.96574618E-01</totfact>
</mgrwt>
</event>
<event>
11    1  0.2502641E-008  0.1071011E+04  0.7818608E-02  0.9233916E-01
          1   -1    0    0  501    0  0.00000000000E+00  0.00000000000E+00  0.23528724591E+04  0.23528724591E+04  0.00000000000E+00 0. -1.
         -1   -1    0    0    0  501 -0.00000000000E+00 -0.00000000000E+00 -0.12187915072E+03  0.12187915072E+03  0.00000000000E+00 0.  1.
         23    2    1    2    0    0 -0.84754683315E+02 -0.69675896368E+02  0.16004571133E+03  0.21476169090E+03  0.92031881890E+02 0.  0.
        254    2    1    2    0    0  0.84754683315E+02  0.69675896368E+02  0.20709475970E+04  0.22599899189E+04  0.89816056306E+03 0.  0.
         24    2    4    4    0    0  0.17452292202E+03  0.31241838759E+03  0.15851489647E+04  0.16269302018E+04  0.78365439568E+02 0.  0.
         13    1    3    3    0    0 -0.67276091568E+01  0.45254263974E+01  0.80457292229E+02  0.80864801254E+02  0.00000000000E+00 0. -1.
        -13    1    3    3    0    0 -0.78027074158E+02 -0.74201322765E+02  0.79588419105E+02  0.13389688965E+03  0.00000000000E+00 0.  1.
          2    1    5    5  502    0  0.68062450243E+02  0.55626710951E+02  0.34730882644E+03  0.35826002990E+03  0.00000000000E+00 0. -1.
          3    1    4    4  503    0  0.84503588100E+02  0.92551349087E+01  0.18547678796E+03  0.20402978409E+03  0.00000000000E+00 0. -1.
         -4    1    4    4    0  503 -0.17427182680E+03 -0.25199762613E+03  0.30032184435E+03  0.42902993297E+03  0.00000000000E+00 0.  1.
         -1    1    5    5    0  502  0.10646047177E+03  0.25679167664E+03  0.12378401383E+04  0.12686701719E+04  0.00000000000E+00 0.  1.
<mgrwt>
<rscale>  0 0.10710109E+04</rscale>
<asrwt>0</asrwt>
<pdfrwt beam="1">  1        1 0.36198035E+00 0.10710109E+04</pdfrwt>
<pdfrwt beam="2">  1       -1 0.18750640E-01 0.10710109E+04</pdfrwt>
<totfact> 0.39235553E+01</totfact>
</mgrwt>
</event>
<event>
12    1  0.2502641E-008  0.2239798E+04  0.7818608E-02  0.8502043E-01
          2   -1    0    0  501    0  0.00000000000E+00  0.00000000000E+00  0.12343840054E+04  0.12343840054E+04  0.00000000000E+00 0.  1.
         -2   -1    0    0    0  501 -0.00000000000E+00 -0.00000000000E+00 -0.10160321920E+04  0.10160321920E+04  0.00000000000E+00 0. -1.
         23    2    1    2    0    0  0.69403092965E+03 -0.53174976877E+03 -0.24827657321E+03  0.91407704949E+03  0.97256607543E+02 0.  0.
        254    2    1    2    0    0 -0.69403092965E+03  0.53174976877E+03  0.46662838664E+03  0.13363391480E+04  0.89645051132E+03 0.  0.
        -24    2    4    4    0    0 -0.88083245586E+03  0.48007023619E+03  0.49852032365E+03  0.11243092576E+04  0.95997639396E+02 0.  0.
         24    2    4    4    0    0  0.18680152622E+03  0.51679532583E+02 -0.31891937008E+02  0.21202989030E+03  0.79837299873E+02 0.  0.
         11    1    3    3    0    0  0.25100760278E+03 -0.18505030322E+03 -0.13703345314E+03  0.34062677325E+03  0.00000000000E+00 0. -1.
        -11    1    3    3    0    0  0.44302332687E+03 -0.34669946555E+03 -0.11124312008E+03  0.57345027624E+03  0.00000000000E+00 0.  1.
          4    1    6    6  502    0  0.18652969562E+03  0.37976884556E+02 -0.42080717965E+02  0.19495219397E+03  0.00000000000E+00 0. -1.
          1    1    5    5  503    0 -0.75731357725E+03  0.44157763861E+03  0.45578631002E+03  0.98805659029E+03  0.00000000000E+00 0. -1.
         -2    1    5    5    0  503 -0.12351887862E+03  0.38492597577E+02  0.42734013623E+02  0.13625266736E+03  0.00000000000E+00 0.  1.
         -3    1    6    6    0  502  0.27183059973E+00  0.13702648026E+02  0.10188780957E+02  0.17077696338E+02  0.00000000000E+00 0.  1.
<mgrwt>
<rscale>  0 0.22397981E+04</rscale>
<asrwt>0</asrwt>
<pdfrwt beam="1">  1        2 0.18990523E+00 0.22397981E+04</pdfrwt>
<pdfrwt beam="2">  1       -2 0.15631265E+00 0.22397981E+04</pdfrwt>
<totfact> 0.44177790E+00</totfact>
</mgrwt>
</event>
<event>
12    1  0.2502641E-008  0.2083296E+04  0.7818608E-02  0.8568637E-01
          1   -1    0    0  501    0  0.00000000000E+00  0.00000000000E+00  0.65028218024E+03  0.65028218024E+03  0.00000000000E+00 0. -1.
         -1   -1    0    0    0  501 -0.00000000000E+00 -0.00000000000E+00 -0.16685541046E+04  0.16685541046E+04  0.00000000000E+00 0.  1.
         23    2    1    2    0    0 -0.41077690606E+03 -0.52724284845E+03 -0.98952818263E+03  0.11980233848E+04  0.96805570229E+02 0.  0.
        254    2    1    2    0    0  0.41077690606E+03  0.52724284845E+03 -0.28743741743E+02  0.11208129001E+04  0.89926229019E+03 0.  0.
        -24    2    4    4    0    0  0.25001657491E+03  0.20711550757E+03 -0.45187231956E+03  0.56069601455E+03  0.69183136247E+02 0.  0.
         24    2    4    4    0    0  0.16076033115E+03  0.32012734088E+03  0.42312857782E+03  0.56011688555E+03  0.79798080544E+02 0.  0.
         11    1    3    3    0    0 -0.87897275109E+01 -0.80947260689E+01 -0.52553768918E+02  0.53895106711E+02  0.00000000000E+00 0. -1.
        -11    1    3    3    0    0 -0.40198717855E+03 -0.51914812238E+03 -0.93697441371E+03  0.11441282780E+04  0.00000000000E+00 0.  1.
          4    1    6    6  502    0  0.45513658882E+02  0.17113607409E+03  0.17931788914E+03  0.25201974995E+03  0.00000000000E+00 0. -1.
          1    1    5    5  503    0  0.63740225476E+02  0.46428878336E+02 -0.64814032068E+02  0.10207505004E+03  0.00000000000E+00 0. -1.
         -2    1    5    5    0  503  0.18627634943E+03  0.16068662924E+03 -0.38705828750E+03  0.45862096451E+03  0.00000000000E+00 0.  1.
         -3    1    6    6    0  502  0.11524667227E+03  0.14899126679E+03  0.24381068869E+03  0.30809713560E+03  0.00000000000E+00 0.  1.
<mgrwt>
<rscale>  0 0.20832964E+04</rscale>
<asrwt>0</asrwt>
<pdfrwt beam="1">  1        1 0.10004341E+00 0.20832964E+04</pdfrwt>
<pdfrwt beam="2">  1       -1 0.25670063E+00 0.20832964E+04</pdfrwt>
<totfact> 0.17672865E+00</totfact>
</mgrwt>
</event>
<event>
12    1  0.2502641E-008  0.2704343E+04  0.7818608E-02  0.8333597E-01
          2   -1    0    0  501    0  0.00000000000E+00  0.00000000000E+00  0.24216021332E+04  0.24216021332E+04  0.00000000000E+00 0. -1.
         -2   -1    0    0    0  501 -0.00000000000E+00 -0.00000000000E+00 -0.75502407123E+03  0.75502407123E+03  0.00000000000E+00 0.  1.
         23    2    1    2    0    0  0.10134944508E+04 -0.60763666996E+03  0.95145719596E+03  0.15201361692E+04  0.95654861537E+02 0.  0.
        254    2    1    2    0    0 -0.10134944508E+04  0.60763666996E+03  0.71512086599E+03  0.16564900352E+04  0.91442225441E+03 0.  0.
        -24    2    4    4    0    0 -0.95587448065E+03  0.19969894814E+03  0.74987516335E+03  0.12356282411E+04  0.10434891897E+03 0.  0.
         24    2    4    4    0    0 -0.57619970171E+02  0.40793772182E+03 -0.34754297363E+02  0.42086179417E+03  0.78635505683E+02 0.  0.
         11    1    3    3    0    0  0.26909118333E+03 -0.15829993140E+03  0.30684864827E+03  0.43774995850E+03  0.00000000000E+00 0. -1.
        -11    1    3    3    0    0  0.74440326749E+03 -0.44933673856E+03  0.64460854769E+03  0.10823862107E+04  0.00000000000E+00 0.  1.
          4    1    6    6  502    0  0.66629683411E+01  0.40977825794E+00 -0.21300628969E+01  0.70071558624E+01  0.00000000000E+00 0. -1.
          1    1    5    5  503    0 -0.92552229764E+02  0.50078218577E+02  0.66892093851E+02  0.12469280424E+03  0.00000000000E+00 0. -1.
         -2    1    5    5    0  503 -0.86332225089E+03  0.14962072956E+03  0.68298306950E+03  0.11109354368E+04  0.00000000000E+00 0.  1.
         -3    1    6    6    0  502 -0.64282938512E+02  0.40752794357E+03 -0.32624234466E+02  0.41385463830E+03  0.00000000000E+00 0.  1.
<mgrwt>
<rscale>  0 0.27043431E+04</rscale>
<asrwt>0</asrwt>
<pdfrwt beam="1">  1        2 0.37255417E+00 0.27043431E+04</pdfrwt>
<pdfrwt beam="2">  1       -2 0.11615755E+00 0.27043431E+04</pdfrwt>
<totfact> 0.19491598E+00</totfact>
</mgrwt>
</event>
<event>
11    1  0.2502641E-008  0.1851015E+04  0.7818608E-02  0.8679631E-01
         -2   -1    0    0    0  501 -0.00000000000E+00  0.00000000000E+00  0.83354596391E+03  0.83354596391E+03  0.00000000000E+00 0.  1.
          2   -1    0    0  501    0  0.00000000000E+00 -0.00000000000E+00 -0.10276148828E+04  0.10276148828E+04  0.00000000000E+00 0. -1.
         23    2    1    2    0    0 -0.60402870565E+03  0.41635631941E+02 -0.44117731771E+03  0.75495104917E+03  0.93431567888E+02 0.  0.
        254    2    1    2    0    0  0.60402870565E+03 -0.41635631941E+02  0.24710839884E+03  0.11062097975E+04  0.89221822010E+03 0.  0.
         24    2    4    4    0    0  0.82378224211E+02 -0.32643587802E+02  0.26249405823E+03  0.28842441558E+03  0.80210580637E+02 0.  0.
         11    1    3    3    0    0 -0.40731203619E+03  0.55974920780E+02 -0.25548292693E+03  0.48405352238E+03  0.00000000000E+00 0. -1.
        -11    1    3    3    0    0 -0.19671666946E+03 -0.14339288839E+02 -0.18569439079E+03  0.27089752678E+03  0.00000000000E+00 0.  1.
          4    1    5    5  502    0 -0.10255594712E+01  0.20528768920E+02  0.48580163069E+02  0.52749543784E+02  0.00000000000E+00 0. -1.
          3    1    4    4  503    0  0.10067462782E+03  0.24694764742E+03 -0.15142993220E+03  0.30667498369E+03  0.00000000000E+00 0. -1.
         -4    1    4    4    0  503  0.42097585362E+03 -0.25593969156E+03  0.13604427282E+03  0.51111039826E+03  0.00000000000E+00 0.  1.
         -3    1    5    5    0  502  0.83403783682E+02 -0.53172356721E+02  0.21391389516E+03  0.23567487179E+03  0.00000000000E+00 0.  1.
<mgrwt>
<rscale>  0 0.18510151E+04</rscale>
<asrwt>0</asrwt>
<pdfrwt beam="1">  1        2 0.15809460E+00 0.18510151E+04</pdfrwt>
<pdfrwt beam="2">  1       -2 0.12823784E+00 0.18510151E+04</pdfrwt>
<totfact> 0.10223041E+01</totfact>
</mgrwt>
</event>
<event>
12    1  0.2502641E-008  0.2371285E+04  0.7818608E-02  0.8450333E-01
         -2   -1    0    0    0  501 -0.00000000000E+00  0.00000000000E+00  0.62209089011E+03  0.62209089011E+03  0.00000000000E+00 0.  1.
          2   -1    0    0  501    0  0.00000000000E+00 -0.00000000000E+00 -0.22597151783E+04  0.22597151783E+04  0.00000000000E+00 0. -1.
         23    2    1    2    0    0 -0.62499321182E+03  0.38921727705E+03  0.14115273318E+03  0.75619847076E+03  0.99022368804E+02 0.  0.
        254    2    1    2    0    0  0.62499321182E+03 -0.38921727705E+03 -0.17787770214E+04  0.21256075976E+04  0.90114003566E+03 0.  0.
        -24    2    4    4    0    0  0.20519509407E+03  0.20122030028E+03 -0.12632504330E+03  0.31952720971E+03  0.59539779194E+02 0.  0.
         24    2    4    4    0    0  0.41979811774E+03 -0.59043757733E+03 -0.16524519781E+04  0.18060803879E+04  0.80509847202E+02 0.  0.
         13    1    3    3    0    0 -0.85440635192E+02  0.77601930279E+02  0.52677424160E+02  0.12687423986E+03  0.00000000000E+00 0. -1.
        -13    1    3    3    0    0 -0.53955257662E+03  0.31161534677E+03  0.88475309023E+02  0.62932423089E+03  0.00000000000E+00 0.  1.
          2    1    6    6  502    0  0.10386710990E+02 -0.10024163946E+02 -0.70905412082E+02  0.72359830642E+02  0.00000000000E+00 0. -1.
          3    1    5    5  503    0  0.10099733774E+03  0.11182278376E+03 -0.96804039510E+02  0.17909723411E+03  0.00000000000E+00 0. -1.
         -4    1    5    5    0  503  0.10419775633E+03  0.89397516514E+02 -0.29521003788E+02  0.14042997561E+03  0.00000000000E+00 0.  1.
         -1    1    6    6    0  502  0.40941140675E+03 -0.58041341338E+03 -0.15815465660E+04  0.17337205573E+04  0.00000000000E+00 0.  1.
<mgrwt>
<rscale>  0 0.23712851E+04</rscale>
<asrwt>0</asrwt>
<pdfrwt beam="1">  1        2 0.34764850E+00 0.23712851E+04</pdfrwt>
<pdfrwt beam="2">  1       -2 0.95706288E-01 0.23712851E+04</pdfrwt>
<totfact> 0.39445177E+00</totfact>
</mgrwt>
</event>
<event>
12    1  0.2502641E-008  0.1945195E+04  0.7818608E-02  0.8632681E-01
          1   -1    0    0  501    0  0.00000000000E+00  0.00000000000E+00  0.26646288007E+04  0.26646288007E+04  0.00000000000E+00 0. -1.
         -1   -1    0    0    0  501 -0.00000000000E+00 -0.00000000000E+00 -0.35500099156E+03  0.35500099156E+03  0.00000000000E+00 0.  1.
         23    2    1    2    0    0  0.13613124807E+03  0.22275020330E+03 -0.19652904795E+03  0.34201021454E+03  0.10098490178E+03 0.  0.
        254    2    1    2    0    0 -0.13613124807E+03 -0.22275020330E+03  0.25061568570E+04  0.26776195777E+04  0.90591116613E+03 0.  0.
        -24    2    4    4    0    0 -0.44783337842E+03 -0.21015126019E+03  0.82983228026E+03  0.97061749951E+03  0.93586484079E+02 0.  0.
         24    2    4    4    0    0  0.31170213035E+03 -0.12598943113E+02  0.16763245768E+04  0.17070020782E+04  0.80467737283E+02 0.  0.
         13    1    3    3    0    0  0.27785926233E+02 -0.37002441746E+01 -0.28210934192E+02  0.39769414273E+02  0.00000000000E+00 0. -1.
        -13    1    3    3    0    0  0.10834532184E+03  0.22645044747E+03 -0.16831811376E+03  0.30224080026E+03  0.00000000000E+00 0.  1.
          4    1    6    6  502    0  0.18926210186E+02  0.46272660291E+01  0.25449691189E+03  0.25524163294E+03  0.00000000000E+00 0. -1.
          1    1    5    5  503    0 -0.27112256940E+03 -0.17538603063E+03  0.51257731600E+03  0.60580790046E+03  0.00000000000E+00 0. -1.
         -2    1    5    5    0  503 -0.17671080903E+03 -0.34765229552E+02  0.31725496426E+03  0.36480959905E+03  0.00000000000E+00 0.  1.
         -3    1    6    6    0  502  0.29277592016E+03 -0.17226209142E+02  0.14218276649E+04  0.14517604452E+04  0.00000000000E+00 0.  1.
<mgrwt>
<rscale>  0 0.19451950E+04</rscale>
<asrwt>0</asrwt>
<pdfrwt beam="1">  1        1 0.40994288E+00 0.19451950E+04</pdfrwt>
<pdfrwt beam="2">  1       -1 0.54615539E-01 0.19451950E+04</pdfrwt>
<totfact> 0.32844188E+00</totfact>
</mgrwt>
</event>
<event>
11    1  0.2502641E-008  0.1231476E+04  0.7818608E-02  0.9085743E-01
          2   -1    0    0  501    0  0.00000000000E+00  0.00000000000E+00  0.19649774874E+03  0.19649774874E+03  0.00000000000E+00 0. -1.
         -2   -1    0    0    0  501 -0.00000000000E+00 -0.00000000000E+00 -0.19294530548E+04  0.19294530548E+04  0.00000000000E+00 0.  1.
         23    2    1    2    0    0 -0.91240426685E+02  0.21626471043E+03 -0.66313260121E+03  0.70941547521E+03  0.91816279883E+02 0.  0.
        254    2    1    2    0    0  0.91240426685E+02 -0.21626471043E+03 -0.10698227048E+04  0.14165353283E+04  0.89830756211E+03 0.  0.
         24    2    4    4    0    0 -0.36521247158E+03  0.50796745436E+02 -0.52499476980E+03  0.64613417197E+03  0.76872629215E+02 0.  0.
         11    1    3    3    0    0 -0.42646552685E+02  0.19360666924E+03 -0.53260901170E+03  0.56830856950E+03  0.00000000000E+00 0.  1.
        -11    1    3    3    0    0 -0.48593874001E+02  0.22658041191E+02 -0.13052358951E+03  0.14110690571E+03  0.00000000000E+00 0. -1.
          2    1    5    5  502    0 -0.30998760657E+03  0.52519650331E+02 -0.48473501056E+03  0.57777042184E+03  0.00000000000E+00 0. -1.
          3    1    4    4  503    0  0.33787320429E+03 -0.24398660132E+03 -0.36637501340E+03  0.55490396849E+03  0.00000000000E+00 0. -1.
         -4    1    4    4    0  503  0.11857969398E+03 -0.23074854540E+02 -0.17845292164E+03  0.21549718787E+03  0.00000000000E+00 0.  1.
         -3    1    5    5    0  502 -0.55224865011E+02 -0.17229048950E+01 -0.40259759244E+02  0.68363750125E+02  0.00000000000E+00 0.  1.
<mgrwt>
<rscale>  0 0.12314758E+04</rscale>
<asrwt>0</asrwt>
<pdfrwt beam="1">  1        2 0.30230424E-01 0.12314758E+04</pdfrwt>
<pdfrwt beam="2">  1       -2 0.29683892E+00 0.12314758E+04</pdfrwt>
<totfact> 0.58194850E+00</totfact>
</mgrwt>
</event>
<event>
11    1  0.2502641E-008  0.2317572E+04  0.7818608E-02  0.8471025E-01
          2   -1    0    0  501    0  0.00000000000E+00  0.00000000000E+00  0.81394964780E+03  0.81394964780E+03  0.00000000000E+00 0. -1.
         -2   -1    0    0    0  501 -0.00000000000E+00 -0.00000000000E+00 -0.16497155578E+04  0.16497155578E+04  0.00000000000E+00 0.  1.
         23    2    1    2    0    0  0.67234821236E+03  0.69443628954E+03 -0.54400729974E+03  0.11128012505E+04  0.89937768141E+02 0.  0.
        254    2    1    2    0    0 -0.67234821236E+03 -0.69443628954E+03 -0.29175861027E+03  0.13508639551E+04  0.89744997606E+03 0.  0.
         24    2    4    4    0    0 -0.36358308940E+03 -0.50805380443E+03 -0.41913597794E+03  0.75716123838E+03  0.85480066747E+02 0.  0.
         13    1    3    3    0    0  0.55174241896E+01  0.22491334696E+02 -0.59417245151E+01  0.23908287189E+02  0.00000000000E+00 0. -1.
        -13    1    3    3    0    0  0.66683078817E+03  0.67194495485E+03 -0.53806557522E+03  0.10888929634E+04  0.00000000000E+00 0.  1.
          4    1    5    5  502    0 -0.10129511782E+02 -0.17148854521E+02  0.21093417235E+01  0.20028468310E+02  0.00000000000E+00 0. -1.
          3    1    4    4  503    0 -0.81031576123E+02 -0.25095018740E+03 -0.83574206273E+02  0.27663470650E+03  0.00000000000E+00 0. -1.
         -4    1    4    4    0  503 -0.22773354684E+03  0.64567702286E+02  0.21095157394E+03  0.31706801019E+03  0.00000000000E+00 0.  1.
         -3    1    5    5    0  502 -0.35345357762E+03 -0.49090494991E+03 -0.42124531966E+03  0.73713277007E+03  0.00000000000E+00 0.  1.
<mgrwt>
<rscale>  0 0.23175723E+04</rscale>
<asrwt>0</asrwt>
<pdfrwt beam="1">  1        2 0.12522302E+00 0.23175723E+04</pdfrwt>
<pdfrwt beam="2">  1       -2 0.25380239E+00 0.23175723E+04</pdfrwt>
<totfact> 0.18552592E+00</totfact>
</mgrwt>
</event>
<event>
11    1  0.2502641E-008  0.1511823E+04  0.7818608E-02  0.8876629E-01
          2   -1    0    0  501    0  0.00000000000E+00  0.00000000000E+00  0.19637686460E+04  0.19637686460E+04  0.00000000000E+00 0. -1.
         -2   -1    0    0    0  501 -0.00000000000E+00 -0.00000000000E+00 -0.29097223228E+03  0.29097223228E+03  0.00000000000E+00 0.  1.
         23    2    1    2    0    0 -0.23263821766E+03  0.10025640358E+02 -0.90380911563E+02  0.26511950695E+03  0.88874012004E+02 0.  0.
        254    2    1    2    0    0  0.23263821766E+03 -0.10025640358E+02  0.17631773253E+04  0.19896213714E+04  0.89195171790E+03 0.  0.
         24    2    4    4    0    0  0.17583437888E+03 -0.26571061433E+03  0.16733800477E+03  0.36846236565E+03  0.79010427779E+02 0.  0.
         13    1    3    3    0    0 -0.19971282204E+03  0.19968988692E+02 -0.40858838452E+02  0.20482533163E+03  0.00000000000E+00 0. -1.
        -13    1    3    3    0    0 -0.32925395624E+02 -0.99433483337E+01 -0.49522073111E+02  0.60294175326E+02  0.00000000000E+00 0.  1.
          2    1    5    5  502    0  0.18305446230E+03 -0.24181016812E+03  0.15349718295E+03  0.33991539940E+03  0.00000000000E+00 0. -1.
          3    1    4    4  503    0 -0.54105377878E+01  0.20518712052E+03  0.11408078940E+04  0.11591262569E+04  0.00000000000E+00 0. -1.
         -4    1    4    4    0  503  0.62214376567E+02  0.50497853447E+02  0.45503142656E+03  0.46203274885E+03  0.00000000000E+00 0.  1.
         -1    1    5    5    0  502 -0.72200834212E+01 -0.23900446206E+02  0.13840821825E+02  0.28546966253E+02  0.00000000000E+00 0.  1.
<mgrwt>
<rscale>  0 0.15118229E+04</rscale>
<asrwt>0</asrwt>
<pdfrwt beam="1">  1        2 0.30211825E+00 0.15118229E+04</pdfrwt>
<pdfrwt beam="2">  1       -2 0.44764960E-01 0.15118229E+04</pdfrwt>
<totfact> 0.31981408E+01</totfact>
</mgrwt>
</event>
<event>
12    1  0.2502641E-008  0.1353370E+04  0.7818608E-02  0.8988281E-01
         -1   -1    0    0    0  501 -0.00000000000E+00  0.00000000000E+00  0.94150367082E+03  0.94150367082E+03  0.00000000000E+00 0.  1.
          1   -1    0    0  501    0  0.00000000000E+00 -0.00000000000E+00 -0.48635263985E+03  0.48635263985E+03  0.00000000000E+00 0. -1.
         23    2    1    2    0    0  0.13209196776E+03  0.33769128853E+03  0.30522825028E+02  0.37517386974E+03  0.91324122740E+02 0.  0.
        254    2    1    2    0    0 -0.13209196776E+03 -0.33769128853E+03  0.42462820595E+03  0.10526824409E+04  0.89238305332E+03 0.  0.
        -24    2    4    4    0    0  0.36517100589E+03 -0.24461900177E+03  0.21661827317E+03  0.49928087269E+03  0.95757997007E+02 0.  0.
         24    2    4    4    0    0 -0.49726297365E+03 -0.93072286761E+02  0.20800993278E+03  0.55340156824E+03  0.83977664109E+02 0.  0.
         13    1    3    3    0    0  0.10317178488E+03  0.19576232106E+03 -0.18991726580E+02  0.22209905272E+03  0.00000000000E+00 0. -1.
        -13    1    3    3    0    0  0.28920182884E+02  0.14192896747E+03  0.49514551607E+02  0.15307481702E+03  0.00000000000E+00 0.  1.
          4    1    6    6  502    0 -0.11802993819E+03  0.42387513372E+01  0.74993182053E+02  0.13990357635E+03  0.00000000000E+00 0. -1.
          1    1    5    5  503    0  0.18930902367E+03 -0.15386156075E+03  0.72595162517E+02  0.25452179463E+03  0.00000000000E+00 0. -1.
         -2    1    5    5    0  503  0.17586198222E+03 -0.90757441018E+02  0.14402311065E+03  0.24475907806E+03  0.00000000000E+00 0.  1.
         -3    1    6    6    0  502 -0.37923303547E+03 -0.97311038099E+02  0.13301675073E+03  0.41349799189E+03  0.00000000000E+00 0.  1.
<mgrwt>
<rscale>  0 0.13533703E+04</rscale>
<asrwt>0</asrwt>
<pdfrwt beam="1">  1        1 0.74823483E-01 0.13533703E+04</pdfrwt>
<pdfrwt beam="2">  1       -1 0.14484672E+00 0.13533703E+04</pdfrwt>
<totfact> 0.17267582E+01</totfact>
</mgrwt>
</event>
<event>
12    1  0.2502641E-008  0.1383493E+04  0.7818608E-02  0.8965855E-01
          2   -1    0    0  501    0  0.00000000000E+00  0.00000000000E+00  0.97995442679E+03  0.97995442679E+03  0.00000000000E+00 0. -1.
         -2   -1    0    0    0  501 -0.00000000000E+00 -0.00000000000E+00 -0.48830137062E+03  0.48830137062E+03  0.00000000000E+00 0.  1.
         23    2    1    2    0    0  0.16441850450E+03 -0.18359960630E+03 -0.16148478240E+03  0.31933731469E+03  0.12311265390E+03 0.  0.
        254    2    1    2    0    0 -0.16441850450E+03  0.18359960630E+03  0.65313783857E+03  0.11489184827E+04  0.91251431974E+03 0.  0.
        -24    2    4    4    0    0 -0.32967264328E+03  0.16642216308E+03  0.81717608039E+03  0.90164205419E+03  0.93815027819E+02 0.  0.
         24    2    4    4    0    0  0.16525413878E+03  0.17177443223E+02 -0.16403824182E+03  0.24727642853E+03  0.81443798957E+02 0.  0.
         13    1    3    3    0    0  0.11800983594E+03 -0.17171944471E+03 -0.76841063824E+02  0.22207754988E+03  0.00000000000E+00 0. -1.
        -13    1    3    3    0    0  0.46408668565E+02 -0.11880161587E+02 -0.84643718572E+02  0.97259764811E+02  0.00000000000E+00 0.  1.
          4    1    6    6  502    0  0.87496293554E+02 -0.31443927851E+02 -0.90180779835E+02  0.12952565397E+03  0.00000000000E+00 0. -1.
          1    1    5    5  503    0 -0.16299340001E+02  0.36173795713E+02  0.11729870136E+03  0.12382728827E+03  0.00000000000E+00 0. -1.
         -2    1    5    5    0  503 -0.31337330328E+03  0.13024836736E+03  0.69987737903E+03  0.77781476592E+03  0.00000000000E+00 0.  1.
         -3    1    6    6    0  502  0.77757845222E+02  0.48621371075E+02 -0.73857461987E+02  0.11775077456E+03  0.00000000000E+00 0.  1.
<mgrwt>
<rscale>  0 0.13834928E+04</rscale>
<asrwt>0</asrwt>
<pdfrwt beam="1">  1        2 0.15076222E+00 0.13834928E+04</pdfrwt>
<pdfrwt beam="2">  1       -2 0.75123288E-01 0.13834928E+04</pdfrwt>
<totfact> 0.40245232E+01</totfact>
</mgrwt>
</event>
<event>
11    1  0.2502641E-008  0.1459533E+04  0.7818608E-02  0.8911818E-01
         -2   -1    0    0    0  501 -0.00000000000E+00  0.00000000000E+00  0.43075195619E+03  0.43075195619E+03  0.00000000000E+00 0.  1.
          2   -1    0    0  501    0  0.00000000000E+00 -0.00000000000E+00 -0.12363471424E+04  0.12363471424E+04  0.00000000000E+00 0. -1.
         23    2    1    2    0    0  0.72232062969E+02  0.42431304095E+03 -0.41500876238E+03  0.60508698722E+03  0.92946014487E+02 0.  0.
        254    2    1    2    0    0 -0.72232062969E+02 -0.42431304095E+03 -0.39058642385E+03  0.10620121114E+04  0.88884922377E+03 0.  0.
         24    2    4    4    0    0  0.26314277377E+03 -0.79073534113E+02 -0.15078293993E+03  0.32272081383E+03  0.76918694226E+02 0.  0.
         11    1    3    3    0    0  0.83507286829E+02  0.41797443108E+03 -0.39414942926E+03  0.58054273278E+03  0.00000000000E+00 0. -1.
        -11    1    3    3    0    0 -0.11275223860E+02  0.63386098734E+01 -0.20859333118E+02  0.24544254447E+02  0.00000000000E+00 0.  1.
          4    1    5    5  502    0  0.22855770874E+03 -0.42965130448E+02 -0.14039695893E+03  0.27165407182E+03  0.00000000000E+00 0. -1.
          1    1    4    4  503    0 -0.38353310692E+03 -0.44540485533E+03 -0.19244031887E+03  0.61847910683E+03  0.00000000000E+00 0. -1.
         -2    1    4    4    0  503  0.48158270183E+02  0.10016534849E+03 -0.47363165055E+02  0.12081219073E+03  0.00000000000E+00 0.  1.
         -1    1    5    5    0  502  0.34585065026E+02 -0.36108403665E+02 -0.10385981000E+02  0.51066742009E+02  0.00000000000E+00 0.  1.
<mgrwt>
<rscale>  0 0.14595327E+04</rscale>
<asrwt>0</asrwt>
<pdfrwt beam="1">  1        2 0.19020725E+00 0.14595327E+04</pdfrwt>
<pdfrwt beam="2">  1       -2 0.66269532E-01 0.14595327E+04</pdfrwt>
<totfact> 0.36567725E+01</totfact>
</mgrwt>
</event>
<event>
11    1  0.2502641E-008  0.2845992E+04  0.7818608E-02  0.8289130E-01
          2   -1    0    0  501    0  0.00000000000E+00  0.00000000000E+00  0.34452047626E+04  0.34452047626E+04  0.00000000000E+00 0. -1.
         -2   -1    0    0    0  501 -0.00000000000E+00 -0.00000000000E+00 -0.58774976206E+03  0.58774976206E+03  0.00000000000E+00 0.  1.
         23    2    1    2    0    0  0.23238718514E+02 -0.43874444009E+03  0.29880591388E+04  0.30217055223E+04  0.95760767762E+02 0.  0.
        254    2    1    2    0    0 -0.23238718514E+02  0.43874444009E+03 -0.13060413826E+03  0.10112490024E+04  0.90140467168E+03 0.  0.
         24    2    4    4    0    0 -0.30774429237E+03 -0.10154702939E+03 -0.19565230552E+03  0.38677039808E+03  0.79329486991E+02 0.  0.
         11    1    3    3    0    0  0.48876149283E+02 -0.13412512299E+03  0.85026469881E+03  0.86216499849E+03  0.00000000000E+00 0.  1.
        -11    1    3    3    0    0 -0.25637430769E+02 -0.30461931710E+03  0.21377944400E+04  0.21595405238E+04  0.00000000000E+00 0. -1.
          4    1    5    5  502    0 -0.30561061463E+03 -0.99874474080E+02 -0.17522634548E+03  0.36616530488E+03  0.00000000000E+00 0. -1.
          3    1    4    4  503    0  0.25850950231E+03  0.52321239139E+03  0.81560846892E+02  0.58926270969E+03  0.00000000000E+00 0. -1.
         -4    1    4    4    0  503  0.25996071544E+02  0.17079078082E+02 -0.16512679633E+02  0.35215894601E+02  0.00000000000E+00 0.  1.
         -3    1    5    5    0  502 -0.21336777418E+01 -0.16725553075E+01 -0.20425960042E+02  0.20605093196E+02  0.00000000000E+00 0.  1.
<mgrwt>
<rscale>  0 0.28459925E+04</rscale>
<asrwt>0</asrwt>
<pdfrwt beam="1">  1        2 0.53003149E+00 0.28459925E+04</pdfrwt>
<pdfrwt beam="2">  1       -2 0.90423042E-01 0.28459925E+04</pdfrwt>
<totfact> 0.80408467E-01</totfact>
</mgrwt>
</event>
<event>
11    1  0.2502641E-008  0.1338631E+04  0.7818608E-02  0.8999479E-01
          2   -1    0    0  501    0  0.00000000000E+00  0.00000000000E+00  0.60135793565E+03  0.60135793565E+03  0.00000000000E+00 0. -1.
         -2   -1    0    0    0  501 -0.00000000000E+00 -0.00000000000E+00 -0.74495229204E+03  0.74495229204E+03  0.00000000000E+00 0.  1.
         23    2    1    2    0    0 -0.14383110622E+03 -0.12292678819E+03 -0.33750004026E+03  0.39800029737E+03  0.93271523854E+02 0.  0.
        254    2    1    2    0    0  0.14383110622E+03  0.12292678819E+03  0.19390568387E+03  0.94830993032E+03  0.90878706381E+03 0.  0.
         24    2    4    4    0    0  0.38489971192E+03 -0.24654470115E+03  0.15825504929E+03  0.49024059175E+03  0.79743960720E+02 0.  0.
         11    1    3    3    0    0 -0.24999135146E+02  0.14592616572E+02 -0.39979296559E+02  0.49358336376E+02  0.00000000000E+00 0. -1.
        -11    1    3    3    0    0 -0.11883197108E+03 -0.13751940476E+03 -0.29752074370E+03  0.34864196099E+03  0.00000000000E+00 0.  1.
          4    1    5    5  502    0  0.37271970272E+03 -0.24565792083E+03  0.16544726168E+03  0.47606783893E+03  0.00000000000E+00 0. -1.
          3    1    4    4  503    0 -0.20840372133E+03  0.22584626035E+03  0.36005775029E+01  0.30732980418E+03  0.00000000000E+00 0. -1.
         -4    1    4    4    0  503 -0.32664884374E+02  0.14362522898E+03  0.32050057078E+02  0.15073953439E+03  0.00000000000E+00 0.  1.
         -3    1    5    5    0  502  0.12180009201E+02 -0.88678031665E+00 -0.71922123912E+01  0.14172752821E+02  0.00000000000E+00 0.  1.
<mgrwt>
<rscale>  0 0.13386306E+04</rscale>
<asrwt>0</asrwt>
<pdfrwt beam="1">  1        2 0.92516607E-01 0.13386306E+04</pdfrwt>
<pdfrwt beam="2">  1       -2 0.11460804E+00 0.13386306E+04</pdfrwt>
<totfact> 0.28746205E+01</totfact>
</mgrwt>
</event>
<event>
11    1  0.2502641E-008  0.1914095E+04  0.7818608E-02  0.8647872E-01
         -2   -1    0    0    0  501 -0.00000000000E+00  0.00000000000E+00  0.45186479736E+03  0.45186479736E+03  0.00000000000E+00 0.  1.
          2   -1    0    0  501    0  0.00000000000E+00 -0.00000000000E+00 -0.20270222531E+04  0.20270222531E+04  0.00000000000E+00 0. -1.
         23    2    1    2    0    0  0.23401776472E+03 -0.10498369826E+03  0.28540674285E+03  0.39430976924E+03  0.90759540273E+02 0.  0.
        254    2    1    2    0    0 -0.23401776472E+03  0.10498369826E+03 -0.18605641986E+04  0.20845772813E+04  0.90442103756E+03 0.  0.
         24    2    4    4    0    0  0.51854392379E+02 -0.29040451673E+03 -0.76960177451E+03  0.82782499264E+03  0.77354158058E+02 0.  0.
         11    1    3    3    0    0  0.22722282083E+03 -0.11898403236E+03  0.26797171606E+03  0.37093968630E+03  0.00000000000E+00 0.  1.
        -11    1    3    3    0    0  0.67949438852E+01  0.14000334105E+02  0.17435026796E+02  0.23370082944E+02  0.00000000000E+00 0. -1.
          4    1    5    5  502    0  0.54631685638E+02 -0.25853381260E+03 -0.60570273867E+03  0.66083292969E+03  0.00000000000E+00 0. -1.
          3    1    4    4  503    0 -0.34933388002E+02  0.99896050627E+02 -0.75802998857E+01  0.10609912099E+03  0.00000000000E+00 0. -1.
         -4    1    4    4    0  503 -0.25093876910E+03  0.29549216436E+03 -0.10833821242E+04  0.11506531676E+04  0.00000000000E+00 0.  1.
         -3    1    5    5    0  502 -0.27772932594E+01 -0.31870704137E+02 -0.16389903584E+03  0.16699206295E+03  0.00000000000E+00 0.  1.
<mgrwt>
<rscale>  0 0.19140951E+04</rscale>
<asrwt>0</asrwt>
<pdfrwt beam="1">  1        2 0.31184957E+00 0.19140951E+04</pdfrwt>
<pdfrwt beam="2">  1       -2 0.69517662E-01 0.19140951E+04</pdfrwt>
<totfact> 0.11393410E+01</totfact>
</mgrwt>
</event>
<event>
11    1  0.2502641E-008  0.1449480E+04  0.7818608E-02  0.8918761E-01
          1   -1    0    0  501    0  0.00000000000E+00  0.00000000000E+00  0.20864526744E+04  0.20864526744E+04  0.00000000000E+00 0. -1.
         -1   -1    0    0    0  501 -0.00000000000E+00 -0.00000000000E+00 -0.25174215044E+03  0.25174215044E+03  0.00000000000E+00 0.  1.
         23    2    1    2    0    0  0.11795083123E+03  0.14219787578E+03  0.11744938901E+04  0.11922725398E+04  0.89136282175E+02 0.  0.
        254    2    1    2    0    0 -0.11795083123E+03 -0.14219787578E+03  0.66021663391E+03  0.11459222851E+04  0.91821524999E+03 0.  0.
         24    2    4    4    0    0  0.32064636254E+03  0.13319858926E+03  0.14172204588E+03  0.38341449326E+03  0.79784593499E+02 0.  0.
         11    1    3    3    0    0  0.89613378426E+02  0.15088274369E+03  0.10028396718E+04  0.10180783699E+04  0.00000000000E+00 0. -1.
        -11    1    3    3    0    0  0.28337452805E+02 -0.86848679156E+01  0.17165421824E+03  0.17419416983E+03  0.00000000000E+00 0.  1.
          2    1    5    5  502    0  0.11264076553E+03  0.16210257808E+02  0.72489659202E+02  0.13492762953E+03  0.00000000000E+00 0. -1.
          1    1    4    4  503    0  0.17922794394E+02 -0.32208971435E+02  0.64440759716E+02  0.74237833431E+02  0.00000000000E+00 0. -1.
         -2    1    4    4    0  503 -0.45651998817E+03 -0.24318749360E+03  0.45405382831E+03  0.68826995840E+03  0.00000000000E+00 0.  1.
         -1    1    5    5    0  502  0.20800559701E+03  0.11698833145E+03  0.69232386682E+02  0.24848686373E+03  0.00000000000E+00 0.  1.
<mgrwt>
<rscale>  0 0.14494800E+04</rscale>
<asrwt>0</asrwt>
<pdfrwt beam="1">  1        1 0.32099271E+00 0.14494800E+04</pdfrwt>
<pdfrwt beam="2">  1       -1 0.38729563E-01 0.14494800E+04</pdfrwt>
<totfact> 0.16352961E+01</totfact>
</mgrwt>
</event>
<event>
11    1  0.2502641E-008  0.1519616E+04  0.7818608E-02  0.8871512E-01
          2   -1    0    0  501    0  0.00000000000E+00  0.00000000000E+00  0.32109577983E+04  0.32109577983E+04  0.00000000000E+00 0. -1.
         -2   -1    0    0    0  501 -0.00000000000E+00 -0.00000000000E+00 -0.17979308771E+03  0.17979308771E+03  0.00000000000E+00 0.  1.
         23    2    1    2    0    0 -0.31730665271E+03 -0.12366966010E+03  0.17564745000E+04  0.17914158535E+04  0.89389006321E+02 0.  0.
        254    2    1    2    0    0  0.31730665271E+03  0.12366966010E+03  0.12746902106E+04  0.15993350324E+04  0.90391355584E+03 0.  0.
         24    2    4    4    0    0  0.15861442307E+03  0.46749160885E+03  0.99906777626E+03  0.11171448857E+04  0.78545110964E+02 0.  0.
         11    1    3    3    0    0 -0.36846559970E+02 -0.38685347885E+02  0.40676145300E+03  0.41025492657E+03  0.00000000000E+00 0. -1.
        -11    1    3    3    0    0 -0.28046009274E+03 -0.84984312213E+02  0.13497130470E+04  0.13811609270E+04  0.00000000000E+00 0.  1.
          4    1    5    5  502    0  0.86041826869E+01  0.47658633294E+02  0.56209120533E+02  0.74194625939E+02  0.00000000000E+00 0. -1.
          1    1    4    4  503    0  0.11504634373E+03 -0.12706346305E+03  0.15068048067E+03  0.22822224279E+03  0.00000000000E+00 0. -1.
         -2    1    4    4    0  503  0.43645885911E+02 -0.21675848570E+03  0.12494195362E+03  0.25396790399E+03  0.00000000000E+00 0.  1.
         -3    1    5    5    0  502  0.15001024038E+03  0.41983297556E+03  0.94285865573E+03  0.10429502597E+04  0.00000000000E+00 0.  1.
<mgrwt>
<rscale>  0 0.15196158E+04</rscale>
<asrwt>0</asrwt>
<pdfrwt beam="1">  1        2 0.49399346E+00 0.15196158E+04</pdfrwt>
<pdfrwt beam="2">  1       -2 0.27660477E-01 0.15196158E+04</pdfrwt>
<totfact> 0.14812803E+01</totfact>
</mgrwt>
</event>
<event>
12    1  0.2502641E-008  0.1546320E+04  0.7818608E-02  0.8854222E-01
         -2   -1    0    0    0  501 -0.00000000000E+00  0.00000000000E+00  0.64963860731E+03  0.64963860731E+03  0.00000000000E+00 0.  1.
          2   -1    0    0  501    0  0.00000000000E+00 -0.00000000000E+00 -0.92016722083E+03  0.92016722083E+03  0.00000000000E+00 0. -1.
         23    2    1    2    0    0  0.89933987524E+02  0.49468832609E+03 -0.49899156614E+02  0.51328898111E+03  0.90393529712E+02 0.  0.
        254    2    1    2    0    0 -0.89933987524E+02 -0.49468832609E+03 -0.22062945691E+03  0.10565168470E+04  0.90263272084E+03 0.  0.
        -24    2    4    4    0    0  0.16171624128E+03 -0.41608310802E+03  0.24687619854E+03  0.51407204352E+03  0.63599630894E+02 0.  0.
         24    2    4    4    0    0 -0.25165022880E+03 -0.78605218069E+02 -0.46750565546E+03  0.54244480351E+03  0.78601584013E+02 0.  0.
         11    1    3    3    0    0  0.20552927524E+02  0.29190774604E+03 -0.60046054992E+02  0.29872744057E+03  0.00000000000E+00 0. -1.
        -11    1    3    3    0    0  0.69381060000E+02  0.20278058005E+03  0.10146898378E+02  0.21456154054E+03  0.00000000000E+00 0.  1.
          4    1    6    6  502    0 -0.22966462888E+03 -0.84293799456E+02 -0.37922703354E+03  0.45129195578E+03  0.00000000000E+00 0. -1.
          1    1    5    5  503    0  0.12029829529E+03 -0.36426882426E+03  0.22202180152E+03  0.44323485482E+03  0.00000000000E+00 0. -1.
         -2    1    5    5    0  503  0.41417945992E+02 -0.51814283761E+02  0.24854397023E+02  0.70837188702E+02  0.00000000000E+00 0.  1.
         -3    1    6    6    0  502 -0.21985599927E+02  0.56885813872E+01 -0.88278621917E+02  0.91152847734E+02  0.00000000000E+00 0.  1.
<mgrwt>
<rscale>  0 0.15463197E+04</rscale>
<asrwt>0</asrwt>
<pdfrwt beam="1">  1        2 0.14156419E+00 0.15463197E+04</pdfrwt>
<pdfrwt beam="2">  1       -2 0.99944402E-01 0.15463197E+04</pdfrwt>
<totfact> 0.22636127E+01</totfact>
</mgrwt>
</event>
<event>
11    1  0.2502641E-008  0.1414873E+04  0.7818608E-02  0.8943123E-01
         -1   -1    0    0    0  501 -0.00000000000E+00  0.00000000000E+00  0.57348913431E+03  0.57348913431E+03  0.00000000000E+00 0.  1.
          1   -1    0    0  501    0  0.00000000000E+00 -0.00000000000E+00 -0.87266881456E+03  0.87266881456E+03  0.00000000000E+00 0. -1.
         23    2    1    2    0    0  0.54342710877E+02 -0.32860794804E+03 -0.33248177796E+03  0.47934323480E+03  0.91046638222E+02 0.  0.
        254    2    1    2    0    0 -0.54342710877E+02  0.32860794804E+03  0.33302097712E+02  0.96681471408E+03  0.90702003722E+03 0.  0.
         24    2    4    4    0    0 -0.38917406245E+02  0.19977466970E+03 -0.32296349544E+03  0.38976015555E+03  0.78632539746E+02 0.  0.
         11    1    3    3    0    0  0.75939143947E+02 -0.29982822434E+03 -0.29912966502E+03  0.43028162195E+03  0.00000000000E+00 0. -1.
        -11    1    3    3    0    0 -0.21596433070E+02 -0.28779723698E+02 -0.33352112937E+02  0.49061612844E+02  0.00000000000E+00 0.  1.
          2    1    5    5  502    0 -0.45933454687E+02  0.61114649856E+02 -0.85567242601E+02  0.11474596155E+03  0.00000000000E+00 0. -1.
          3    1    4    4  503    0  0.20755305494E+03  0.36411625899E+02  0.19211460989E+03  0.28515276686E+03  0.00000000000E+00 0. -1.
         -4    1    4    4    0  503 -0.22297835957E+03  0.92421652440E+02  0.16415098326E+03  0.29190179167E+03  0.00000000000E+00 0.  1.
         -1    1    5    5    0  502  0.70160484420E+01  0.13866001984E+03 -0.23739625284E+03  0.27501419400E+03  0.00000000000E+00 0.  1.
<mgrwt>
<rscale>  0 0.14148725E+04</rscale>
<asrwt>0</asrwt>
<pdfrwt beam="1">  1        1 0.13425674E+00 0.14148725E+04</pdfrwt>
<pdfrwt beam="2">  1       -1 0.88229098E-01 0.14148725E+04</pdfrwt>
<totfact> 0.23569567E+01</totfact>
</mgrwt>
</event>
<event>
11    1  0.2502641E-008  0.1194063E+04  0.7818608E-02  0.9118069E-01
          2   -1    0    0  501    0  0.00000000000E+00  0.00000000000E+00  0.76919164701E+03  0.76919164701E+03  0.00000000000E+00 0. -1.
         -2   -1    0    0    0  501 -0.00000000000E+00 -0.00000000000E+00 -0.46340447854E+03  0.46340447854E+03  0.00000000000E+00 0.  1.
         23    2    1    2    0    0  0.22615085885E+03 -0.36918829289E+02 -0.32914256012E+02  0.24911779831E+03  0.92027812477E+02 0.  0.
        254    2    1    2    0    0 -0.22615085885E+03  0.36918829289E+02  0.33870142448E+03  0.98347832724E+03  0.89442928971E+03 0.  0.
         24    2    4    4    0    0 -0.47397634943E+03  0.28140430939E+03  0.21453109360E+03  0.59670650704E+03  0.78696253148E+02 0.  0.
         11    1    3    3    0    0  0.11913510996E+03  0.26542451788E+02 -0.86980982407E+01  0.12236557149E+03  0.00000000000E+00 0.  1.
        -11    1    3    3    0    0  0.10701574889E+03 -0.63461281077E+02 -0.24216157771E+02  0.12675222682E+03  0.00000000000E+00 0. -1.
          2    1    5    5  502    0 -0.44837385425E+03  0.28432186406E+03  0.20714158626E+03  0.56989970373E+03  0.00000000000E+00 0. -1.
          1    1    4    4  503    0  0.16900245126E+03 -0.21582933649E+03  0.58614597447E+02  0.28032089122E+03  0.00000000000E+00 0. -1.
         -2    1    4    4    0  503  0.78823039317E+02 -0.28656143604E+02  0.65555733433E+02  0.10645092897E+03  0.00000000000E+00 0.  1.
         -1    1    5    5    0  502 -0.25602495183E+02 -0.29175546703E+01  0.73895073396E+01  0.26806803308E+02  0.00000000000E+00 0.  1.
<mgrwt>
<rscale>  0 0.11940634E+04</rscale>
<asrwt>0</asrwt>
<pdfrwt beam="1">  1        2 0.11833718E+00 0.11940634E+04</pdfrwt>
<pdfrwt beam="2">  1       -2 0.71292997E-01 0.11940634E+04</pdfrwt>
<totfact> 0.63991847E+01</totfact>
</mgrwt>
</event>
<event>
12    1  0.2502641E-008  0.1634285E+04  0.7818608E-02  0.8799758E-01
         -2   -1    0    0    0  501 -0.00000000000E+00  0.00000000000E+00  0.36741320077E+03  0.36741320077E+03  0.00000000000E+00 0.  1.
          2   -1    0    0  501    0  0.00000000000E+00 -0.00000000000E+00 -0.18173600299E+04  0.18173600299E+04  0.00000000000E+00 0. -1.
         23    2    1    2    0    0 -0.37970067246E+03 -0.41907594067E+03 -0.46172735396E+03  0.73684461701E+03  0.99752671679E+02 0.  0.
        254    2    1    2    0    0  0.37970067246E+03  0.41907594067E+03 -0.98821947519E+03  0.14479286137E+04  0.89449555307E+03 0.  0.
        -24    2    4    4    0    0  0.76935605054E+02  0.56391054165E+03 -0.23404288270E+03  0.61862518656E+03  0.63299796101E+02 0.  0.
         24    2    4    4    0    0  0.30276506741E+03 -0.14483460098E+03 -0.75417659249E+03  0.82930342712E+03  0.79486438463E+02 0.  0.
         13    1    3    3    0    0 -0.23368260584E+03 -0.20276285577E+03 -0.29271819976E+03  0.42591581377E+03  0.00000000000E+00 0.  1.
        -13    1    3    3    0    0 -0.14601806662E+03 -0.21631308490E+03 -0.16900915420E+03  0.31092880324E+03  0.00000000000E+00 0. -1.
          2    1    6    6  502    0  0.20749886464E+03 -0.13431368059E+03 -0.50270832405E+03  0.56018889911E+03  0.00000000000E+00 0. -1.
          1    1    5    5  503    0  0.78758441456E+02  0.56218171356E+03 -0.22740205360E+03  0.61152503231E+03  0.00000000000E+00 0. -1.
         -2    1    5    5    0  503 -0.18228364023E+01  0.17288280936E+01 -0.66408291054E+01  0.71001542472E+01  0.00000000000E+00 0.  1.
         -1    1    6    6    0  502  0.95266202774E+02 -0.10520920394E+02 -0.25146826844E+03  0.26911452801E+03  0.00000000000E+00 0.  1.
<mgrwt>
<rscale>  0 0.16342852E+04</rscale>
<asrwt>0</asrwt>
<pdfrwt beam="1">  1        2 0.27959384E+00 0.16342852E+04</pdfrwt>
<pdfrwt beam="2">  1       -2 0.56525110E-01 0.16342852E+04</pdfrwt>
<totfact> 0.23700465E+01</totfact>
</mgrwt>
</event>
<event>
12    1  0.2502641E-008  0.1901679E+04  0.7818608E-02  0.8654021E-01
          2   -1    0    0  501    0  0.00000000000E+00  0.00000000000E+00  0.11487363454E+04  0.11487363454E+04  0.00000000000E+00 0. -1.
         -2   -1    0    0    0  501 -0.00000000000E+00 -0.00000000000E+00 -0.78703485345E+03  0.78703485345E+03  0.00000000000E+00 0.  1.
         23    2    1    2    0    0  0.11277457559E+03  0.34123537726E+03  0.79259345055E+03  0.87472677925E+03  0.88220592100E+02 0.  0.
        254    2    1    2    0    0 -0.11277457559E+03 -0.34123537726E+03 -0.43089195857E+03  0.10610444196E+04  0.90054855110E+03 0.  0.
        -24    2    4    4    0    0 -0.44424339944E+03 -0.19738895350E+03 -0.47770131656E+03  0.68791226545E+03  0.93328131862E+02 0.  0.
         24    2    4    4    0    0  0.33146882385E+03 -0.14384642376E+03  0.46809357993E+02  0.37313215419E+03  0.80455662824E+02 0.  0.
         13    1    3    3    0    0  0.12146711693E+02  0.14275938961E+03  0.37699432917E+03  0.40330200862E+03  0.00000000000E+00 0. -1.
        -13    1    3    3    0    0  0.10062786389E+03  0.19847598766E+03  0.41559912138E+03  0.47142477063E+03  0.00000000000E+00 0.  1.
          4    1    6    6  502    0  0.18675687743E+03 -0.12037934464E+03  0.12353933646E+02  0.22253525015E+03  0.00000000000E+00 0. -1.
          3    1    5    5  503    0 -0.15342639648E+03 -0.27615215534E+02 -0.12075778076E+03  0.19719204061E+03  0.00000000000E+00 0. -1.
         -4    1    5    5    0  503 -0.29081700296E+03 -0.16977373797E+03 -0.35694353580E+03  0.49072022484E+03  0.00000000000E+00 0.  1.
         -3    1    6    6    0  502  0.14471194642E+03 -0.23467079124E+02  0.34455424347E+02  0.15059690404E+03  0.00000000000E+00 0.  1.
<mgrwt>
<rscale>  0 0.19016788E+04</rscale>
<asrwt>0</asrwt>
<pdfrwt beam="1">  1        2 0.17672867E+00 0.19016788E+04</pdfrwt>
<pdfrwt beam="2">  1       -2 0.12108229E+00 0.19016788E+04</pdfrwt>
<totfact> 0.98909765E+00</totfact>
</mgrwt>
</event>
<event>
12    1  0.2502641E-008  0.1126391E+04  0.7818608E-02  0.9179845E-01
          2   -1    0    0  501    0  0.00000000000E+00  0.00000000000E+00  0.22854858470E+04  0.22854858470E+04  0.00000000000E+00 0.  1.
         -2   -1    0    0    0  501 -0.00000000000E+00 -0.00000000000E+00 -0.13878404653E+03  0.13878404653E+03  0.00000000000E+00 0. -1.
         23    2    1    2    0    0 -0.18535973555E+03 -0.15809936491E+03  0.10110088034E+04  0.10442107796E+04  0.94253439439E+02 0.  0.
        254    2    1    2    0    0  0.18535973555E+03  0.15809936491E+03  0.11356929971E+04  0.13800591140E+04  0.74525897092E+03 0.  0.
        -24    2    4    4    0    0  0.41831419765E+03  0.26545862551E+03  0.83312743377E+03  0.97531584930E+03  0.10809549106E+03 0.  0.
         24    2    4    4    0    0 -0.23295446210E+03 -0.10735926060E+03  0.30256556333E+03  0.40474326470E+03  0.80482283502E+02 0.  0.
         11    1    3    3    0    0 -0.12405865627E+03 -0.12937042134E+03  0.86352534007E+03  0.88193155576E+03  0.00000000000E+00 0.  1.
        -11    1    3    3    0    0 -0.61301079278E+02 -0.28728943562E+02  0.14748346335E+03  0.16227922381E+03  0.00000000000E+00 0. -1.
          4    1    6    6  502    0 -0.18212551972E+03 -0.83808087144E+02  0.17775522244E+03  0.26793734250E+03  0.00000000000E+00 0. -1.
          1    1    5    5  503    0  0.18164948499E+03  0.69109572813E+02  0.25649124221E+03  0.32180805736E+03  0.00000000000E+00 0. -1.
         -2    1    5    5    0  503  0.23666471267E+03  0.19634905270E+03  0.57663619156E+03  0.65350779194E+03  0.00000000000E+00 0.  1.
         -3    1    6    6    0  502 -0.50828942381E+02 -0.23551173461E+02  0.12481034089E+03  0.13680592220E+03  0.00000000000E+00 0.  1.
<mgrwt>
<rscale>  0 0.11263907E+04</rscale>
<asrwt>0</asrwt>
<pdfrwt beam="1">  1        2 0.35161318E+00 0.11263907E+04</pdfrwt>
<pdfrwt beam="2">  1       -2 0.21351394E-01 0.11263907E+04</pdfrwt>
<totfact> 0.87657150E+01</totfact>
</mgrwt>
</event>
<event>
11    1  0.2502641E-008  0.1921429E+04  0.7818608E-02  0.8644263E-01
          2   -1    0    0  501    0  0.00000000000E+00  0.00000000000E+00  0.80725319468E+03  0.80725319468E+03  0.00000000000E+00 0. -1.
         -2   -1    0    0    0  501 -0.00000000000E+00 -0.00000000000E+00 -0.11433486913E+04  0.11433486913E+04  0.00000000000E+00 0.  1.
         23    2    1    2    0    0 -0.37914968413E+03 -0.23514984678E+03  0.47896834958E+03  0.66069431017E+03  0.89757217996E+02 0.  0.
        254    2    1    2    0    0  0.37914968413E+03  0.23514984678E+03 -0.81506384622E+03  0.12899075758E+04  0.89469690250E+03 0.  0.
         24    2    4    4    0    0  0.42428773410E+03  0.22083853843E+03 -0.82981910075E+03  0.96100716376E+03  0.78391883887E+02 0.  0.
         11    1    3    3    0    0 -0.28138593708E+03 -0.13743094961E+03  0.36964004772E+03  0.48445750729E+03  0.00000000000E+00 0. -1.
        -11    1    3    3    0    0 -0.97763747051E+02 -0.97718897172E+02  0.10932830186E+03  0.17623680288E+03  0.00000000000E+00 0.  1.
          2    1    5    5  502    0  0.22498710417E+03  0.94396897575E+02 -0.48831358999E+03  0.54587556593E+03  0.00000000000E+00 0. -1.
          1    1    4    4  503    0 -0.14700764290E+03  0.75994146475E+02  0.89657141759E+02  0.18821466584E+03  0.00000000000E+00 0. -1.
         -2    1    4    4    0  503  0.10186959292E+03 -0.61682838116E+02 -0.74901887224E+02  0.14068574622E+03  0.00000000000E+00 0.  1.
         -1    1    5    5    0  502  0.19930062993E+03  0.12644164085E+03 -0.34150551077E+03  0.41513159783E+03  0.00000000000E+00 0.  1.
<mgrwt>
<rscale>  0 0.19214285E+04</rscale>
<asrwt>0</asrwt>
<pdfrwt beam="1">  1        2 0.12419280E+00 0.19214285E+04</pdfrwt>
<pdfrwt beam="2">  1       -2 0.17589980E+00 0.19214285E+04</pdfrwt>
<totfact> 0.61585922E+00</totfact>
</mgrwt>
</event>
<event>
12    1  0.2502641E-008  0.2021172E+04  0.7818608E-02  0.8596786E-01
         -1   -1    0    0    0  501 -0.00000000000E+00  0.00000000000E+00  0.90295573091E+03  0.90295573091E+03  0.00000000000E+00 0.  1.
          1   -1    0    0  501    0  0.00000000000E+00 -0.00000000000E+00 -0.11310452638E+04  0.11310452638E+04  0.00000000000E+00 0. -1.
         23    2    1    2    0    0  0.10299312495E+03  0.66116698906E+03  0.36281357074E+03  0.76699583874E+03  0.94337470417E+02 0.  0.
        254    2    1    2    0    0 -0.10299312495E+03 -0.66116698906E+03 -0.59090310367E+03  0.12670051560E+04  0.89910300645E+03 0.  0.
        -24    2    4    4    0    0  0.34856449318E+03 -0.53447538915E+03 -0.32012238180E+03  0.71988020843E+03  0.92671611878E+02 0.  0.
         24    2    4    4    0    0 -0.45155761813E+03 -0.12669159991E+03 -0.27078072187E+03  0.54712494757E+03  0.77900352621E+02 0.  0.
         11    1    3    3    0    0  0.64127226044E+02  0.25561183945E+03  0.18769296583E+03  0.32354035762E+03  0.00000000000E+00 0. -1.
        -11    1    3    3    0    0  0.38865898904E+02  0.40555514961E+03  0.17512060491E+03  0.44345548112E+03  0.00000000000E+00 0.  1.
          4    1    6    6  502    0 -0.28003647518E+03 -0.55912352748E+02 -0.12770694139E+03  0.31281892765E+03  0.00000000000E+00 0. -1.
          1    1    5    5  503    0  0.20296864424E+03 -0.38550861183E+03 -0.23330857174E+03  0.49421255547E+03  0.00000000000E+00 0. -1.
         -2    1    5    5    0  503  0.14559584895E+03 -0.14896677732E+03 -0.86813810062E+02  0.22566765296E+03  0.00000000000E+00 0.  1.
         -3    1    6    6    0  502 -0.17152114296E+03 -0.70779247163E+02 -0.14307378048E+03  0.23430601992E+03  0.00000000000E+00 0.  1.
<mgrwt>
<rscale>  0 0.20211717E+04</rscale>
<asrwt>0</asrwt>
<pdfrwt beam="1">  1        1 0.17400696E+00 0.20211717E+04</pdfrwt>
<pdfrwt beam="2">  1       -1 0.13891627E+00 0.20211717E+04</pdfrwt>
<totfact> 0.47601507E+00</totfact>
</mgrwt>
</event>
<event>
11    1  0.2502641E-008  0.1508334E+04  0.7818608E-02  0.8878930E-01
         -2   -1    0    0    0  501 -0.00000000000E+00  0.00000000000E+00  0.11151568759E+04  0.11151568759E+04  0.00000000000E+00 0.  1.
          2   -1    0    0  501    0  0.00000000000E+00 -0.00000000000E+00 -0.51003378976E+03  0.51003378976E+03  0.00000000000E+00 0. -1.
         23    2    1    2    0    0 -0.70394117171E+01  0.30341687645E+03 -0.19173876543E+03  0.37082215615E+03  0.92919121229E+02 0.  0.
        254    2    1    2    0    0  0.70394117171E+01 -0.30341687645E+03  0.79686185154E+03  0.12543685095E+04  0.91996749557E+03 0.  0.
         24    2    4    4    0    0  0.13167809940E+03 -0.55622958090E+03  0.67895464137E+03  0.89116685753E+03  0.80426950584E+02 0.  0.
         13    1    3    3    0    0 -0.31752648525E+02  0.26748670828E+03 -0.18480567687E+03  0.32666574353E+03  0.00000000000E+00 0. -1.
        -13    1    3    3    0    0  0.24713236808E+02  0.35930168170E+02 -0.69330885659E+01  0.44156412618E+02  0.00000000000E+00 0.  1.
          4    1    5    5  502    0  0.10078196747E+03 -0.43002873881E+03  0.57326353933E+03  0.72368004442E+03  0.00000000000E+00 0. -1.
          3    1    4    4  503    0 -0.14322038370E+03  0.16576102911E+03  0.45995302101E+01  0.21911173578E+03  0.00000000000E+00 0. -1.
         -4    1    4    4    0  503  0.18581696025E+02  0.87051675341E+02  0.11330767996E+03  0.14408991618E+03  0.00000000000E+00 0.  1.
         -3    1    5    5    0  502  0.30896131922E+02 -0.12620084209E+03  0.10569110205E+03  0.16748681311E+03  0.00000000000E+00 0.  1.
<mgrwt>
<rscale>  0 0.15083338E+04</rscale>
<asrwt>0</asrwt>
<pdfrwt beam="1">  1        2 0.78466737E-01 0.15083338E+04</pdfrwt>
<pdfrwt beam="2">  1       -2 0.17156260E+00 0.15083338E+04</pdfrwt>
<totfact> 0.12057452E+01</totfact>
</mgrwt>
</event>
<event>
12    1  0.2502641E-008  0.1692770E+04  0.7818608E-02  0.8765499E-01
          2   -1    0    0  501    0  0.00000000000E+00  0.00000000000E+00  0.28681303535E+04  0.28681303535E+04  0.00000000000E+00 0. -1.
         -2   -1    0    0    0  501 -0.00000000000E+00 -0.00000000000E+00 -0.24976803491E+03  0.24976803491E+03  0.00000000000E+00 0.  1.
         23    2    1    2    0    0 -0.54188177674E+03 -0.64013647520E+02  0.14207649706E+04  0.15246769869E+04  0.91286393836E+02 0.  0.
        254    2    1    2    0    0  0.54188177674E+03  0.64013647520E+02  0.11975973480E+04  0.15932214015E+04  0.89798742712E+03 0.  0.
        -24    2    4    4    0    0  0.48411752075E+03  0.43456733429E+03  0.84668689265E+03  0.10733381344E+04  0.10935042111E+03 0.  0.
         24    2    4    4    0    0  0.57764255991E+02 -0.37055368677E+03  0.35091045538E+03  0.51988326715E+03  0.80583619408E+02 0.  0.
         11    1    3    3    0    0 -0.53910316130E+03 -0.54511038396E+02  0.13763009532E+04  0.14791240602E+04  0.00000000000E+00 0. -1.
        -11    1    3    3    0    0 -0.27786154366E+01 -0.95026091241E+01  0.44464017402E+02  0.45552926661E+02  0.00000000000E+00 0.  1.
          2    1    6    6  502    0  0.55626064265E+02 -0.11483629410E+03  0.10781674869E+03  0.16705114416E+03  0.00000000000E+00 0. -1.
          1    1    5    5  503    0  0.58419822124E+02  0.29877415895E+02  0.45227635092E+02  0.79693629442E+02  0.00000000000E+00 0. -1.
         -2    1    5    5    0  503  0.42569769862E+03  0.40468991840E+03  0.80145925756E+03  0.99364450494E+03  0.00000000000E+00 0.  1.
         -1    1    6    6    0  502  0.21381917263E+01 -0.25571739268E+03  0.24309370669E+03  0.35283212299E+03  0.00000000000E+00 0.  1.
<mgrwt>
<rscale>  0 0.16927697E+04</rscale>
<asrwt>0</asrwt>
<pdfrwt beam="1">  1        2 0.44125080E+00 0.16927697E+04</pdfrwt>
<pdfrwt beam="2">  1       -2 0.38425853E-01 0.16927697E+04</pdfrwt>
<totfact> 0.12849928E+01</totfact>
</mgrwt>
</event>
<event>
12    1  0.2502641E-008  0.1731211E+04  0.7818608E-02  0.8743761E-01
          1   -1    0    0  501    0  0.00000000000E+00  0.00000000000E+00  0.33462457417E+04  0.33462457417E+04  0.00000000000E+00 0. -1.
         -1   -1    0    0    0  501 -0.00000000000E+00 -0.00000000000E+00 -0.22391452752E+03  0.22391452752E+03  0.00000000000E+00 0.  1.
         23    2    1    2    0    0 -0.28858504443E+03 -0.54668804925E+03  0.12866650651E+04  0.14304038949E+04  0.91646940554E+02 0.  0.
        254    2    1    2    0    0  0.28858504443E+03  0.54668804925E+03  0.18356661491E+04  0.21397563743E+04  0.90925132913E+03 0.  0.
        -24    2    4    4    0    0  0.42447872162E+03 -0.15002370438E+02  0.40257561600E+03  0.59226944260E+03  0.91152124576E+02 0.  0.
         24    2    4    4    0    0 -0.13589367719E+03  0.56169041968E+03  0.14330905331E+04  0.15474869317E+04  0.83690553704E+02 0.  0.
         13    1    3    3    0    0 -0.56845115349E+02 -0.77829818069E+02  0.13851351671E+03  0.16874490224E+03  0.00000000000E+00 0.  1.
        -13    1    3    3    0    0 -0.23173992908E+03 -0.46885823118E+03  0.11481515484E+04  0.12616589927E+04  0.00000000000E+00 0. -1.
          4    1    6    6  502    0 -0.10339861960E+03  0.31195857176E+03  0.89337008820E+03  0.95190311456E+03  0.00000000000E+00 0. -1.
          1    1    5    5  503    0  0.16950073796E+03  0.33998531699E+02  0.13419335702E+03  0.21884756658E+03  0.00000000000E+00 0. -1.
         -2    1    5    5    0  503  0.25497798366E+03 -0.49000902137E+02  0.26838225898E+03  0.37342187603E+03  0.00000000000E+00 0.  1.
         -3    1    6    6    0  502 -0.32495057585E+02  0.24973184792E+03  0.53972044488E+03  0.59558381715E+03  0.00000000000E+00 0.  1.
<mgrwt>
<rscale>  0 0.17312112E+04</rscale>
<asrwt>0</asrwt>
<pdfrwt beam="1">  1        1 0.51480700E+00 0.17312112E+04</pdfrwt>
<pdfrwt beam="2">  1       -1 0.34448391E-01 0.17312112E+04</pdfrwt>
<totfact> 0.25099575E+00</totfact>
</mgrwt>
</event>
<event>
11    1  0.2502641E-008  0.2373254E+04  0.7818608E-02  0.8449585E-01
          1   -1    0    0  501    0  0.00000000000E+00  0.00000000000E+00  0.34696189799E+04  0.34696189799E+04  0.00000000000E+00 0. -1.
         -1   -1    0    0    0  501 -0.00000000000E+00 -0.00000000000E+00 -0.40583232998E+03  0.40583232998E+03  0.00000000000E+00 0.  1.
         23    2    1    2    0    0  0.70642877325E+03  0.28571649073E+03  0.24109447334E+04  0.25301350790E+04  0.90848696720E+02 0.  0.
        254    2    1    2    0    0 -0.70642877325E+03 -0.28571649073E+03  0.65284191651E+03  0.13453162309E+04  0.89610137169E+03 0.  0.
         24    2    4    4    0    0 -0.21560557389E+03 -0.48279603121E+03  0.56227560948E+03  0.77603337288E+03  0.80598781412E+02 0.  0.
         11    1    3    3    0    0  0.27141502161E+03  0.76743928527E+02  0.99499386505E+03  0.10341994663E+04  0.00000000000E+00 0.  1.
        -11    1    3    3    0    0  0.43501375164E+03  0.20897256220E+03  0.14159508683E+04  0.14959356127E+04  0.00000000000E+00 0. -1.
          4    1    5    5  502    0 -0.16729501141E+02 -0.31540931277E+02  0.73488278171E+02  0.81702102683E+02  0.00000000000E+00 0. -1.
          3    1    4    4  503    0 -0.20785104201E+03  0.17774677864E+03  0.82018283244E+02  0.28552227894E+03  0.00000000000E+00 0. -1.
         -4    1    4    4    0  503 -0.28297215736E+03  0.19332761830E+02  0.85480237937E+01  0.28376057906E+03  0.00000000000E+00 0.  1.
         -3    1    5    5    0  502 -0.19887607275E+03 -0.45125509993E+03  0.48878733131E+03  0.69433127019E+03  0.00000000000E+00 0.  1.
<mgrwt>
<rscale>  0 0.23732539E+04</rscale>
<asrwt>0</asrwt>
<pdfrwt beam="1">  1        1 0.53378752E+00 0.23732539E+04</pdfrwt>
<pdfrwt beam="2">  1       -1 0.62435745E-01 0.23732539E+04</pdfrwt>
<totfact> 0.61799445E-01</totfact>
</mgrwt>
</event>
<event>
11    1  0.2502641E-008  0.1784851E+04  0.7818608E-02  0.8714398E-01
          1   -1    0    0  501    0  0.00000000000E+00  0.00000000000E+00  0.71666933013E+03  0.71666933013E+03  0.00000000000E+00 0. -1.
         -1   -1    0    0    0  501 -0.00000000000E+00 -0.00000000000E+00 -0.11112835880E+04  0.11112835880E+04  0.00000000000E+00 0.  1.
         23    2    1    2    0    0  0.42505592254E+03 -0.30365251131E+03  0.18741824094E+03  0.56241580318E+03  0.91151268320E+02 0.  0.
        254    2    1    2    0    0 -0.42505592254E+03  0.30365251131E+03 -0.58203249876E+03  0.12655371149E+04  0.99495978546E+03 0.  0.
         24    2    4    4    0    0  0.10383545374E+03  0.32696280556E+03 -0.55742038213E+03  0.65934784115E+03  0.79596579906E+02 0.  0.
         11    1    3    3    0    0  0.37003673945E+03 -0.29675952778E+03  0.17504501852E+03  0.50560277331E+03  0.00000000000E+00 0. -1.
        -11    1    3    3    0    0  0.55019183085E+02 -0.68929835316E+01  0.12373222419E+02  0.56813029864E+02  0.00000000000E+00 0.  1.
          2    1    5    5  502    0  0.78546150060E+02  0.16088713845E+03 -0.34342164271E+03  0.38728877300E+03  0.00000000000E+00 0. -1.
          1    1    4    4  503    0 -0.56240807953E+03 -0.36256411342E+02 -0.44129117322E+02  0.56530058754E+03  0.00000000000E+00 0. -1.
         -2    1    4    4    0  503  0.33516703251E+02  0.12946117090E+02  0.19517000696E+02  0.40888686219E+02  0.00000000000E+00 0.  1.
         -1    1    5    5    0  502  0.25289303679E+02  0.16607566711E+03 -0.21399873942E+03  0.27205906815E+03  0.00000000000E+00 0.  1.
<mgrwt>
<rscale>  0 0.17848505E+04</rscale>
<asrwt>0</asrwt>
<pdfrwt beam="1">  1        1 0.11025682E+00 0.17848505E+04</pdfrwt>
<pdfrwt beam="2">  1       -1 0.17096671E+00 0.17848505E+04</pdfrwt>
<totfact> 0.60104461E+00</totfact>
</mgrwt>
</event>
<event>
12    1  0.2502641E-008  0.1657693E+04  0.7818608E-02  0.8785868E-01
          1   -1    0    0  501    0  0.00000000000E+00  0.00000000000E+00  0.23913355314E+03  0.23913355314E+03  0.00000000000E+00 0. -1.
         -1   -1    0    0    0  501 -0.00000000000E+00 -0.00000000000E+00 -0.28728153911E+04  0.28728153911E+04  0.00000000000E+00 0.  1.
         23    2    1    2    0    0  0.48481932905E+03  0.23961657355E+03 -0.53531613827E+03  0.76630877560E+03  0.90553230379E+02 0.  0.
        254    2    1    2    0    0 -0.48481932905E+03 -0.23961657355E+03 -0.20983656997E+04  0.23456401687E+04  0.89801074990E+03 0.  0.
        -24    2    4    4    0    0 -0.14786674149E+02  0.21436649445E+03 -0.12786556308E+03  0.26812313019E+03  0.96792412146E+02 0.  0.
         24    2    4    4    0    0 -0.47003265490E+03 -0.45398306800E+03 -0.19705001367E+04  0.20775170385E+04  0.78580747807E+02 0.  0.
         13    1    3    3    0    0  0.35443787918E+03  0.19743641551E+03 -0.34996151392E+03  0.53579885181E+03  0.00000000000E+00 0. -1.
        -13    1    3    3    0    0  0.13038144986E+03  0.42180158042E+02 -0.18535462435E+03  0.23050992379E+03  0.00000000000E+00 0.  1.
          4    1    6    6  502    0 -0.27554189656E+03 -0.29073822790E+03 -0.10963216282E+04  0.11672074222E+04  0.00000000000E+00 0. -1.
          3    1    5    5  503    0  0.35780662583E+01  0.66338187635E+02  0.72928343052E+01  0.66833697556E+02  0.00000000000E+00 0. -1.
         -4    1    5    5    0  503 -0.18364740407E+02  0.14802830681E+03 -0.13515839738E+03  0.20128943264E+03  0.00000000000E+00 0.  1.
         -3    1    6    6    0  502 -0.19449075834E+03 -0.16324484010E+03 -0.87417850842E+03  0.91030961628E+03  0.00000000000E+00 0.  1.
<mgrwt>
<rscale>  0 0.16576930E+04</rscale>
<asrwt>0</asrwt>
<pdfrwt beam="1">  1        1 0.36789777E-01 0.16576930E+04</pdfrwt>
<pdfrwt beam="2">  1       -1 0.44197161E+00 0.16576930E+04</pdfrwt>
<totfact> 0.41537245E-01</totfact>
</mgrwt>
</event>
<event>
11    1  0.2502641E-008  0.2797584E+04  0.7818608E-02  0.8304019E-01
         -1   -1    0    0    0  501 -0.00000000000E+00  0.00000000000E+00  0.10001600329E+04  0.10001600329E+04  0.00000000000E+00 0.  1.
          1   -1    0    0  501    0  0.00000000000E+00 -0.00000000000E+00 -0.19563059471E+04  0.19563059471E+04  0.00000000000E+00 0. -1.
         23    2    1    2    0    0 -0.45781293197E+03 -0.11600937581E+04 -0.56083378800E+03  0.13705793002E+04  0.92427658692E+02 0.  0.
        254    2    1    2    0    0  0.45781293197E+03  0.11600937581E+04 -0.39531212625E+03  0.15858866799E+04  0.89630055009E+03 0.  0.
         24    2    4    4    0    0  0.49439141381E+03  0.10668697467E+04 -0.21994527569E+03  0.11989474333E+04  0.80405825916E+02 0.  0.
         13    1    3    3    0    0 -0.35403167068E+03 -0.84752568620E+03 -0.45219921503E+03  0.10237784637E+04  0.00000000000E+00 0.  1.
        -13    1    3    3    0    0 -0.10378126130E+03 -0.31256807185E+03 -0.10863457298E+03  0.34680083648E+03  0.00000000000E+00 0. -1.
          2    1    5    5  502    0  0.63875909799E+01  0.52648318470E+02 -0.12128821003E+02  0.54403630901E+02  0.00000000000E+00 0. -1.
          3    1    4    4  503    0 -0.12342834991E+02  0.16481616383E+03 -0.23732589302E+03  0.28920631551E+03  0.00000000000E+00 0. -1.
         -4    1    4    4    0  503 -0.24235646841E+02 -0.71592152520E+02  0.61959042468E+02  0.97732931112E+02  0.00000000000E+00 0.  1.
         -1    1    5    5    0  502  0.48800382283E+03  0.10142214283E+04 -0.20781645469E+03  0.11445438024E+04  0.00000000000E+00 0.  1.
<mgrwt>
<rscale>  0 0.27975840E+04</rscale>
<asrwt>0</asrwt>
<pdfrwt beam="1">  1        1 0.30097014E+00 0.27975840E+04</pdfrwt>
<pdfrwt beam="2">  1       -1 0.15387078E+00 0.27975840E+04</pdfrwt>
<totfact> 0.89942901E-01</totfact>
</mgrwt>
</event>
<event>
11    1  0.2502641E-008  0.1328922E+04  0.7818608E-02  0.9006939E-01
         -1   -1    0    0    0  501 -0.00000000000E+00  0.00000000000E+00  0.22638668869E+03  0.22638668869E+03  0.00000000000E+00 0. -1.
          1   -1    0    0  501    0  0.00000000000E+00 -0.00000000000E+00 -0.19502394562E+04  0.19502394562E+04  0.00000000000E+00 0.  1.
         23    2    1    2    0    0  0.34681309771E+03 -0.22769373952E+02 -0.37131441524E+03  0.51702298282E+03  0.92954831339E+02 0.  0.
        254    2    1    2    0    0 -0.34681309771E+03  0.22769373952E+02 -0.13525383522E+04  0.16596031620E+04  0.89673011103E+03 0.  0.
         24    2    4    4    0    0 -0.54821849422E+01  0.40970734689E+03 -0.52858535109E+03  0.67300263498E+03  0.75099326671E+02 0.  0.
         13    1    3    3    0    0  0.49590916786E+02  0.11784865486E+01 -0.10948862135E+03  0.12020152272E+03  0.00000000000E+00 0.  1.
        -13    1    3    3    0    0  0.29722218092E+03 -0.23947860500E+02 -0.26182579389E+03  0.39682146011E+03  0.00000000000E+00 0. -1.
          4    1    5    5  502    0 -0.15028812456E+02  0.26824464021E+02 -0.21452526946E+02  0.37491705565E+02  0.00000000000E+00 0. -1.
          3    1    4    4  503    0 -0.61191581158E+01  0.16561598652E+02 -0.34458756321E+02  0.38718684549E+02  0.00000000000E+00 0. -1.
         -4    1    4    4    0  503 -0.33521175465E+03 -0.40349957159E+03 -0.78949424484E+03  0.94788184251E+03  0.00000000000E+00 0.  1.
         -3    1    5    5    0  502  0.95466275135E+01  0.38288288287E+03 -0.50713282414E+03  0.63551092942E+03  0.00000000000E+00 0.  1.
<mgrwt>
<rscale>  0 0.13289217E+04</rscale>
<asrwt>0</asrwt>
<pdfrwt beam="1">  1        1 0.30003683E+00 0.13289217E+04</pdfrwt>
<pdfrwt beam="2">  1       -1 0.34828722E-01 0.13289217E+04</pdfrwt>
<totfact> 0.24744843E+01</totfact>
</mgrwt>
</event>
<event>
11    1  0.2502641E-008  0.3603397E+04  0.7818608E-02  0.8089714E-01
          2   -1    0    0  501    0  0.00000000000E+00  0.00000000000E+00  0.25525485073E+04  0.25525485073E+04  0.00000000000E+00 0. -1.
         -2   -1    0    0    0  501 -0.00000000000E+00 -0.00000000000E+00 -0.12717164234E+04  0.12717164234E+04  0.00000000000E+00 0.  1.
         23    2    1    2    0    0 -0.10817758159E+04 -0.36315217019E+03  0.19187183230E+04  0.22342691772E+04  0.91434887817E+02 0.  0.
        254    2    1    2    0    0  0.10817758159E+04  0.36315217019E+03 -0.63788623914E+03  0.15899957535E+04  0.90502443470E+03 0.  0.
         24    2    4    4    0    0  0.90054834520E+03  0.17631731351E+03 -0.20795848177E+03  0.94416012286E+03  0.78207994384E+02 0.  0.
         11    1    3    3    0    0 -0.45532655038E+03 -0.13764414148E+03  0.71711575894E+03  0.86053657033E+03  0.00000000000E+00 0. -1.
        -11    1    3    3    0    0 -0.62644926553E+03 -0.22550802871E+03  0.12016025640E+04  0.13737326069E+04  0.00000000000E+00 0.  1.
          4    1    5    5  502    0  0.39723874961E+03  0.68075105909E+02 -0.52824303505E+02  0.40647663067E+03  0.00000000000E+00 0. -1.
          1    1    4    4  503    0  0.19516577965E+03  0.28511684712E+02 -0.10740744158E+02  0.19752964663E+03  0.00000000000E+00 0. -1.
         -2    1    4    4    0  503 -0.13938308938E+02  0.15832317197E+03 -0.41918701320E+03  0.44830598399E+03  0.00000000000E+00 0.  1.
         -3    1    5    5    0  502  0.50330959558E+03  0.10824220760E+03 -0.15513417827E+03  0.53768349220E+03  0.00000000000E+00 0.  1.
<mgrwt>
<rscale>  0 0.36033972E+04</rscale>
<asrwt>0</asrwt>
<pdfrwt beam="1">  1        2 0.39269977E+00 0.36033972E+04</pdfrwt>
<pdfrwt beam="2">  1       -2 0.19564868E+00 0.36033972E+04</pdfrwt>
<totfact> 0.37560200E-01</totfact>
</mgrwt>
</event>
<event>
12    1  0.2502641E-008  0.2141346E+04  0.7818608E-02  0.8543246E-01
         -2   -1    0    0    0  501 -0.00000000000E+00  0.00000000000E+00  0.72498943758E+03  0.72498943758E+03  0.00000000000E+00 0.  1.
          2   -1    0    0  501    0  0.00000000000E+00 -0.00000000000E+00 -0.15811825537E+04  0.15811825537E+04  0.00000000000E+00 0. -1.
         23    2    1    2    0    0 -0.49545101992E+03  0.56350000006E+03 -0.83849067525E+03  0.11286504956E+04  0.88212048642E+02 0.  0.
        254    2    1    2    0    0  0.49545101992E+03 -0.56350000006E+03 -0.17702440880E+02  0.11775214957E+04  0.90732548359E+03 0.  0.
        -24    2    4    4    0    0 -0.19684432998E+03  0.26102239093E+02 -0.14836321083E+03  0.25546488930E+03  0.61819496965E+02 0.  0.
         24    2    4    4    0    0  0.69229534991E+03 -0.58960223915E+03  0.13066076995E+03  0.92205660639E+03  0.78819392688E+02 0.  0.
         13    1    3    3    0    0 -0.20213541096E+03  0.19149870670E+03 -0.26021540956E+03  0.38110699076E+03  0.00000000000E+00 0.  1.
        -13    1    3    3    0    0 -0.29331560897E+03  0.37200129336E+03 -0.57827526569E+03  0.74754350484E+03  0.00000000000E+00 0. -1.
          4    1    6    6  502    0  0.13606200605E+03 -0.14958749364E+03  0.49624298034E+02  0.20821109168E+03  0.00000000000E+00 0. -1.
          1    1    5    5  503    0 -0.61107481016E+02 -0.13429424477E+02 -0.69760325537E+02  0.93706865794E+02  0.00000000000E+00 0. -1.
         -2    1    5    5    0  503 -0.13573684897E+03  0.39531663570E+02 -0.78602885292E+02  0.16175802350E+03  0.00000000000E+00 0.  1.
         -3    1    6    6    0  502  0.55623334386E+03 -0.44001474552E+03  0.81036471915E+02  0.71384551471E+03  0.00000000000E+00 0.  1.
<mgrwt>
<rscale>  0 0.21413460E+04</rscale>
<asrwt>0</asrwt>
<pdfrwt beam="1">  1        2 0.24325885E+00 0.21413460E+04</pdfrwt>
<pdfrwt beam="2">  1       -2 0.11153684E+00 0.21413460E+04</pdfrwt>
<totfact> 0.66673768E+00</totfact>
</mgrwt>
</event>
<event>
12    1  0.2502641E-008  0.2414423E+04  0.7818608E-02  0.8434123E-01
          2   -1    0    0  501    0  0.00000000000E+00  0.00000000000E+00  0.12815873891E+04  0.12815873891E+04  0.00000000000E+00 0. -1.
         -2   -1    0    0    0  501 -0.00000000000E+00 -0.00000000000E+00 -0.11371519718E+04  0.11371519718E+04  0.00000000000E+00 0.  1.
         23    2    1    2    0    0 -0.83154456478E+03 -0.58764777860E+03  0.24800293423E+03  0.10519911531E+04  0.91562305704E+02 0.  0.
        254    2    1    2    0    0  0.83154456478E+03  0.58764777860E+03 -0.10356751692E+03  0.13667482079E+04  0.90580249410E+03 0.  0.
        -24    2    4    4    0    0  0.34169369303E+03  0.55178925618E+03 -0.41851608084E+03  0.77763991786E+03  0.91335474098E+02 0.  0.
         24    2    4    4    0    0  0.48985087176E+03  0.35858522414E+02  0.31494856392E+03  0.58910829004E+03  0.81340452980E+02 0.  0.
         13    1    3    3    0    0 -0.69845837761E+03 -0.49681234817E+03  0.17368328669E+03  0.87454702483E+03  0.00000000000E+00 0.  1.
        -13    1    3    3    0    0 -0.13308618717E+03 -0.90835430424E+02  0.74319647538E+02  0.17744412824E+03  0.00000000000E+00 0. -1.
          2    1    6    6  502    0  0.59207298550E+02 -0.18073209675E+02  0.57490240124E+02  0.84482381708E+02  0.00000000000E+00 0. -1.
          3    1    5    5  503    0  0.11974910853E+03  0.20563667869E+03 -0.10278495772E+03  0.25921234567E+03  0.00000000000E+00 0. -1.
         -4    1    5    5    0  503  0.22194458450E+03  0.34615257750E+03 -0.31573112312E+03  0.51842757219E+03  0.00000000000E+00 0.  1.
         -1    1    6    6    0  502  0.43064357321E+03  0.53931732089E+02  0.25745832379E+03  0.50462590833E+03  0.00000000000E+00 0.  1.
<mgrwt>
<rscale>  0 0.24144230E+04</rscale>
<asrwt>0</asrwt>
<pdfrwt beam="1">  1        2 0.19716729E+00 0.24144230E+04</pdfrwt>
<pdfrwt beam="2">  1       -2 0.17494646E+00 0.24144230E+04</pdfrwt>
<totfact> 0.29933791E+00</totfact>
</mgrwt>
</event>
<event>
12    1  0.2502641E-008  0.1493341E+04  0.7818608E-02  0.8888893E-01
         -2   -1    0    0    0  501 -0.00000000000E+00  0.00000000000E+00  0.91223001093E+03  0.91223001093E+03  0.00000000000E+00 0.  1.
          2   -1    0    0  501    0  0.00000000000E+00 -0.00000000000E+00 -0.61115784815E+03  0.61115784815E+03  0.00000000000E+00 0. -1.
         23    2    1    2    0    0 -0.34201922429E+03 -0.30729567391E+03  0.23345125416E+01  0.46802142786E+03  0.87354599185E+02 0.  0.
        254    2    1    2    0    0  0.34201922429E+03  0.30729567391E+03  0.29873765024E+03  0.10553664312E+04  0.90174627224E+03 0.  0.
        -24    2    4    4    0    0  0.29159140281E+03  0.22931714505E+03  0.61278139762E+03  0.71796583290E+03  0.48600377966E+02 0.  0.
         24    2    4    4    0    0  0.50427821483E+02  0.77978528859E+02 -0.31404374738E+03  0.33740059832E+03  0.81191577989E+02 0.  0.
         13    1    3    3    0    0 -0.20778884368E+03 -0.21289733892E+03  0.38530561179E+02  0.29997680680E+03  0.00000000000E+00 0.  1.
        -13    1    3    3    0    0 -0.13423038061E+03 -0.94398334987E+02 -0.36196048637E+02  0.16804462105E+03  0.00000000000E+00 0. -1.
          4    1    6    6  502    0  0.49247208469E+02  0.91487651598E+02 -0.30160275760E+03  0.31899765098E+03  0.00000000000E+00 0. -1.
          1    1    5    5  503    0  0.24913726831E+03  0.17574524721E+03  0.48046080928E+03  0.56903282825E+03  0.00000000000E+00 0. -1.
         -2    1    5    5    0  503  0.42454134497E+02  0.53571897833E+02  0.13232058835E+03  0.14893300465E+03  0.00000000000E+00 0.  1.
         -3    1    6    6    0  502  0.11806130145E+01 -0.13509122739E+02 -0.12440989781E+02  0.18402947345E+02  0.00000000000E+00 0.  1.
<mgrwt>
<rscale>  0 0.14933406E+04</rscale>
<asrwt>0</asrwt>
<pdfrwt beam="1">  1        2 0.94024285E-01 0.14933406E+04</pdfrwt>
<pdfrwt beam="2">  1       -2 0.14034308E+00 0.14933406E+04</pdfrwt>
<totfact> 0.16721604E+01</totfact>
</mgrwt>
</event>
<event>
11    1  0.2502641E-008  0.1962502E+04  0.7818608E-02  0.8624355E-01
         -2   -1    0    0    0  501 -0.00000000000E+00  0.00000000000E+00  0.39461620442E+03  0.39461620442E+03  0.00000000000E+00 0.  1.
          2   -1    0    0  501    0  0.00000000000E+00 -0.00000000000E+00 -0.24399758425E+04  0.24399758425E+04  0.00000000000E+00 0. -1.
         23    2    1    2    0    0 -0.74047715101E+03 -0.18332933850E+03 -0.10143754534E+04  0.12720598253E+04  0.85220778900E+02 0.  0.
        254    2    1    2    0    0  0.74047715101E+03  0.18332933850E+03 -0.10309841847E+04  0.15625322216E+04  0.89255952014E+03 0.  0.
         24    2    4    4    0    0 -0.12209746319E+03 -0.95824455045E+02  0.11757698728E+02  0.17435031381E+03  0.78547258023E+02 0.  0.
         13    1    3    3    0    0 -0.70105401324E+03 -0.16659727628E+03 -0.98368413162E+03  0.12193710890E+04  0.00000000000E+00 0.  1.
        -13    1    3    3    0    0 -0.39423137775E+02 -0.16732062220E+02 -0.30691321784E+02  0.52688736282E+02  0.00000000000E+00 0. -1.
          4    1    5    5  502    0 -0.12855675807E+03 -0.81195895211E+02  0.24359795127E+02  0.15399030185E+03  0.00000000000E+00 0. -1.
          3    1    4    4  503    0  0.52802714379E+03  0.15004737504E+03 -0.53451353908E+03  0.76617987626E+03  0.00000000000E+00 0. -1.
         -4    1    4    4    0  503  0.33454747041E+03  0.12910641851E+03 -0.50822834433E+03  0.62200203154E+03  0.00000000000E+00 0.  1.
         -3    1    5    5    0  502  0.64592948824E+01 -0.14628559834E+02 -0.12602096399E+02  0.20360011956E+02  0.00000000000E+00 0.  1.
<mgrwt>
<rscale>  0 0.19625025E+04</rscale>
<asrwt>0</asrwt>
<pdfrwt beam="1">  1        2 0.37538090E+00 0.19625025E+04</pdfrwt>
<pdfrwt beam="2">  1       -2 0.60710186E-01 0.19625025E+04</pdfrwt>
<totfact> 0.88807069E+00</totfact>
</mgrwt>
</event>
<event>
11    1  0.2502641E-008  0.9872446E+03  0.7818608E-02  0.9322646E-01
          2   -1    0    0  501    0  0.00000000000E+00  0.00000000000E+00  0.18993465123E+04  0.18993465123E+04  0.00000000000E+00 0. -1.
         -2   -1    0    0    0  501 -0.00000000000E+00 -0.00000000000E+00 -0.12828780198E+03  0.12828780198E+03  0.00000000000E+00 0.  1.
         23    2    1    2    0    0  0.48492807679E+02  0.47164414371E+02  0.25473965414E+03  0.27852354461E+03  0.90039097778E+02 0.  0.
        254    2    1    2    0    0 -0.48492807679E+02 -0.47164414371E+02  0.15163190562E+04  0.17491107697E+04  0.86924620798E+03 0.  0.
         24    2    4    4    0    0  0.22318776818E+03  0.19692617091E+03  0.10828824115E+04  0.11264728070E+04  0.87829216582E+02 0.  0.
         11    1    3    3    0    0  0.19001935274E+02  0.15318772414E+02  0.48404243576E+01  0.24883087437E+02  0.00000000000E+00 0.  1.
        -11    1    3    3    0    0  0.29490872406E+02  0.31845641957E+02  0.24989922978E+03  0.25364045717E+03  0.00000000000E+00 0. -1.
          4    1    5    5  502    0  0.14996296822E+03  0.77311955224E+02  0.53831858456E+03  0.56413910407E+03  0.00000000000E+00 0. -1.
          1    1    4    4  503    0 -0.29405940906E+03 -0.12710409986E+03  0.26179714079E+03  0.41371987042E+03  0.00000000000E+00 0. -1.
         -2    1    4    4    0  503  0.22378833192E+02 -0.11698648542E+03  0.17163950394E+03  0.20891809223E+03  0.00000000000E+00 0.  1.
         -3    1    5    5    0  502  0.73224799967E+02  0.11961421569E+03  0.54456382691E+03  0.56233370298E+03  0.00000000000E+00 0.  1.
<mgrwt>
<rscale>  0 0.98724463E+03</rscale>
<asrwt>0</asrwt>
<pdfrwt beam="1">  1        2 0.29220713E+00 0.98724463E+03</pdfrwt>
<pdfrwt beam="2">  1       -2 0.19736586E-01 0.98724463E+03</pdfrwt>
<totfact> 0.16655549E+02</totfact>
</mgrwt>
</event>
<event>
12    1  0.2502641E-008  0.3086391E+04  0.7818608E-02  0.8219483E-01
         -2   -1    0    0    0  501 -0.00000000000E+00  0.00000000000E+00  0.10096371946E+04  0.10096371946E+04  0.00000000000E+00 0.  1.
          2   -1    0    0  501    0  0.00000000000E+00 -0.00000000000E+00 -0.23587207562E+04  0.23587207562E+04  0.00000000000E+00 0. -1.
         23    2    1    2    0    0  0.10530817098E+04  0.72115663617E+02  0.40409045553E+03  0.11339616834E+04  0.91641948354E+02 0.  0.
        254    2    1    2    0    0 -0.10530817098E+04 -0.72115663617E+02 -0.17531740171E+04  0.22343962674E+04  0.89706509738E+03 0.  0.
        -24    2    4    4    0    0 -0.24957255948E+03  0.32345830132E+02 -0.12504179020E+04  0.12773767888E+04  0.69381667364E+02 0.  0.
         24    2    4    4    0    0 -0.80350915037E+03 -0.10446149375E+03 -0.50275611504E+03  0.95701947853E+03  0.81138231889E+02 0.  0.
         13    1    3    3    0    0  0.34842697756E+02  0.41329352835E+01 -0.30889681546E+01  0.35222669763E+02  0.00000000000E+00 0. -1.
        -13    1    3    3    0    0  0.10182390121E+04  0.67982728333E+02  0.40717942368E+03  0.10987390137E+04  0.00000000000E+00 0.  1.
          2    1    6    6  502    0 -0.24525049213E+03 -0.59277621886E+02 -0.12613889594E+03  0.28208626591E+03  0.00000000000E+00 0. -1.
          3    1    5    5  503    0 -0.21510678164E+03  0.35396657089E+02 -0.11649294732E+04  0.11851516900E+04  0.00000000000E+00 0. -1.
         -4    1    5    5    0  503 -0.34465777837E+02 -0.30508269572E+01 -0.85488428874E+02  0.92225098853E+02  0.00000000000E+00 0.  1.
         -1    1    6    6    0  502 -0.55825865824E+03 -0.45183871863E+02 -0.37661721910E+03  0.67493321262E+03  0.00000000000E+00 0.  1.
<mgrwt>
<rscale>  0 0.30863909E+04</rscale>
<asrwt>0</asrwt>
<pdfrwt beam="1">  1        2 0.36288011E+00 0.30863909E+04</pdfrwt>
<pdfrwt beam="2">  1       -2 0.15532880E+00 0.30863909E+04</pdfrwt>
<totfact> 0.97380711E-01</totfact>
</mgrwt>
</event>
<event>
11    1  0.2502641E-008  0.3353123E+04  0.7818608E-02  0.8149508E-01
          1   -1    0    0  501    0  0.00000000000E+00  0.00000000000E+00  0.21543658184E+04  0.21543658184E+04  0.00000000000E+00 0. -1.
         -1   -1    0    0    0  501 -0.00000000000E+00 -0.00000000000E+00 -0.13047264338E+04  0.13047264338E+04  0.00000000000E+00 0.  1.
         23    2    1    2    0    0  0.25274959918E+03 -0.85729567208E+02  0.19732069461E+04  0.19933014035E+04  0.92048434826E+02 0.  0.
        254    2    1    2    0    0 -0.25274959918E+03  0.85729567208E+02 -0.11235675614E+04  0.14657908487E+04  0.90272189985E+03 0.  0.
         24    2    4    4    0    0 -0.14032424663E+03  0.36161333064E+03 -0.12824963499E+03  0.41644219713E+03  0.80752954057E+02 0.  0.
         11    1    3    3    0    0  0.35306138997E+02 -0.10926905261E+02  0.11193295845E+03  0.11787666392E+03  0.00000000000E+00 0.  1.
        -11    1    3    3    0    0  0.21744346018E+03 -0.74802661947E+02  0.18612739876E+04  0.18754247395E+04  0.00000000000E+00 0. -1.
          4    1    5    5  502    0  0.15564455596E+01  0.72482340283E+02 -0.38583203317E+02  0.82126583723E+02  0.00000000000E+00 0. -1.
          1    1    4    4  503    0  0.19839277893E+02  0.59272377623E+01 -0.51085927953E+02  0.55122600897E+02  0.00000000000E+00 0. -1.
         -2    1    4    4    0  503 -0.13226463044E+03 -0.28181100119E+03 -0.94423199850E+03  0.99422605068E+03  0.00000000000E+00 0.  1.
         -3    1    5    5    0  502 -0.14188069219E+03  0.28913099036E+03 -0.89666431668E+02  0.33431561341E+03  0.00000000000E+00 0.  1.
<mgrwt>
<rscale>  0 0.33531227E+04</rscale>
<asrwt>0</asrwt>
<pdfrwt beam="1">  1        1 0.33144090E+00 0.33531227E+04</pdfrwt>
<pdfrwt beam="2">  1       -1 0.20072714E+00 0.33531227E+04</pdfrwt>
<totfact> 0.28757977E-01</totfact>
</mgrwt>
</event>
<event>
12    1  0.2502641E-008  0.2674046E+04  0.7818608E-02  0.8343476E-01
          1   -1    0    0  501    0  0.00000000000E+00  0.00000000000E+00  0.15693148605E+04  0.15693148605E+04  0.00000000000E+00 0. -1.
         -1   -1    0    0    0  501 -0.00000000000E+00 -0.00000000000E+00 -0.11391151884E+04  0.11391151884E+04  0.00000000000E+00 0.  1.
         23    2    1    2    0    0  0.11564184212E+04  0.21148883578E+03  0.68002813067E+02  0.11812124108E+04  0.92775450603E+02 0.  0.
        254    2    1    2    0    0 -0.11564184212E+04 -0.21148883578E+03  0.36219685904E+03  0.15272176381E+04  0.90508345294E+03 0.  0.
        -24    2    4    4    0    0 -0.21588909753E+03 -0.41475803341E+03  0.30056631312E+03  0.55949278010E+03  0.63716039511E+02 0.  0.
         24    2    4    4    0    0 -0.94052932365E+03  0.20326919763E+03  0.61630545916E+02  0.96772485795E+03  0.82336511701E+02 0.  0.
         13    1    3    3    0    0  0.39835700741E+03  0.10250477697E+03 -0.95146902449E+01  0.41144387708E+03  0.00000000000E+00 0. -1.
        -13    1    3    3    0    0  0.75806141377E+03  0.10898405881E+03  0.77517503312E+02  0.76976853368E+03  0.00000000000E+00 0.  1.
          2    1    6    6  502    0 -0.60608343551E+03  0.11313297348E+03  0.38783702832E+01  0.61656406175E+03  0.00000000000E+00 0. -1.
          1    1    5    5  503    0 -0.39445160648E+02 -0.36439075944E+02  0.44745230084E+02  0.69898945410E+02  0.00000000000E+00 0. -1.
         -2    1    5    5    0  503 -0.17644393689E+03 -0.37831895747E+03  0.25582108304E+03  0.48959383469E+03  0.00000000000E+00 0.  1.
         -1    1    6    6    0  502 -0.33444588814E+03  0.90136224155E+02  0.57752175633E+02  0.35116079620E+03  0.00000000000E+00 0.  1.
<mgrwt>
<rscale>  0 0.26740459E+04</rscale>
<asrwt>0</asrwt>
<pdfrwt beam="1">  1        1 0.24143306E+00 0.26740459E+04</pdfrwt>
<pdfrwt beam="2">  1       -1 0.17524849E+00 0.26740459E+04</pdfrwt>
<totfact> 0.11547911E+00</totfact>
</mgrwt>
</event>
<event>
11    1  0.2502641E-008  0.3305884E+04  0.7818608E-02  0.8161400E-01
         -2   -1    0    0    0  501 -0.00000000000E+00  0.00000000000E+00  0.81989156930E+03  0.81989156930E+03  0.00000000000E+00 0.  1.
          2   -1    0    0  501    0  0.00000000000E+00 -0.00000000000E+00 -0.33324121635E+04  0.33324121635E+04  0.00000000000E+00 0. -1.
         23    2    1    2    0    0  0.33912297702E+03 -0.14787172863E+04 -0.91872685312E+03  0.17759353106E+04  0.90983462735E+02 0.  0.
        254    2    1    2    0    0 -0.33912297702E+03  0.14787172863E+04 -0.15937937411E+04  0.23763684222E+04  0.89740692133E+03 0.  0.
         24    2    4    4    0    0 -0.32335072051E+02  0.46804854333E+03 -0.97192221711E+03  0.10817577612E+04  0.73838080060E+02 0.  0.
         13    1    3    3    0    0  0.29583901302E-01 -0.79610500170E+02 -0.59686050229E+02  0.99500036203E+02  0.00000000000E+00 0. -1.
        -13    1    3    3    0    0  0.33909339312E+03 -0.13991067862E+04 -0.85904080290E+03  0.16764352744E+04  0.00000000000E+00 0.  1.
          4    1    5    5  502    0 -0.54655411518E+02  0.35893346109E+03 -0.76413664381E+03  0.84600546920E+03  0.00000000000E+00 0. -1.
          3    1    4    4  503    0 -0.34086599844E+03  0.48457161649E+03 -0.43604939075E+03  0.73562106521E+03  0.00000000000E+00 0. -1.
         -4    1    4    4    0  503  0.34078093477E+02  0.52609712651E+03 -0.18582213324E+03  0.55898959577E+03  0.00000000000E+00 0.  1.
         -3    1    5    5    0  502  0.22320339467E+02  0.10911508224E+03 -0.20778557330E+03  0.23575229203E+03  0.00000000000E+00 0.  1.
<mgrwt>
<rscale>  0 0.33058836E+04</rscale>
<asrwt>0</asrwt>
<pdfrwt beam="1">  1        2 0.51267879E+00 0.33058836E+04</pdfrwt>
<pdfrwt beam="2">  1       -2 0.12613716E+00 0.33058836E+04</pdfrwt>
<totfact> 0.41405289E-01</totfact>
</mgrwt>
</event>
<event>
12    1  0.3641672E-008  0.1669188E+04  0.7818608E-02  0.8779136E-01
          2   -1    0    0  501    0  0.00000000000E+00  0.00000000000E+00  0.80636281282E+03  0.80636281282E+03  0.00000000000E+00 0. -1.
         -2   -1    0    0    0  501 -0.00000000000E+00 -0.00000000000E+00 -0.86381313048E+03  0.86381313048E+03  0.00000000000E+00 0.  1.
         23    2    1    2    0    0  0.51134847942E+03  0.30203600612E+03  0.36467220517E+02  0.60185595306E+03  0.90541226337E+02 0.  0.
        254    2    1    2    0    0 -0.51134847942E+03 -0.30203600612E+03 -0.93917538169E+02  0.10683199902E+04  0.88305383820E+03 0.  0.
        -24    2    4    4    0    0 -0.13441368006E+03 -0.31500546156E+03  0.33783408768E+03  0.48953490789E+03  0.90648094557E+02 0.  0.
         24    2    4    4    0    0 -0.37693479936E+03  0.12969455439E+02 -0.43175162585E+03  0.57878508234E+03  0.79590548241E+02 0.  0.
         11    1    3    3    0    0  0.36982953209E+03  0.25272294568E+03  0.13578959928E+01  0.44793371604E+03  0.00000000000E+00 0.  1.
        -11    1    3    3    0    0  0.14151894733E+03  0.49313060441E+02  0.35109324524E+02  0.15392223703E+03  0.00000000000E+00 0. -1.
          4    1    6    6  502    0 -0.33059167663E+03 -0.72740791484E+01 -0.40036711977E+03  0.51926640511E+03  0.00000000000E+00 0. -1.
          3    1    5    5  503    0 -0.13278587086E+03 -0.22033540211E+03  0.27086731863E+03  0.37356241945E+03  0.00000000000E+00 0. -1.
         -4    1    5    5    0  503 -0.16278092042E+01 -0.94670059451E+02  0.66966769055E+02  0.11597248845E+03  0.00000000000E+00 0.  1.
         -3    1    6    6    0  502 -0.46343122729E+02  0.20243534587E+02 -0.31384506084E+02  0.59518677229E+02  0.00000000000E+00 0.  1.
<mgrwt>
<rscale>  0 0.16691876E+04</rscale>
<asrwt>0</asrwt>
<pdfrwt beam="1">  1        2 0.12405582E+00 0.16691876E+04</pdfrwt>
<pdfrwt beam="2">  1       -2 0.13289433E+00 0.16691876E+04</pdfrwt>
<totfact> 0.13348029E+01</totfact>
</mgrwt>
</event>
<event>
12    1  0.2502641E-008  0.1972628E+04  0.7818608E-02  0.8619526E-01
         -2   -1    0    0    0  501 -0.00000000000E+00  0.00000000000E+00  0.15538950993E+04  0.15538950993E+04  0.00000000000E+00 0.  1.
          2   -1    0    0  501    0  0.00000000000E+00 -0.00000000000E+00 -0.62604935239E+03  0.62604935239E+03  0.00000000000E+00 0. -1.
         23    2    1    2    0    0 -0.37040025543E+03 -0.18915341840E+03  0.99823088268E+03  0.10851689756E+04  0.90285356512E+02 0.  0.
        254    2    1    2    0    0  0.37040025543E+03  0.18915341840E+03 -0.70385135783E+02  0.10947754761E+04  0.10102494300E+04 0.  0.
        -24    2    4    4    0    0 -0.11254499677E+03 -0.21553827771E+03  0.26813969702E+03  0.37481938750E+03  0.97301339505E+02 0.  0.
         24    2    4    4    0    0  0.48294525220E+03  0.40469169611E+03 -0.33852483280E+03  0.71995608857E+03  0.82013544774E+02 0.  0.
         13    1    3    3    0    0 -0.73740383155E+02 -0.39162072166E+02  0.30711599049E+03  0.31826332434E+03  0.00000000000E+00 0.  1.
        -13    1    3    3    0    0 -0.29665987227E+03 -0.14999134623E+03  0.69111489218E+03  0.76690565127E+03  0.00000000000E+00 0. -1.
          2    1    6    6  502    0  0.37910251997E+03  0.34635346902E+03 -0.24739883507E+03  0.56998739438E+03  0.00000000000E+00 0. -1.
          3    1    5    5  503    0 -0.12895355275E+03 -0.18951059897E+03  0.22019225822E+03  0.31784888936E+03  0.00000000000E+00 0. -1.
         -4    1    5    5    0  503  0.16408555984E+02 -0.26027678743E+02  0.47947438800E+02  0.56970498135E+02  0.00000000000E+00 0.  1.
         -1    1    6    6    0  502  0.10384273222E+03  0.58338227083E+02 -0.91125997733E+02  0.14996869419E+03  0.00000000000E+00 0.  1.
<mgrwt>
<rscale>  0 0.19726277E+04</rscale>
<asrwt>0</asrwt>
<pdfrwt beam="1">  1        2 0.96315285E-01 0.19726277E+04</pdfrwt>
<pdfrwt beam="2">  1       -2 0.23906078E+00 0.19726277E+04</pdfrwt>
<totfact> 0.32907306E+00</totfact>
</mgrwt>
</event>
<event>
12    1  0.2502641E-008  0.2540514E+04  0.7818608E-02  0.8388693E-01
          2   -1    0    0  501    0  0.00000000000E+00  0.00000000000E+00  0.12174847733E+04  0.12174847733E+04  0.00000000000E+00 0. -1.
         -2   -1    0    0    0  501 -0.00000000000E+00 -0.00000000000E+00 -0.13253163340E+04  0.13253163340E+04  0.00000000000E+00 0.  1.
         23    2    1    2    0    0 -0.11009603980E+04 -0.88750359008E+02  0.46052732237E+02  0.11094254922E+04  0.93346903950E+02 0.  0.
        254    2    1    2    0    0  0.11009603980E+04  0.88750359008E+02 -0.15388429294E+03  0.14333756151E+04  0.90049700399E+03 0.  0.
        -24    2    4    4    0    0  0.10443986026E+04  0.27894302726E+03  0.11355214088E+03  0.10911711809E+04  0.95826947228E+02 0.  0.
         24    2    4    4    0    0  0.56561795377E+02 -0.19019266825E+03 -0.26743643383E+03  0.34220443417E+03  0.78798101964E+02 0.  0.
         11    1    3    3    0    0 -0.10599238116E+04 -0.94945309167E+02  0.29016413110E+02  0.10645633144E+04  0.00000000000E+00 0. -1.
        -11    1    3    3    0    0 -0.41036586427E+02  0.61949501594E+01  0.17036319127E+02  0.44862177861E+02  0.00000000000E+00 0.  1.
          4    1    6    6  502    0  0.56824928978E+02 -0.87103784296E+02 -0.92664748113E+02  0.13929428321E+03  0.00000000000E+00 0. -1.
          3    1    5    5  503    0  0.55325921462E+03  0.18542110040E+03  0.30008772901E+02  0.58427499474E+03  0.00000000000E+00 0. -1.
         -4    1    5    5    0  503  0.49113938799E+03  0.93521926856E+02  0.83543367984E+02  0.50689618619E+03  0.00000000000E+00 0.  1.
         -3    1    6    6    0  502 -0.26313360101E+00 -0.10308888395E+03 -0.17477168572E+03  0.20291015096E+03  0.00000000000E+00 0.  1.
<mgrwt>
<rscale>  0 0.25405137E+04</rscale>
<asrwt>0</asrwt>
<pdfrwt beam="1">  1        2 0.18730535E+00 0.25405137E+04</pdfrwt>
<pdfrwt beam="2">  1       -2 0.20389482E+00 0.25405137E+04</pdfrwt>
<totfact> 0.20614573E+00</totfact>
</mgrwt>
</event>
<event>
12    1  0.2502641E-008  0.1618669E+04  0.7818608E-02  0.8809160E-01
          2   -1    0    0  501    0  0.00000000000E+00  0.00000000000E+00  0.11766926831E+04  0.11766926831E+04  0.00000000000E+00 0. -1.
         -2   -1    0    0    0  501 -0.00000000000E+00 -0.00000000000E+00 -0.55666412725E+03  0.55666412725E+03  0.00000000000E+00 0.  1.
         23    2    1    2    0    0 -0.44153239292E+03 -0.14616575277E+03 -0.11163314768E+03  0.48338026475E+03  0.69851552684E+02 0.  0.
        254    2    1    2    0    0  0.44153239292E+03  0.14616575277E+03  0.73166170355E+03  0.12499765456E+04  0.90044279933E+03 0.  0.
        -24    2    4    4    0    0  0.27522657408E+03 -0.16965848366E+03  0.80893790654E+03  0.87596847906E+03  0.91687357478E+02 0.  0.
         24    2    4    4    0    0  0.16630581884E+03  0.31582423643E+03 -0.77276202986E+02  0.37400806655E+03  0.80671237761E+02 0.  0.
         11    1    3    3    0    0 -0.22450058389E+02 -0.24979424813E+02 -0.24625174085E+01  0.33675521935E+02  0.00000000000E+00 0.  1.
        -11    1    3    3    0    0 -0.41908233453E+03 -0.12118632796E+03 -0.10917063028E+03  0.44970474282E+03  0.00000000000E+00 0. -1.
          2    1    6    6  502    0  0.40199189288E+02  0.89840843724E+02  0.14377386231E+02  0.99468895918E+02  0.00000000000E+00 0. -1.
          1    1    5    5  503    0  0.14133094514E+02 -0.99425565368E+00  0.68084230872E+01  0.15719018092E+02  0.00000000000E+00 0. -1.
         -2    1    5    5    0  503  0.26109347956E+03 -0.16866422800E+03  0.80212948345E+03  0.86024946097E+03  0.00000000000E+00 0.  1.
         -1    1    6    6    0  502  0.12610662955E+03  0.22598339270E+03 -0.91653589217E+02  0.27453917063E+03  0.00000000000E+00 0.  1.
<mgrwt>
<rscale>  0 0.16186693E+04</rscale>
<asrwt>0</asrwt>
<pdfrwt beam="1">  1        2 0.18102964E+00 0.16186693E+04</pdfrwt>
<pdfrwt beam="2">  1       -2 0.85640635E-01 0.16186693E+04</pdfrwt>
<totfact> 0.22189508E+01</totfact>
</mgrwt>
</event>
<event>
12    1  0.2502641E-008  0.2717444E+04  0.7818608E-02  0.8329367E-01
          2   -1    0    0  501    0  0.00000000000E+00  0.00000000000E+00  0.10062573109E+04  0.10062573109E+04  0.00000000000E+00 0. -1.
         -2   -1    0    0    0  501 -0.00000000000E+00 -0.00000000000E+00 -0.18346449680E+04  0.18346449680E+04  0.00000000000E+00 0.  1.
         23    2    1    2    0    0  0.43917996999E+03 -0.11126369338E+04 -0.24659032859E+03  0.12253472943E+04  0.99142367684E+02 0.  0.
        254    2    1    2    0    0 -0.43917996999E+03  0.11126369338E+04 -0.58179732854E+03  0.16155549846E+04  0.91689136994E+03 0.  0.
        -24    2    4    4    0    0 -0.42841212019E+02 -0.13938760218E+03 -0.17740989660E+03  0.23929422695E+03  0.67254609906E+02 0.  0.
         24    2    4    4    0    0 -0.39633875798E+03  0.12520245360E+04 -0.40438743194E+03  0.13762607577E+04  0.76906619733E+02 0.  0.
         11    1    3    3    0    0  0.33947164933E+03 -0.86312482048E+03 -0.14844929974E+03  0.93928837480E+03  0.00000000000E+00 0.  1.
        -11    1    3    3    0    0  0.99708320666E+02 -0.24951211333E+03 -0.98141028858E+02  0.28605891955E+03  0.00000000000E+00 0. -1.
          2    1    6    6  502    0 -0.25709183203E+03  0.82399955699E+03 -0.22756434410E+03  0.89266847750E+03  0.00000000000E+00 0. -1.
          3    1    5    5  503    0 -0.39123949666E+02 -0.13188495000E+03 -0.18321076083E+03  0.22910806699E+03  0.00000000000E+00 0. -1.
         -4    1    5    5    0  503 -0.37172623526E+01 -0.75026521742E+01  0.58008642297E+01  0.10186159966E+02  0.00000000000E+00 0.  1.
         -1    1    6    6    0  502 -0.13924692595E+03  0.42802497900E+03 -0.17682308784E+03  0.48359228016E+03  0.00000000000E+00 0.  1.
<mgrwt>
<rscale>  0 0.27174436E+04</rscale>
<asrwt>0</asrwt>
<pdfrwt beam="1">  1        2 0.15480882E+00 0.27174436E+04</pdfrwt>
<pdfrwt beam="2">  1       -2 0.28225307E+00 0.27174436E+04</pdfrwt>
<totfact> 0.89200315E-01</totfact>
</mgrwt>
</event>
<event>
12    1  0.2502641E-008  0.1603923E+04  0.7818608E-02  0.8818141E-01
         -2   -1    0    0    0  501 -0.00000000000E+00  0.00000000000E+00  0.40883312821E+03  0.40883312821E+03  0.00000000000E+00 0.  1.
          2   -1    0    0  501    0  0.00000000000E+00 -0.00000000000E+00 -0.15731177038E+04  0.15731177038E+04  0.00000000000E+00 0. -1.
         23    2    1    2    0    0 -0.14772214250E+03 -0.90201390237E+01  0.24666432971E+03  0.30139308775E+03  0.89951695362E+02 0.  0.
        254    2    1    2    0    0  0.14772214250E+03  0.90201390237E+01 -0.14109489053E+04  0.16805577443E+04  0.90088530021E+03 0.  0.
        -24    2    4    4    0    0 -0.11923471478E+03  0.36666681229E+03 -0.98106855745E+03  0.10557467108E+04  0.58686748435E+02 0.  0.
         24    2    4    4    0    0  0.26695685728E+03 -0.35764667326E+03 -0.42988034789E+03  0.62481103353E+03  0.80091245294E+02 0.  0.
         13    1    3    3    0    0 -0.12444022878E+03 -0.44723013389E+01  0.12141311102E+03  0.17391525392E+03  0.00000000000E+00 0. -1.
        -13    1    3    3    0    0 -0.23281913721E+02 -0.45478376848E+01  0.12525121870E+03  0.12747783384E+03  0.00000000000E+00 0.  1.
          4    1    6    6  502    0  0.16355163951E+03 -0.26985687269E+03 -0.27141892678E+03  0.41622122043E+03  0.00000000000E+00 0. -1.
          3    1    5    5  503    0 -0.11933576359E+03  0.35720214031E+03 -0.97288182148E+03  0.10432322043E+04  0.00000000000E+00 0. -1.
         -2    1    5    5    0  503  0.10104881311E+00  0.94646719722E+01 -0.81867359730E+01  0.12514506474E+02  0.00000000000E+00 0.  1.
         -3    1    6    6    0  502  0.10340521777E+03 -0.87789800569E+02 -0.15846142111E+03  0.20858981310E+03  0.00000000000E+00 0.  1.
<mgrwt>
<rscale>  0 0.16039235E+04</rscale>
<asrwt>0</asrwt>
<pdfrwt beam="1">  1        2 0.24201811E+00 0.16039235E+04</pdfrwt>
<pdfrwt beam="2">  1       -2 0.62897405E-01 0.16039235E+04</pdfrwt>
<totfact> 0.25926373E+01</totfact>
</mgrwt>
</event>
<event>
11    1  0.2502641E-008  0.1803913E+04  0.7818608E-02  0.8704221E-01
          2   -1    0    0  501    0  0.00000000000E+00  0.00000000000E+00  0.30398493566E+04  0.30398493566E+04  0.00000000000E+00 0.  1.
         -2   -1    0    0    0  501 -0.00000000000E+00 -0.00000000000E+00 -0.26762039450E+03  0.26762039450E+03  0.00000000000E+00 0. -1.
         23    2    1    2    0    0 -0.33131462869E+03  0.86225783888E+02  0.20992024885E+04  0.21288916519E+04  0.91237648043E+02 0.  0.
        254    2    1    2    0    0  0.33131462869E+03 -0.86225783888E+02  0.67302647358E+03  0.11785780993E+04  0.90491846757E+03 0.  0.
         24    2    4    4    0    0  0.29794589781E+03  0.24517771852E+03  0.59693771908E+03  0.71525822652E+03  0.79848722374E+02 0.  0.
         11    1    3    3    0    0 -0.18640115106E+03  0.87306651475E+02  0.13762869962E+04  0.13915939553E+04  0.00000000000E+00 0. -1.
        -11    1    3    3    0    0 -0.14491347763E+03 -0.10808675868E+01  0.72291549234E+03  0.73729769655E+03  0.00000000000E+00 0.  1.
          4    1    5    5  502    0  0.40109332786E+01  0.26311619195E+02  0.54178269610E+02  0.60362851062E+02  0.00000000000E+00 0. -1.
          1    1    4    4  503    0 -0.11241066235E+03 -0.42857233851E+02 -0.28329396383E+02  0.12359390844E+03  0.00000000000E+00 0. -1.
         -2    1    4    4    0  503  0.14577939323E+03 -0.28854626856E+03  0.10441815088E+03  0.33972596431E+03  0.00000000000E+00 0.  1.
         -3    1    5    5    0  502  0.29393496453E+03  0.21886609933E+03  0.54275944947E+03  0.65489537546E+03  0.00000000000E+00 0.  1.
<mgrwt>
<rscale>  0 0.18039132E+04</rscale>
<asrwt>0</asrwt>
<pdfrwt beam="1">  1        2 0.46766911E+00 0.18039132E+04</pdfrwt>
<pdfrwt beam="2">  1       -2 0.41172370E-01 0.18039132E+04</pdfrwt>
<totfact> 0.87023126E+00</totfact>
</mgrwt>
</event>
<event>
11    1  0.2502641E-008  0.1158030E+04  0.7818608E-02  0.9150407E-01
          2   -1    0    0  501    0  0.00000000000E+00  0.00000000000E+00  0.44880776540E+03  0.44880776540E+03  0.00000000000E+00 0. -1.
         -2   -1    0    0    0  501 -0.00000000000E+00 -0.00000000000E+00 -0.74699795305E+03  0.74699795305E+03  0.00000000000E+00 0.  1.
         23    2    1    2    0    0  0.21046505011E+03 -0.57151691505E+01 -0.11041380446E+03  0.25526818645E+03  0.92964715467E+02 0.  0.
        254    2    1    2    0    0 -0.21046505011E+03  0.57151691505E+01 -0.18777638319E+03  0.94053753199E+03  0.89723056041E+03 0.  0.
         24    2    4    4    0    0  0.32803241190E+03  0.38528572161E+02 -0.37729249546E+02  0.34162921768E+03  0.78723007882E+02 0.  0.
         11    1    3    3    0    0  0.21811655508E+03  0.25825499689E+01 -0.10913261302E+03  0.24390864763E+03  0.00000000000E+00 0. -1.
        -11    1    3    3    0    0 -0.76515049645E+01 -0.82977191194E+01 -0.12811914419E+01  0.11359538825E+02  0.00000000000E+00 0.  1.
          2    1    5    5  502    0  0.26717379075E+03  0.54466661684E+02 -0.50835642890E+02  0.27736747157E+03  0.00000000000E+00 0. -1.
          3    1    4    4  503    0 -0.50328257410E+03 -0.91128478115E+02 -0.13766582684E+03  0.52966935799E+03  0.00000000000E+00 0. -1.
         -4    1    4    4    0  503 -0.35214887914E+02  0.58315075104E+02 -0.12381306812E+02  0.69238956329E+02  0.00000000000E+00 0.  1.
         -1    1    5    5    0  502  0.60858621152E+02 -0.15938089523E+02  0.13106393345E+02  0.64261746106E+02  0.00000000000E+00 0.  1.
<mgrwt>
<rscale>  0 0.11580302E+04</rscale>
<asrwt>0</asrwt>
<pdfrwt beam="1">  1        2 0.69047349E-01 0.11580302E+04</pdfrwt>
<pdfrwt beam="2">  1       -2 0.11492276E+00 0.11580302E+04</pdfrwt>
<totfact> 0.40755616E+01</totfact>
</mgrwt>
</event>
<event>
12    1  0.3124624E-008  0.1875556E+04  0.7818608E-02  0.8667120E-01
          1   -1    0    0  501    0  0.00000000000E+00  0.00000000000E+00  0.17363626047E+04  0.17363626047E+04  0.00000000000E+00 0. -1.
         -1   -1    0    0    0  501 -0.00000000000E+00 -0.00000000000E+00 -0.50647699507E+03  0.50647699507E+03  0.00000000000E+00 0.  1.
         23    2    1    2    0    0  0.48431707256E+02 -0.63634483856E+03  0.66896735159E+02  0.64791701149E+03  0.89671047541E+02 0.  0.
        254    2    1    2    0    0 -0.48431707256E+02  0.63634483856E+03  0.11629888744E+04  0.15949225882E+04  0.88541208294E+03 0.  0.
        -24    2    4    4    0    0 -0.14293404659E+03  0.50997769439E+03  0.12734989369E+04  0.13826081287E+04  0.96427717886E+02 0.  0.
         24    2    4    4    0    0  0.94502339335E+02  0.12636714418E+03 -0.11051006245E+03  0.21231445958E+03  0.89250258142E+02 0.  0.
         11    1    3    3    0    0  0.51250855264E+02 -0.51414381017E+03  0.87231201181E+02  0.52400361655E+03  0.00000000000E+00 0.  1.
        -11    1    3    3    0    0 -0.28191480081E+01 -0.12220102840E+03 -0.20334466023E+02  0.12391339494E+03  0.00000000000E+00 0. -1.
          2    1    6    6  502    0  0.23150424778E+02  0.81945895900E+02 -0.93677252656E+02  0.12659581228E+03  0.00000000000E+00 0. -1.
          3    1    5    5  503    0 -0.10579746607E+03  0.43763800787E+03  0.11472576341E+04  0.12324448097E+04  0.00000000000E+00 0. -1.
         -4    1    5    5    0  503 -0.37136580524E+02  0.72339686521E+02  0.12624130273E+03  0.15016331900E+03  0.00000000000E+00 0.  1.
         -1    1    6    6    0  502  0.71351914557E+02  0.44421248276E+02 -0.16832809792E+02  0.85718647299E+02  0.00000000000E+00 0.  1.
<mgrwt>
<rscale>  0 0.18755561E+04</rscale>
<asrwt>0</asrwt>
<pdfrwt beam="1">  1        1 0.26713271E+00 0.18755561E+04</pdfrwt>
<pdfrwt beam="2">  1       -1 0.77919538E-01 0.18755561E+04</pdfrwt>
<totfact> 0.69618351E+00</totfact>
</mgrwt>
</event>
<event>
12    1  0.3093970E-008  0.2461207E+04  0.7818608E-02  0.8416938E-01
          2   -1    0    0  501    0  0.00000000000E+00  0.00000000000E+00  0.13516660555E+04  0.13516660555E+04  0.00000000000E+00 0. -1.
         -2   -1    0    0    0  501 -0.00000000000E+00 -0.00000000000E+00 -0.11203836080E+04  0.11203836080E+04  0.00000000000E+00 0.  1.
         23    2    1    2    0    0  0.92513254389E+03  0.53054211043E+03  0.10466068437E+03  0.10753268040E+04  0.89603135338E+02 0.  0.
        254    2    1    2    0    0 -0.92513254389E+03 -0.53054211043E+03  0.12662176317E+03  0.13967228594E+04  0.89300421077E+03 0.  0.
        -24    2    4    4    0    0 -0.16398913057E+03  0.71357028021E+02  0.34879338674E+03  0.39801088395E+03  0.69076600363E+02 0.  0.
         24    2    4    4    0    0 -0.76114341332E+03 -0.60189913845E+03 -0.22217162357E+03  0.99871197548E+03  0.80271483975E+02 0.  0.
         11    1    3    3    0    0  0.26626522830E+02  0.30800676598E+02 -0.63995461272E+01  0.41214167316E+02  0.00000000000E+00 0. -1.
        -11    1    3    3    0    0  0.89850602106E+03  0.49974143383E+03  0.11106023049E+03  0.10341126367E+04  0.00000000000E+00 0.  1.
          2    1    6    6  502    0 -0.69121196084E+03 -0.56966413760E+03 -0.21649669509E+03  0.92149987708E+03  0.00000000000E+00 0. -1.
          3    1    5    5  503    0 -0.10909058079E+03  0.80267782998E+02  0.26178244017E+03  0.29474347793E+03  0.00000000000E+00 0. -1.
         -4    1    5    5    0  503 -0.54898549783E+02 -0.89107549770E+01  0.87010946577E+02  0.10326740602E+03  0.00000000000E+00 0.  1.
         -1    1    6    6    0  502 -0.69931452483E+02 -0.32235000849E+02 -0.56749284813E+01  0.77212098401E+02  0.00000000000E+00 0.  1.
<mgrwt>
<rscale>  0 0.24612066E+04</rscale>
<asrwt>0</asrwt>
<pdfrwt beam="1">  1        2 0.20794862E+00 0.24612066E+04</pdfrwt>
<pdfrwt beam="2">  1       -2 0.17236671E+00 0.24612066E+04</pdfrwt>
<totfact> 0.28307745E+00</totfact>
</mgrwt>
</event>
<event>
12    1  0.2502641E-008  0.1671940E+04  0.7818608E-02  0.8777532E-01
          2   -1    0    0  501    0  0.00000000000E+00  0.00000000000E+00  0.22631453879E+04  0.22631453879E+04  0.00000000000E+00 0. -1.
         -2   -1    0    0    0  501 -0.00000000000E+00 -0.00000000000E+00 -0.30879418960E+03  0.30879418960E+03  0.00000000000E+00 0.  1.
         23    2    1    2    0    0 -0.16467241329E+03 -0.51388653794E+03  0.34006596556E+03  0.64470384194E+03  0.93817937035E+02 0.  0.
        254    2    1    2    0    0  0.16467241329E+03  0.51388653794E+03  0.16142852327E+04  0.19272357355E+04  0.90394932942E+03 0.  0.
        -24    2    4    4    0    0  0.54627629879E+02  0.76473683140E+03  0.11950259439E+04  0.14206531404E+04  0.48597730833E+02 0.  0.
         24    2    4    4    0    0  0.11004478341E+03 -0.25085029347E+03  0.41925928877E+03  0.50658259511E+03  0.76235492756E+02 0.  0.
         11    1    3    3    0    0 -0.14459568631E+03 -0.45556183819E+03  0.26150478462E+03  0.54482038627E+03  0.00000000000E+00 0.  1.
        -11    1    3    3    0    0 -0.20076726981E+02 -0.58324699750E+02  0.78561180935E+02  0.99883455673E+02  0.00000000000E+00 0. -1.
          2    1    6    6  502    0  0.60865215545E+02 -0.16158625816E+03  0.32370491828E+03  0.36687813700E+03  0.00000000000E+00 0. -1.
          1    1    5    5  503    0 -0.76420445410E+01  0.12378875627E+03  0.18033014655E+03  0.21886301373E+03  0.00000000000E+00 0. -1.
         -2    1    5    5    0  503  0.62269674420E+02  0.64094807513E+03  0.10146957974E+04  0.12017901267E+04  0.00000000000E+00 0.  1.
         -1    1    6    6    0  502  0.49179567869E+02 -0.89264035306E+02  0.95554370487E+02  0.13970445810E+03  0.00000000000E+00 0.  1.
<mgrwt>
<rscale>  0 0.16719404E+04</rscale>
<asrwt>0</asrwt>
<pdfrwt beam="1">  1        2 0.34817620E+00 0.16719404E+04</pdfrwt>
<pdfrwt beam="2">  1       -2 0.47506800E-01 0.16719404E+04</pdfrwt>
<totfact> 0.19063404E+01</totfact>
</mgrwt>
</event>
<event>
11    1  0.2502641E-008  0.1660595E+04  0.7818608E-02  0.8784163E-01
          1   -1    0    0  501    0  0.00000000000E+00  0.00000000000E+00  0.17348277588E+04  0.17348277588E+04  0.00000000000E+00 0. -1.
         -1   -1    0    0    0  501 -0.00000000000E+00 -0.00000000000E+00 -0.39738450305E+03  0.39738450305E+03  0.00000000000E+00 0.  1.
         23    2    1    2    0    0 -0.25158823438E+03 -0.30980892301E+03  0.10129260825E+04  0.10914294543E+04  0.76946713791E+02 0.  0.
        254    2    1    2    0    0  0.25158823438E+03  0.30980892301E+03  0.32451717330E+03  0.10407828075E+04  0.90478685238E+03 0.  0.
         24    2    4    4    0    0 -0.15069871763E+03  0.43721592026E+03  0.29569829126E+03  0.55477048333E+03  0.80404883501E+02 0.  0.
         11    1    3    3    0    0 -0.17980675687E+03 -0.16194642407E+03  0.61479665158E+03  0.66070571125E+03  0.00000000000E+00 0. -1.
        -11    1    3    3    0    0 -0.71781477510E+02 -0.14786249894E+03  0.39812943089E+03  0.43072374307E+03  0.00000000000E+00 0.  1.
          2    1    5    5  502    0  0.39576096216E+01  0.28602075729E+02  0.37315654925E+02  0.47182618753E+02  0.00000000000E+00 0. -1.
          3    1    4    4  503    0  0.21449950184E+03  0.52121794422E+02  0.46602298892E+02  0.22560694139E+03  0.00000000000E+00 0. -1.
         -4    1    4    4    0  503  0.18778745017E+03 -0.17952879167E+03 -0.17783416859E+02  0.26040538281E+03  0.00000000000E+00 0.  1.
         -1    1    5    5    0  502 -0.15465632725E+03  0.40861384453E+03  0.25838263634E+03  0.50758786458E+03  0.00000000000E+00 0.  1.
<mgrwt>
<rscale>  0 0.16605947E+04</rscale>
<asrwt>0</asrwt>
<pdfrwt beam="1">  1        1 0.26689657E+00 0.16605947E+04</pdfrwt>
<pdfrwt beam="2">  1       -1 0.61136078E-01 0.16605947E+04</pdfrwt>
<totfact> 0.11690031E+01</totfact>
</mgrwt>
</event>
<event>
12    1  0.2502641E-008  0.1215136E+04  0.7818608E-02  0.9099710E-01
          1   -1    0    0  501    0  0.00000000000E+00  0.00000000000E+00  0.69547899207E+03  0.69547899207E+03  0.00000000000E+00 0. -1.
         -1   -1    0    0    0  501 -0.00000000000E+00 -0.00000000000E+00 -0.53076907867E+03  0.53076907867E+03  0.00000000000E+00 0.  1.
         23    2    1    2    0    0 -0.11744688489E+03  0.21707905270E+03  0.10011085831E+03  0.27911097340E+03  0.83448580770E+02 0.  0.
        254    2    1    2    0    0  0.11744688489E+03 -0.21707905270E+03  0.64599055087E+02  0.94713709734E+03  0.91212858597E+03 0.  0.
        -24    2    4    4    0    0 -0.21677975461E+03 -0.39128036325E+03 -0.18485048832E+03  0.48885462443E+03  0.68668450652E+02 0.  0.
         24    2    4    4    0    0  0.33422663950E+03  0.17420131056E+03  0.24944954341E+03  0.45828247291E+03  0.75790547704E+02 0.  0.
         11    1    3    3    0    0 -0.51139191467E+02  0.24196313929E+02  0.21196655658E+02  0.60415037224E+02  0.00000000000E+00 0.  1.
        -11    1    3    3    0    0 -0.66307693425E+02  0.19288273877E+03  0.78914202649E+02  0.21869593618E+03  0.00000000000E+00 0. -1.
          4    1    6    6  502    0  0.86808146180E+02  0.48821257378E+02  0.10804262778E+03  0.14694345455E+03  0.00000000000E+00 0. -1.
          1    1    5    5  503    0 -0.13584015488E+03 -0.17517522212E+03 -0.84938936146E+02  0.23738898247E+03  0.00000000000E+00 0. -1.
         -2    1    5    5    0  503 -0.80939599724E+02 -0.21610514113E+03 -0.99911552176E+02  0.25146564195E+03  0.00000000000E+00 0.  1.
         -3    1    6    6    0  502  0.24741849332E+03  0.12538005318E+03  0.14140691562E+03  0.31133901837E+03  0.00000000000E+00 0.  1.
<mgrwt>
<rscale>  0 0.12151358E+04</rscale>
<asrwt>0</asrwt>
<pdfrwt beam="1">  1        1 0.10699677E+00 0.12151358E+04</pdfrwt>
<pdfrwt beam="2">  1       -1 0.81656781E-01 0.12151358E+04</pdfrwt>
<totfact> 0.40631835E+01</totfact>
</mgrwt>
</event>
<event>
12    1  0.2502641E-008  0.2609648E+04  0.7818608E-02  0.8364931E-01
         -1   -1    0    0    0  501 -0.00000000000E+00  0.00000000000E+00  0.77026075897E+03  0.77026075897E+03  0.00000000000E+00 0. -1.
          1   -1    0    0  501    0  0.00000000000E+00 -0.00000000000E+00 -0.22103755488E+04  0.22103755488E+04  0.00000000000E+00 0.  1.
         23    2    1    2    0    0 -0.88859921240E+03 -0.72213128813E+03 -0.56345785691E+03  0.12793188006E+04  0.89942645280E+02 0.  0.
        254    2    1    2    0    0  0.88859921240E+03  0.72213128813E+03 -0.87665693294E+03  0.17013175072E+04  0.90270245633E+03 0.  0.
        -24    2    4    4    0    0  0.19950907182E+03  0.61628377790E+03 -0.11309295004E+03  0.66426548771E+03  0.94069432730E+02 0.  0.
         24    2    4    4    0    0  0.68909014058E+03  0.10584751023E+03 -0.76356398290E+03  0.10370520195E+04  0.79987610749E+02 0.  0.
         13    1    3    3    0    0 -0.30564002893E+02 -0.28031861649E+02 -0.40825762119E+02  0.58195243731E+02  0.00000000000E+00 0. -1.
        -13    1    3    3    0    0 -0.85803520951E+03 -0.69409942649E+03 -0.52263209479E+03  0.12211235569E+04  0.00000000000E+00 0.  1.
          4    1    6    6  502    0  0.17241025715E+02  0.51466422197E+01 -0.48455338424E+01  0.18633842654E+02  0.00000000000E+00 0. -1.
          3    1    5    5  503    0  0.68848750792E+02  0.98012258549E+02 -0.12927718324E+02  0.12047273224E+03  0.00000000000E+00 0. -1.
         -4    1    5    5    0  503  0.13066032103E+03  0.51827151935E+03 -0.10016523171E+03  0.54379275548E+03  0.00000000000E+00 0.  1.
         -3    1    6    6    0  502  0.67184911487E+03  0.10070086801E+03 -0.75871844906E+03  0.10184181768E+04  0.00000000000E+00 0.  1.
<mgrwt>
<rscale>  0 0.26096479E+04</rscale>
<asrwt>0</asrwt>
<pdfrwt beam="1">  1        1 0.34005777E+00 0.26096479E+04</pdfrwt>
<pdfrwt beam="2">  1       -1 0.11850166E+00 0.26096479E+04</pdfrwt>
<totfact> 0.12038150E+00</totfact>
</mgrwt>
</event>
<event>
11    1  0.2502641E-008  0.3006290E+04  0.7818608E-02  0.8241937E-01
         -2   -1    0    0    0  501 -0.00000000000E+00  0.00000000000E+00  0.62614473006E+03  0.62614473006E+03  0.00000000000E+00 0. -1.
          2   -1    0    0  501    0  0.00000000000E+00 -0.00000000000E+00 -0.36085033540E+04  0.36085033540E+04  0.00000000000E+00 0.  1.
         23    2    1    2    0    0 -0.10495985790E+01 -0.10946317497E+04 -0.24877198024E+04  0.27194663345E+04  0.92344789641E+02 0.  0.
        254    2    1    2    0    0  0.10495985790E+01  0.10946317497E+04 -0.49463882158E+03  0.15151817496E+04  0.92351957283E+03 0.  0.
         24    2    4    4    0    0  0.42371992522E+03  0.71515318760E+03 -0.27937787807E+03  0.88037983428E+03  0.77678807197E+02 0.  0.
         11    1    3    3    0    0  0.18371238201E+02 -0.54778490839E+03 -0.11405852739E+04  0.12654408621E+04  0.00000000000E+00 0. -1.
        -11    1    3    3    0    0 -0.19420836780E+02 -0.54684684131E+03 -0.13471345285E+04  0.14540254725E+04  0.00000000000E+00 0.  1.
          2    1    5    5  502    0  0.21665295115E+02  0.16997230805E+02  0.38369150466E+00  0.27539754658E+02  0.00000000000E+00 0. -1.
          3    1    4    4  503    0 -0.38857494334E+03  0.39032684165E+03 -0.22899554876E+03  0.59647673153E+03  0.00000000000E+00 0. -1.
         -4    1    4    4    0  503 -0.34095383300E+02 -0.10848279552E+02  0.13734605245E+02  0.38325183794E+02  0.00000000000E+00 0.  1.
         -1    1    5    5    0  502  0.40205463010E+03  0.69815595679E+03 -0.27976156957E+03  0.85284007962E+03  0.00000000000E+00 0.  1.
<mgrwt>
<rscale>  0 0.30062903E+04</rscale>
<asrwt>0</asrwt>
<pdfrwt beam="1">  1        2 0.55515437E+00 0.30062903E+04</pdfrwt>
<pdfrwt beam="2">  1       -2 0.96329957E-01 0.30062903E+04</pdfrwt>
<totfact> 0.52499617E-01</totfact>
</mgrwt>
</event>
<event>
12    1  0.2502641E-008  0.1776780E+04  0.7818608E-02  0.8718746E-01
         -1   -1    0    0    0  501 -0.00000000000E+00  0.00000000000E+00  0.71644392206E+03  0.71644392206E+03  0.00000000000E+00 0.  1.
          1   -1    0    0  501    0  0.00000000000E+00 -0.00000000000E+00 -0.11016030044E+04  0.11016030044E+04  0.00000000000E+00 0. -1.
         23    2    1    2    0    0 -0.23885041519E+03  0.49760279053E+02 -0.76342103164E+03  0.80669565578E+03  0.91763845223E+02 0.  0.
        254    2    1    2    0    0  0.23885041519E+03 -0.49760279053E+02  0.37826194931E+03  0.10113512707E+04  0.90566201432E+03 0.  0.
        -24    2    4    4    0    0 -0.97320266287E+02 -0.33459543783E+03 -0.79658306914E+02  0.37096807163E+03  0.99229648097E+02 0.  0.
         24    2    4    4    0    0  0.33617068148E+03  0.28483515877E+03  0.45792025622E+03  0.64038319905E+03  0.79106799981E+02 0.  0.
         13    1    3    3    0    0 -0.13118450233E+03  0.48695490901E+02 -0.30146731685E+03  0.33235999702E+03  0.00000000000E+00 0. -1.
        -13    1    3    3    0    0 -0.10766591286E+03  0.10647881515E+01 -0.46195371479E+03  0.47433565876E+03  0.00000000000E+00 0.  1.
          2    1    6    6  502    0  0.30825603533E+03  0.28489372275E+03  0.42947049002E+03  0.60052570168E+03  0.00000000000E+00 0. -1.
          1    1    5    5  503    0 -0.39553923190E+02 -0.28016694461E+03 -0.62459435187E+02  0.28975715822E+03  0.00000000000E+00 0. -1.
         -2    1    5    5    0  503 -0.57766343097E+02 -0.54428493213E+02 -0.17198871727E+02  0.81210913410E+02  0.00000000000E+00 0.  1.
         -1    1    6    6    0  502  0.27914646153E+02 -0.58563976617E-01  0.28449766201E+02  0.39857497368E+02  0.00000000000E+00 0.  1.
<mgrwt>
<rscale>  0 0.17767800E+04</rscale>
<asrwt>0</asrwt>
<pdfrwt beam="1">  1        1 0.16947738E+00 0.17767800E+04</pdfrwt>
<pdfrwt beam="2">  1       -1 0.11022214E+00 0.17767800E+04</pdfrwt>
<totfact> 0.90810316E+00</totfact>
</mgrwt>
</event>
<event>
12    1  0.2502641E-008  0.1154430E+04  0.7818608E-02  0.9153707E-01
          2   -1    0    0  501    0  0.00000000000E+00  0.00000000000E+00  0.13111800187E+04  0.13111800187E+04  0.00000000000E+00 0. -1.
         -2   -1    0    0    0  501 -0.00000000000E+00 -0.00000000000E+00 -0.25410472167E+03  0.25410472167E+03  0.00000000000E+00 0.  1.
         23    2    1    2    0    0  0.53678385263E+02 -0.13633295692E+02  0.48397201096E+03  0.49376898756E+03  0.80694918576E+02 0.  0.
        254    2    1    2    0    0 -0.53678385263E+02  0.13633295692E+02  0.57310328608E+03  0.10715157528E+04  0.90367659936E+03 0.  0.
        -24    2    4    4    0    0 -0.94010861187E+02 -0.35378547156E+03 -0.49760034654E+01  0.38056101620E+03  0.10392172310E+03 0.  0.
         24    2    4    4    0    0  0.40332475923E+02  0.36741876725E+03  0.57807928955E+03  0.69095473662E+03  0.81360456653E+02 0.  0.
         11    1    3    3    0    0  0.30926041894E+02 -0.33712689835E+02  0.11826706512E+03  0.12680719307E+03  0.00000000000E+00 0.  1.
        -11    1    3    3    0    0  0.22752343369E+02  0.20079394142E+02  0.36570494585E+03  0.36696179449E+03  0.00000000000E+00 0. -1.
          2    1    6    6  502    0  0.36918967040E+02  0.18451587222E+03  0.36078574874E+03  0.40690966285E+03  0.00000000000E+00 0. -1.
          3    1    5    5  503    0 -0.10520031220E+03 -0.35392804724E+03 -0.63511382342E+01  0.36928648129E+03  0.00000000000E+00 0. -1.
         -2    1    5    5    0  503  0.11189451012E+02  0.14257567624E+00  0.13751347688E+01  0.11274534908E+02  0.00000000000E+00 0.  1.
         -1    1    6    6    0  502  0.34135088830E+01  0.18290289503E+03  0.21729354081E+03  0.28404507377E+03  0.00000000000E+00 0.  1.
<mgrwt>
<rscale>  0 0.11544298E+04</rscale>
<asrwt>0</asrwt>
<pdfrwt beam="1">  1        2 0.20172000E+00 0.11544298E+04</pdfrwt>
<pdfrwt beam="2">  1       -2 0.39093035E-01 0.11544298E+04</pdfrwt>
<totfact> 0.99613942E+01</totfact>
</mgrwt>
</event>
<event>
12    1  0.2502641E-008  0.1163431E+04  0.7818608E-02  0.9145481E-01
         -2   -1    0    0    0  501 -0.00000000000E+00  0.00000000000E+00  0.37858950227E+03  0.37858950227E+03  0.00000000000E+00 0.  1.
          2   -1    0    0  501    0  0.00000000000E+00 -0.00000000000E+00 -0.89382579946E+03  0.89382579946E+03  0.00000000000E+00 0. -1.
         23    2    1    2    0    0  0.97334696118E+02  0.12299671689E+02 -0.30625340655E+03  0.33491472435E+03  0.93548910069E+02 0.  0.
        254    2    1    2    0    0 -0.97334696118E+02 -0.12299671689E+02 -0.20898289064E+03  0.93750057738E+03  0.90862982508E+03 0.  0.
        -24    2    4    4    0    0 -0.47421280343E+03 -0.14758927326E+03 -0.12079546033E+03  0.51958958108E+03  0.93388505764E+02 0.  0.
         24    2    4    4    0    0  0.37687810732E+03  0.13528960157E+03 -0.88187430310E+02  0.41791099630E+03  0.80821988942E+02 0.  0.
         11    1    3    3    0    0  0.96815228771E+02 -0.18011180231E+02 -0.18110628928E+03  0.20614819706E+03  0.00000000000E+00 0. -1.
        -11    1    3    3    0    0  0.51946734702E+00  0.30310851920E+02 -0.12514711727E+03  0.12876652729E+03  0.00000000000E+00 0.  1.
          2    1    6    6  502    0  0.37641982981E+03  0.13984738987E+03 -0.81405177350E+02  0.40972671822E+03  0.00000000000E+00 0. -1.
          1    1    5    5  503    0 -0.39825711107E+03 -0.12466467710E+03 -0.64409504717E+02  0.42225418001E+03  0.00000000000E+00 0. -1.
         -2    1    5    5    0  503 -0.75955692359E+02 -0.22924596160E+02 -0.56385955617E+02  0.97335401071E+02  0.00000000000E+00 0.  1.
         -1    1    6    6    0  502  0.45827750777E+00 -0.45577882973E+01 -0.67822529604E+01  0.81842780779E+01  0.00000000000E+00 0.  1.
<mgrwt>
<rscale>  0 0.11634312E+04</rscale>
<asrwt>0</asrwt>
<pdfrwt beam="1">  1        2 0.13751166E+00 0.11634312E+04</pdfrwt>
<pdfrwt beam="2">  1       -2 0.58244540E-01 0.11634312E+04</pdfrwt>
<totfact> 0.80757847E+01</totfact>
</mgrwt>
</event>
<event>
12    1  0.2502641E-008  0.2024405E+04  0.7818608E-02  0.8595295E-01
          2   -1    0    0  501    0  0.00000000000E+00  0.00000000000E+00  0.32453313854E+04  0.32453313854E+04  0.00000000000E+00 0. -1.
         -2   -1    0    0    0  501 -0.00000000000E+00 -0.00000000000E+00 -0.31570082876E+03  0.31570082876E+03  0.00000000000E+00 0.  1.
         23    2    1    2    0    0  0.12147453366E+03 -0.79418027613E+03  0.13743878708E+04  0.15944313630E+04  0.88266519575E+02 0.  0.
        254    2    1    2    0    0 -0.12147453366E+03  0.79418027613E+03  0.15552426858E+04  0.19666008512E+04  0.89624813682E+03 0.  0.
        -24    2    4    4    0    0  0.31354811938E+03  0.84887764676E+02  0.27166224852E+03  0.43466008509E+03  0.98033956057E+02 0.  0.
         24    2    4    4    0    0 -0.43502265304E+03  0.70929251145E+03  0.12835804373E+04  0.15319407661E+04  0.83205747042E+02 0.  0.
         11    1    3    3    0    0  0.53736037876E+02 -0.52365608443E+03  0.83189040728E+03  0.98445157639E+03  0.00000000000E+00 0.  1.
        -11    1    3    3    0    0  0.67738495779E+02 -0.27052419170E+03  0.54249746351E+03  0.60997978657E+03  0.00000000000E+00 0. -1.
          4    1    6    6  502    0 -0.13036294280E+03  0.16496899676E+03  0.37324558194E+03  0.42839413066E+03  0.00000000000E+00 0. -1.
          1    1    5    5  503    0  0.23832315240E+03  0.10256974527E+03  0.23074785281E+03  0.34722190195E+03  0.00000000000E+00 0. -1.
         -2    1    5    5    0  503  0.75224966980E+02 -0.17681980598E+02  0.40914395717E+02  0.87438183146E+02  0.00000000000E+00 0.  1.
         -3    1    6    6    0  502 -0.30465971024E+03  0.54432351469E+03  0.91033485536E+03  0.11035466354E+04  0.00000000000E+00 0.  1.
<mgrwt>
<rscale>  0 0.20244049E+04</rscale>
<asrwt>0</asrwt>
<pdfrwt beam="1">  1        2 0.49928173E+00 0.20244049E+04</pdfrwt>
<pdfrwt beam="2">  1       -2 0.48569361E-01 0.20244049E+04</pdfrwt>
<totfact> 0.45239910E+00</totfact>
</mgrwt>
</event>
<event>
12    1  0.2502641E-008  0.2837521E+04  0.7818608E-02  0.8291713E-01
         -2   -1    0    0    0  501 -0.00000000000E+00  0.00000000000E+00  0.82414037738E+03  0.82414037738E+03  0.00000000000E+00 0.  1.
          2   -1    0    0  501    0  0.00000000000E+00 -0.00000000000E+00 -0.24424003860E+04  0.24424003860E+04  0.00000000000E+00 0. -1.
         23    2    1    2    0    0  0.12654329419E+04  0.13340619644E+03 -0.63068024077E+03  0.14232289660E+04  0.93302626051E+02 0.  0.
        254    2    1    2    0    0 -0.12654329419E+04 -0.13340619644E+03 -0.98757976785E+03  0.18433117974E+04  0.89630733613E+03 0.  0.
        -24    2    4    4    0    0 -0.31805740915E+03  0.36037310092E+03 -0.31335117830E+03  0.57747079592E+03  0.65224779165E+02 0.  0.
         24    2    4    4    0    0 -0.94737553272E+03 -0.49377929736E+03 -0.67422858955E+03  0.12658410014E+04  0.80192614830E+02 0.  0.
         13    1    3    3    0    0  0.56820431368E+03  0.34726631590E+02 -0.32562238143E+03  0.65581401046E+03  0.00000000000E+00 0. -1.
        -13    1    3    3    0    0  0.69722862819E+03  0.98679564854E+02 -0.30505785933E+03  0.76741495557E+03  0.00000000000E+00 0.  1.
          4    1    6    6  502    0 -0.94652680398E+03 -0.49584682737E+03 -0.67047634515E+03  0.12614735813E+04  0.00000000000E+00 0. -1.
          1    1    5    5  503    0 -0.27004072692E+03  0.32998640511E+03 -0.25931666383E+03  0.49905726514E+03  0.00000000000E+00 0. -1.
         -2    1    5    5    0  503 -0.48016682234E+02  0.30386695809E+02 -0.54034514477E+02  0.78413530782E+02  0.00000000000E+00 0.  1.
         -3    1    6    6    0  502 -0.84872873628E+00  0.20675300129E+01 -0.37522443949E+01  0.43674201562E+01  0.00000000000E+00 0.  1.
<mgrwt>
<rscale>  0 0.28375206E+04</rscale>
<asrwt>0</asrwt>
<pdfrwt beam="1">  1        2 0.37575391E+00 0.28375206E+04</pdfrwt>
<pdfrwt beam="2">  1       -2 0.12679083E+00 0.28375206E+04</pdfrwt>
<totfact> 0.15080845E+00</totfact>
</mgrwt>
</event>
<event>
11    1  0.2502641E-008  0.1368559E+04  0.7818608E-02  0.8976897E-01
         -1   -1    0    0    0  501 -0.00000000000E+00  0.00000000000E+00  0.34955970045E+03  0.34955970045E+03  0.00000000000E+00 0.  1.
          1   -1    0    0  501    0  0.00000000000E+00 -0.00000000000E+00 -0.13395101632E+04  0.13395101632E+04  0.00000000000E+00 0. -1.
         23    2    1    2    0    0 -0.14990868340E+03 -0.33474713878E+03 -0.18405550167E+03  0.42738773813E+03  0.11939677858E+03 0.  0.
        254    2    1    2    0    0  0.14990868340E+03  0.33474713878E+03 -0.80589496109E+03  0.12616821255E+04  0.89880300250E+03 0.  0.
         24    2    4    4    0    0  0.37333584547E+02  0.43673294080E+03 -0.28050359674E+02  0.44653760990E+03  0.80495690990E+02 0.  0.
         11    1    3    3    0    0 -0.15370236877E+03 -0.29984809850E+03 -0.19660033847E+03  0.39010895071E+03  0.00000000000E+00 0. -1.
        -11    1    3    3    0    0  0.37936853768E+01 -0.34899040276E+02  0.12544836804E+02  0.37278787418E+02  0.00000000000E+00 0.  1.
          2    1    5    5  502    0  0.24199923596E+02  0.36943100785E+03 -0.52100707293E+02  0.37387081935E+03  0.00000000000E+00 0. -1.
          3    1    4    4  503    0  0.61032330541E+02 -0.15691963052E+03 -0.54566297649E+03  0.57104885931E+03  0.00000000000E+00 0. -1.
         -4    1    4    4    0  503  0.51542768309E+02  0.54933828502E+02 -0.23218162493E+03  0.24409565632E+03  0.00000000000E+00 0.  1.
         -1    1    5    5    0  502  0.13133660951E+02  0.67301932949E+02  0.24050347618E+02  0.72666790552E+02  0.00000000000E+00 0.  1.
<mgrwt>
<rscale>  0 0.13685595E+04</rscale>
<asrwt>0</asrwt>
<pdfrwt beam="1">  1        1 0.20607848E+00 0.13685595E+04</pdfrwt>
<pdfrwt beam="2">  1       -1 0.53778416E-01 0.13685595E+04</pdfrwt>
<totfact> 0.28913869E+01</totfact>
</mgrwt>
</event>
<event>
11    1  0.2502641E-008  0.4499207E+04  0.7818608E-02  0.7910776E-01
         -2   -1    0    0    0  501 -0.00000000000E+00  0.00000000000E+00  0.23445596365E+04  0.23445596365E+04  0.00000000000E+00 0.  1.
          2   -1    0    0  501    0  0.00000000000E+00 -0.00000000000E+00 -0.21584928975E+04  0.21584928975E+04  0.00000000000E+00 0. -1.
         23    2    1    2    0    0 -0.17522968063E+04 -0.15469211700E+03 -0.11582159957E+04  0.21081098178E+04  0.90492885977E+02 0.  0.
        254    2    1    2    0    0  0.17522968063E+04  0.15469211700E+03  0.13442827346E+04  0.23949427163E+04  0.91333498506E+03 0.  0.
         24    2    4    4    0    0  0.10537899771E+04  0.91008526951E+02  0.39737609567E+03  0.11326736738E+04  0.79284438950E+02 0.  0.
         13    1    3    3    0    0 -0.67072385506E+03 -0.31199572633E+02 -0.40141799483E+03  0.78229170368E+03  0.00000000000E+00 0.  1.
        -13    1    3    3    0    0 -0.10815729513E+04 -0.12349254437E+03 -0.75679800089E+03  0.13258181141E+04  0.00000000000E+00 0. -1.
          2    1    5    5  502    0  0.64526430851E+02 -0.32298869633E+01  0.69245124554E+01  0.64977236944E+02  0.00000000000E+00 0. -1.
          3    1    4    4  503    0  0.45970338020E+03 -0.26671070715E+02  0.25857677392E+03  0.52811030267E+03  0.00000000000E+00 0. -1.
         -4    1    4    4    0  503  0.23880344907E+03  0.90354660767E+02  0.68832986506E+03  0.73415873974E+03  0.00000000000E+00 0.  1.
         -1    1    5    5    0  502  0.98926354622E+03  0.94238413914E+02  0.39045158321E+03  0.10676964369E+04  0.00000000000E+00 0.  1.
<mgrwt>
<rscale>  0 0.44992067E+04</rscale>
<asrwt>0</asrwt>
<pdfrwt beam="1">  1        2 0.33207583E+00 0.44992067E+04</pdfrwt>
<pdfrwt beam="2">  1       -2 0.36070148E+00 0.44992067E+04</pdfrwt>
<totfact> 0.54954526E-02</totfact>
</mgrwt>
</event>
<event>
12    1  0.2502641E-008  0.1367083E+04  0.7818608E-02  0.8977996E-01
          2   -1    0    0  501    0  0.00000000000E+00  0.00000000000E+00  0.14657603470E+04  0.14657603470E+04  0.00000000000E+00 0. -1.
         -2   -1    0    0    0  501 -0.00000000000E+00 -0.00000000000E+00 -0.31876226800E+03  0.31876226800E+03  0.00000000000E+00 0.  1.
         23    2    1    2    0    0  0.56714599299E+02 -0.64435120023E+02  0.83381121312E+03  0.84300834887E+03  0.89741332072E+02 0.  0.
        254    2    1    2    0    0 -0.56714599299E+02  0.64435120023E+02  0.31318686586E+03  0.94151426610E+03  0.88373902814E+03 0.  0.
        -24    2    4    4    0    0 -0.85030829600E+02 -0.39273531782E+03  0.80614141836E+02  0.42206148543E+03  0.10082651325E+03 0.  0.
         24    2    4    4    0    0  0.28316230301E+02  0.45717043784E+03  0.23257272402E+03  0.51945278067E+03  0.77035714117E+02 0.  0.
         11    1    3    3    0    0 -0.12021899460E+02  0.22811515113E+01  0.32671556228E+03  0.32694462582E+03  0.00000000000E+00 0.  1.
        -11    1    3    3    0    0  0.68736498758E+02 -0.66716271534E+02  0.50709565084E+03  0.51606372305E+03  0.00000000000E+00 0. -1.
          2    1    6    6  502    0 -0.12457836777E+02  0.15197139500E+03  0.45316437145E+02  0.15907256857E+03  0.00000000000E+00 0. -1.
          1    1    5    5  503    0 -0.14385570176E+01 -0.16489265388E+03  0.69985403632E+02  0.17913574035E+03  0.00000000000E+00 0. -1.
         -2    1    5    5    0  503 -0.83592272582E+02 -0.22784266394E+03  0.10628738205E+02  0.24292574508E+03  0.00000000000E+00 0.  1.
         -1    1    6    6    0  502  0.40774067078E+02  0.30519904284E+03  0.18725628688E+03  0.36038021210E+03  0.00000000000E+00 0.  1.
<mgrwt>
<rscale>  0 0.13670832E+04</rscale>
<asrwt>0</asrwt>
<pdfrwt beam="1">  1        2 0.22550159E+00 0.13670832E+04</pdfrwt>
<pdfrwt beam="2">  1       -2 0.49040349E-01 0.13670832E+04</pdfrwt>
<totfact> 0.50967019E+01</totfact>
</mgrwt>
</event>
<event>
11    1  0.2502641E-008  0.3233389E+04  0.7818608E-02  0.8180054E-01
          2   -1    0    0  501    0  0.00000000000E+00  0.00000000000E+00  0.25301108012E+04  0.25301108012E+04  0.00000000000E+00 0. -1.
         -2   -1    0    0    0  501 -0.00000000000E+00 -0.00000000000E+00 -0.10330382732E+04  0.10330382732E+04  0.00000000000E+00 0.  1.
         23    2    1    2    0    0  0.69933162993E+02  0.50133000983E+03 -0.85376802505E+03  0.99700701429E+03  0.94237571659E+02 0.  0.
        254    2    1    2    0    0 -0.69933162993E+02 -0.50133000983E+03  0.23508405530E+04  0.25661420600E+04  0.89577415713E+03 0.  0.
         24    2    4    4    0    0  0.35907585143E+03 -0.20503641952E+03  0.10880942270E+04  0.11666339186E+04  0.78168104963E+02 0.  0.
         13    1    3    3    0    0  0.53386001216E+02  0.48871304790E+03 -0.79569700969E+03  0.93532039406E+03  0.00000000000E+00 0.  1.
        -13    1    3    3    0    0  0.16547161776E+02  0.12616961930E+02 -0.58071015352E+02  0.61686620228E+02  0.00000000000E+00 0. -1.
          4    1    5    5  502    0  0.32564899440E+03 -0.17369712008E+03  0.89367630763E+03  0.96688949725E+03  0.00000000000E+00 0. -1.
          3    1    4    4  503    0 -0.36219433083E+03 -0.36023703332E+03  0.10607281512E+04  0.11773273394E+04  0.00000000000E+00 0. -1.
         -4    1    4    4    0  503 -0.66814683592E+02  0.63943443022E+02  0.20201817477E+03  0.22218080202E+03  0.00000000000E+00 0.  1.
         -3    1    5    5    0  502  0.33426857029E+02 -0.31339299447E+02  0.19441791941E+03  0.19974442132E+03  0.00000000000E+00 0.  1.
<mgrwt>
<rscale>  0 0.32333891E+04</rscale>
<asrwt>0</asrwt>
<pdfrwt beam="1">  1        2 0.38924781E+00 0.32333891E+04</pdfrwt>
<pdfrwt beam="2">  1       -2 0.15892897E+00 0.32333891E+04</pdfrwt>
<totfact> 0.72016264E-01</totfact>
</mgrwt>
</event>
<event>
12    1  0.2502641E-008  0.2233583E+04  0.7818608E-02  0.8504579E-01
          1   -1    0    0  501    0  0.00000000000E+00  0.00000000000E+00  0.12259274240E+04  0.12259274240E+04  0.00000000000E+00 0. -1.
         -1   -1    0    0    0  501 -0.00000000000E+00 -0.00000000000E+00 -0.10173716288E+04  0.10173716288E+04  0.00000000000E+00 0.  1.
         23    2    1    2    0    0 -0.21673363092E+03  0.83946952979E+03  0.43394270819E+03  0.97388952469E+03  0.92043327255E+02 0.  0.
        254    2    1    2    0    0  0.21673363092E+03 -0.83946952979E+03 -0.22538691301E+03  0.12694095281E+04  0.89939909457E+03 0.  0.
        -24    2    4    4    0    0 -0.33741192807E+03 -0.36720199732E+03 -0.18685499565E+03  0.53590764836E+03  0.59984182324E+02 0.  0.
         24    2    4    4    0    0  0.55414555900E+03 -0.47226753247E+03 -0.38531917368E+02  0.73350187976E+03  0.80164681643E+02 0.  0.
         11    1    3    3    0    0 -0.21794466748E+03  0.79151664980E+03  0.39025768278E+03  0.90901020015E+03  0.00000000000E+00 0. -1.
        -11    1    3    3    0    0  0.12110365597E+01  0.47952879986E+02  0.43685025403E+02  0.64879324542E+02  0.00000000000E+00 0.  1.
          4    1    6    6  502    0  0.77238616778E+02 -0.86862135095E+02 -0.30945341434E+02  0.12028486435E+03  0.00000000000E+00 0. -1.
          3    1    5    5  503    0 -0.58833354924E+02 -0.50876738103E+02 -0.85848707328E+01  0.78252834691E+02  0.00000000000E+00 0. -1.
         -4    1    5    5    0  503 -0.27857857315E+03 -0.31632525922E+03 -0.17827012491E+03  0.45765481367E+03  0.00000000000E+00 0.  1.
         -3    1    6    6    0  502  0.47690694222E+03 -0.38540539737E+03 -0.75865759344E+01  0.61321701541E+03  0.00000000000E+00 0.  1.
<mgrwt>
<rscale>  0 0.22335835E+04</rscale>
<asrwt>0</asrwt>
<pdfrwt beam="1">  1        1 0.18860422E+00 0.22335835E+04</pdfrwt>
<pdfrwt beam="2">  1       -1 0.15651871E+00 0.22335835E+04</pdfrwt>
<totfact> 0.28893323E+00</totfact>
</mgrwt>
</event>
<event>
11    1  0.2502641E-008  0.2147499E+04  0.7818608E-02  0.8540604E-01
         -1   -1    0    0    0  501 -0.00000000000E+00  0.00000000000E+00  0.66734423834E+03  0.66734423834E+03  0.00000000000E+00 0.  1.
          1   -1    0    0  501    0  0.00000000000E+00 -0.00000000000E+00 -0.17276504843E+04  0.17276504843E+04  0.00000000000E+00 0. -1.
         23    2    1    2    0    0  0.36959622931E+03  0.15841141376E+02  0.45113379981E+03  0.59040722934E+03  0.90590709460E+02 0.  0.
        254    2    1    2    0    0 -0.36959622931E+03 -0.15841141376E+02 -0.15114400458E+04  0.18045874933E+04  0.91391066006E+03 0.  0.
         24    2    4    4    0    0  0.39296895321E+02 -0.35187056391E+03 -0.32445099885E+03  0.48703962185E+03  0.81129543790E+02 0.  0.
         13    1    3    3    0    0  0.37064827863E+03  0.18029370463E+02  0.45418624111E+03  0.58650690215E+03  0.00000000000E+00 0.  1.
        -13    1    3    3    0    0 -0.10520493170E+01 -0.21882290871E+01 -0.30524413010E+01  0.39003271913E+01  0.00000000000E+00 0. -1.
          2    1    5    5  502    0  0.52627465308E+02 -0.18435397375E+03 -0.20620309676E+03  0.28155950500E+03  0.00000000000E+00 0. -1.
          1    1    4    4  503    0 -0.31967510397E+03  0.14875886806E+03 -0.61225915304E+03  0.70652858640E+03  0.00000000000E+00 0. -1.
         -2    1    4    4    0  503 -0.89218020664E+02  0.18727055447E+03 -0.57472989390E+03  0.61101928507E+03  0.00000000000E+00 0.  1.
         -1    1    5    5    0  502 -0.13330569988E+02 -0.16751659015E+03 -0.11824790209E+03  0.20548011685E+03  0.00000000000E+00 0.  1.
<mgrwt>
<rscale>  0 0.21474986E+04</rscale>
<asrwt>0</asrwt>
<pdfrwt beam="1">  1        1 0.26579238E+00 0.21474986E+04</pdfrwt>
<pdfrwt beam="2">  1       -1 0.10266835E+00 0.21474986E+04</pdfrwt>
<totfact> 0.37485892E+00</totfact>
</mgrwt>
</event>
<event>
12    1  0.2502641E-008  0.2273331E+04  0.7818608E-02  0.8488511E-01
         -2   -1    0    0    0  501 -0.00000000000E+00  0.00000000000E+00  0.27195191229E+04  0.27195191229E+04  0.00000000000E+00 0.  1.
          2   -1    0    0  501    0  0.00000000000E+00 -0.00000000000E+00 -0.47508702761E+03  0.47508702761E+03  0.00000000000E+00 0. -1.
         23    2    1    2    0    0 -0.48680160922E+02  0.78465123797E+03  0.18195773320E+03  0.81200115231E+03  0.90498239507E+02 0.  0.
        254    2    1    2    0    0  0.48680160922E+02 -0.78465123797E+03  0.20624743620E+04  0.23826049982E+04  0.89719493970E+03 0.  0.
        -24    2    4    4    0    0  0.94656234792E+02 -0.91430675857E+03  0.20143245004E+04  0.22159861548E+04  0.90414567116E+02 0.  0.
         24    2    4    4    0    0 -0.45976073870E+02  0.12965552059E+03  0.48149861670E+02  0.16661884335E+03  0.80740797560E+02 0.  0.
         13    1    3    3    0    0 -0.68723384474E+02  0.46776872982E+03  0.12926567829E+03  0.49014294216E+03  0.00000000000E+00 0. -1.
        -13    1    3    3    0    0  0.20043223552E+02  0.31688250816E+03  0.52692054909E+02  0.32185821014E+03  0.00000000000E+00 0.  1.
          4    1    6    6  502    0 -0.56414850955E+02  0.43677420586E+02  0.33340319290E+02  0.78752329284E+02  0.00000000000E+00 0. -1.
          1    1    5    5  503    0  0.11289024454E+02 -0.22443474288E+02  0.32072498374E+02  0.40740603373E+02  0.00000000000E+00 0. -1.
         -2    1    5    5    0  503  0.83367210338E+02 -0.89186328428E+03  0.19822520020E+04  0.21752455514E+04  0.00000000000E+00 0.  1.
         -3    1    6    6    0  502  0.10438777086E+02  0.85978100009E+02  0.14809542380E+02  0.87866514064E+02  0.00000000000E+00 0.  1.
<mgrwt>
<rscale>  0 0.22733308E+04</rscale>
<asrwt>0</asrwt>
<pdfrwt beam="1">  1        2 0.73090313E-01 0.22733308E+04</pdfrwt>
<pdfrwt beam="2">  1       -2 0.41838755E+00 0.22733308E+04</pdfrwt>
<totfact> 0.33390888E-01</totfact>
</mgrwt>
</event>
<event>
11    1  0.2502641E-008  0.1443600E+04  0.7818608E-02  0.8922850E-01
         -2   -1    0    0    0  501 -0.00000000000E+00  0.00000000000E+00  0.32824165570E+03  0.32824165570E+03  0.00000000000E+00 0.  1.
          2   -1    0    0  501    0  0.00000000000E+00 -0.00000000000E+00 -0.15872302484E+04  0.15872302484E+04  0.00000000000E+00 0. -1.
         23    2    1    2    0    0 -0.28600278623E+03  0.61654511238E+02  0.40941939023E+02  0.30920919463E+03  0.91297377756E+02 0.  0.
        254    2    1    2    0    0  0.28600278623E+03 -0.61654511238E+02 -0.12999305317E+04  0.16062627095E+04  0.89702933732E+03 0.  0.
         24    2    4    4    0    0  0.32701352513E+03  0.27165037935E+01 -0.22776111573E+03  0.40664661632E+03  0.80877189108E+02 0.  0.
         11    1    3    3    0    0 -0.27667412615E+03  0.35775378089E+02  0.37236501668E+02  0.28145160652E+03  0.00000000000E+00 0.  1.
        -11    1    3    3    0    0 -0.93286600788E+01  0.25879133149E+02  0.37054373549E+01  0.27757588104E+02  0.00000000000E+00 0. -1.
          4    1    5    5  502    0  0.28007631070E+03  0.28240858385E+02 -0.17444412421E+03  0.33116617939E+03  0.00000000000E+00 0. -1.
          3    1    4    4  503    0 -0.16852775792E+03  0.10462361980E+03 -0.13771782622E+03  0.24148272540E+03  0.00000000000E+00 0. -1.
         -4    1    4    4    0  503  0.12751701902E+03 -0.16899463483E+03 -0.93445158977E+03  0.95813336774E+03  0.00000000000E+00 0.  1.
         -3    1    5    5    0  502  0.46937214430E+02 -0.25524354591E+02 -0.53316991512E+02  0.75480436933E+02  0.00000000000E+00 0.  1.
<mgrwt>
<rscale>  0 0.14435998E+04</rscale>
<asrwt>0</asrwt>
<pdfrwt beam="1">  1        2 0.24418927E+00 0.14435998E+04</pdfrwt>
<pdfrwt beam="2">  1       -2 0.50498716E-01 0.14435998E+04</pdfrwt>
<totfact> 0.40781398E+01</totfact>
</mgrwt>
</event>
<event>
12    1  0.2502641E-008  0.2971977E+04  0.7818608E-02  0.8251779E-01
          1   -1    0    0  501    0  0.00000000000E+00  0.00000000000E+00  0.12151521679E+04  0.12151521679E+04  0.00000000000E+00 0. -1.
         -1   -1    0    0    0  501 -0.00000000000E+00 -0.00000000000E+00 -0.18171890537E+04  0.18171890537E+04  0.00000000000E+00 0.  1.
         23    2    1    2    0    0 -0.11563116900E+03 -0.13158463615E+04  0.43847968073E+01  0.13238458548E+04  0.87899980468E+02 0.  0.
        254    2    1    2    0    0  0.11563116900E+03  0.13158463615E+04 -0.60642168252E+03  0.17084953668E+04  0.89799050495E+03 0.  0.
        -24    2    4    4    0    0 -0.36737273513E+03  0.73723658657E+03 -0.21946650987E+03  0.85733514980E+03  0.91528678722E+02 0.  0.
         24    2    4    4    0    0  0.48300390413E+03  0.57860977492E+03 -0.38695517265E+03  0.85116021698E+03  0.81592685268E+02 0.  0.
         13    1    3    3    0    0  0.32397402814E+00 -0.69164533547E+02 -0.18417645687E+02  0.71575465996E+02  0.00000000000E+00 0.  1.
        -13    1    3    3    0    0 -0.11595514303E+03 -0.12466818279E+04  0.22802442495E+02  0.12522703888E+04  0.00000000000E+00 0. -1.
          2    1    6    6  502    0  0.42712958973E+02  0.21420869787E+02 -0.28993357258E+02  0.55891549377E+02  0.00000000000E+00 0. -1.
          1    1    5    5  503    0 -0.57726927945E+02  0.19861628648E+03 -0.69610663209E+02  0.21823490074E+03  0.00000000000E+00 0. -1.
         -2    1    5    5    0  503 -0.30964580719E+03  0.53862030009E+03 -0.14985584666E+03  0.63910024906E+03  0.00000000000E+00 0.  1.
         -1    1    6    6    0  502  0.44029094516E+03  0.55718890514E+03 -0.35796181539E+03  0.79526866760E+03  0.00000000000E+00 0.  1.
<mgrwt>
<rscale>  0 0.29719766E+04</rscale>
<asrwt>0</asrwt>
<pdfrwt beam="1">  1        1 0.18694649E+00 0.29719766E+04</pdfrwt>
<pdfrwt beam="2">  1       -1 0.27956754E+00 0.29719766E+04</pdfrwt>
<totfact> 0.39803326E-01</totfact>
</mgrwt>
</event>
<event>
12    1  0.3960730E-008  0.2379242E+04  0.7818608E-02  0.8447316E-01
          1   -1    0    0  501    0  0.00000000000E+00  0.00000000000E+00  0.26626863245E+04  0.26626863245E+04  0.00000000000E+00 0. -1.
         -1   -1    0    0    0  501 -0.00000000000E+00 -0.00000000000E+00 -0.53149282381E+03  0.53149282381E+03  0.00000000000E+00 0.  1.
         23    2    1    2    0    0 -0.45210275103E+03  0.44085941744E+03 -0.15230664418E+03  0.65586018909E+03  0.90561307090E+02 0.  0.
        254    2    1    2    0    0  0.45210275103E+03 -0.44085941744E+03  0.22835001448E+04  0.25383189592E+04  0.91100839935E+03 0.  0.
        -24    2    4    4    0    0  0.86600793736E+02 -0.38195673864E+03  0.20586633277E+04  0.20977755520E+04  0.95796252706E+02 0.  0.
         24    2    4    4    0    0  0.36550195729E+03 -0.58902678806E+02  0.22483681714E+03  0.44054340721E+03  0.80409532633E+02 0.  0.
         13    1    3    3    0    0 -0.67953305456E+02  0.34179325326E+02  0.18705663568E-01  0.76064961395E+02  0.00000000000E+00 0. -1.
        -13    1    3    3    0    0 -0.38414944557E+03  0.40668009212E+03 -0.15232534984E+03  0.57979522770E+03  0.00000000000E+00 0.  1.
          2    1    6    6  502    0  0.33736163487E+03 -0.31216737658E+02  0.19370064228E+03  0.39026567389E+03  0.00000000000E+00 0. -1.
          1    1    5    5  503    0  0.89903163025E+02 -0.36247540739E+03  0.20212835929E+04  0.20554946759E+04  0.00000000000E+00 0. -1.
         -2    1    5    5    0  503 -0.33023692882E+01 -0.19481331245E+02  0.37379734819E+02  0.42280876116E+02  0.00000000000E+00 0.  1.
         -1    1    6    6    0  502  0.28140322418E+02 -0.27685941148E+02  0.31136174859E+02  0.50277733321E+02  0.00000000000E+00 0.  1.
<mgrwt>
<rscale>  0 0.23792425E+04</rscale>
<asrwt>0</asrwt>
<pdfrwt beam="1">  1        1 0.40964404E+00 0.23792425E+04</pdfrwt>
<pdfrwt beam="2">  1       -1 0.81768128E-01 0.23792425E+04</pdfrwt>
<totfact> 0.13932523E+00</totfact>
</mgrwt>
</event>
<event>
12    1  0.2502641E-008  0.2015844E+04  0.7818608E-02  0.8599249E-01
          1   -1    0    0  501    0  0.00000000000E+00  0.00000000000E+00  0.73731404540E+03  0.73731404540E+03  0.00000000000E+00 0. -1.
         -1   -1    0    0    0  501 -0.00000000000E+00 -0.00000000000E+00 -0.13778476948E+04  0.13778476948E+04  0.00000000000E+00 0.  1.
         23    2    1    2    0    0 -0.56699651721E+03  0.55100066588E+03 -0.43143132155E+03  0.90546923398E+03  0.93030984852E+02 0.  0.
        254    2    1    2    0    0  0.56699651721E+03 -0.55100066588E+03 -0.20910232788E+03  0.12096925063E+04  0.89137275695E+03 0.  0.
        -24    2    4    4    0    0  0.64914841459E+03 -0.72683669504E+03 -0.21155377323E+03  0.99961034349E+03  0.69141842753E+02 0.  0.
         24    2    4    4    0    0 -0.82151897379E+02  0.17583602916E+03  0.24514453450E+01  0.21008216276E+03  0.80381976426E+02 0.  0.
         13    1    3    3    0    0 -0.38026977588E+03  0.41287641720E+03 -0.33727773993E+03  0.65484983941E+03  0.00000000000E+00 0.  1.
        -13    1    3    3    0    0 -0.18672674133E+03  0.13812424869E+03 -0.94153581621E+02  0.25061939457E+03  0.00000000000E+00 0. -1.
          4    1    6    6  502    0 -0.74804268905E+02  0.17112024679E+03 -0.18219873633E+02  0.18764269584E+03  0.00000000000E+00 0. -1.
          3    1    5    5  503    0  0.50430859190E+03 -0.52856625915E+03 -0.13989712334E+03  0.74382837489E+03  0.00000000000E+00 0. -1.
         -4    1    5    5    0  503  0.14483982268E+03 -0.19827043589E+03 -0.71656649891E+02  0.25578196860E+03  0.00000000000E+00 0.  1.
         -3    1    6    6    0  502 -0.73476284738E+01  0.47157823724E+01  0.20671318978E+02  0.22439466925E+02  0.00000000000E+00 0.  1.
<mgrwt>
<rscale>  0 0.20158437E+04</rscale>
<asrwt>0</asrwt>
<pdfrwt beam="1">  1        1 0.11343293E+00 0.20158437E+04</pdfrwt>
<pdfrwt beam="2">  1       -1 0.21197657E+00 0.20158437E+04</pdfrwt>
<totfact> 0.29040212E+00</totfact>
</mgrwt>
</event>
<event>
11    1  0.2502641E-008  0.1806586E+04  0.7818608E-02  0.8702805E-01
         -2   -1    0    0    0  501 -0.00000000000E+00  0.00000000000E+00  0.56086086432E+03  0.56086086432E+03  0.00000000000E+00 0.  1.
          2   -1    0    0  501    0  0.00000000000E+00 -0.00000000000E+00 -0.14547962711E+04  0.14547962711E+04  0.00000000000E+00 0. -1.
         23    2    1    2    0    0 -0.34707872860E+02 -0.66149484330E+03 -0.18071575910E+03  0.69270382552E+03  0.91653369591E+02 0.  0.
        254    2    1    2    0    0  0.34707872860E+02  0.66149484330E+03 -0.71321964768E+03  0.13229533099E+04  0.89595933512E+03 0.  0.
         24    2    4    4    0    0  0.30927813692E+03 -0.44986154061E+02 -0.30175017368E+03  0.44175865217E+03  0.80130015672E+02 0.  0.
         13    1    3    3    0    0 -0.49378237183E+02 -0.26841738913E+03 -0.10323924611E+03  0.29179521420E+03  0.00000000000E+00 0. -1.
        -13    1    3    3    0    0  0.14670364323E+02 -0.39307745417E+03 -0.77476512993E+02  0.40090861132E+03  0.00000000000E+00 0.  1.
          2    1    5    5  502    0  0.17707908141E+02 -0.23532189783E+02 -0.19058449225E+02  0.35079316606E+02  0.00000000000E+00 0. -1.
          3    1    4    4  503    0 -0.54569889682E+02  0.32645804506E+03 -0.11092097815E+03  0.34907906187E+03  0.00000000000E+00 0. -1.
         -4    1    4    4    0  503 -0.22000037438E+03  0.38002295230E+03 -0.30054849584E+03  0.53211559586E+03  0.00000000000E+00 0.  1.
         -1    1    5    5    0  502  0.29157022878E+03 -0.21453964277E+02 -0.28269172446E+03  0.40667933556E+03  0.00000000000E+00 0.  1.
<mgrwt>
<rscale>  0 0.18065861E+04</rscale>
<asrwt>0</asrwt>
<pdfrwt beam="1">  1        2 0.22381481E+00 0.18065861E+04</pdfrwt>
<pdfrwt beam="2">  1       -2 0.86286288E-01 0.18065861E+04</pdfrwt>
<totfact> 0.14793455E+01</totfact>
</mgrwt>
</event>
<event>
11    1  0.2502641E-008  0.1171404E+04  0.7818608E-02  0.9138262E-01
         -2   -1    0    0    0  501 -0.00000000000E+00  0.00000000000E+00  0.22554677408E+04  0.22554677408E+04  0.00000000000E+00 0.  1.
          2   -1    0    0  501    0  0.00000000000E+00 -0.00000000000E+00 -0.15209554804E+03  0.15209554804E+03  0.00000000000E+00 0. -1.
         23    2    1    2    0    0  0.32760581277E+02  0.78759599206E+02  0.10594174926E+02  0.12838947480E+03  0.95369232695E+02 0.  0.
        254    2    1    2    0    0 -0.32760581277E+02 -0.78759599206E+02  0.20927780178E+04  0.22791738140E+04  0.89868632596E+03 0.  0.
         24    2    4    4    0    0 -0.23864542671E+03 -0.41174146840E+03  0.10233372921E+04  0.11314010921E+04  0.79790609617E+02 0.  0.
         11    1    3    3    0    0 -0.14115168144E+02  0.79094128835E+02  0.13288019122E+02  0.81435192884E+02  0.00000000000E+00 0. -1.
        -11    1    3    3    0    0  0.46875749421E+02 -0.33452962883E+00 -0.26938441952E+01  0.46954281918E+02  0.00000000000E+00 0.  1.
          4    1    5    5  502    0 -0.12765918440E+03 -0.22854504585E+03  0.46886934985E+03  0.53699922958E+03  0.00000000000E+00 0. -1.
          3    1    4    4  503    0  0.19806910100E+03  0.31340250997E+03  0.10628937631E+04  0.11256978518E+04  0.00000000000E+00 0. -1.
         -4    1    4    4    0  503  0.78157444317E+01  0.19579359226E+02  0.65469626663E+01  0.22074870076E+02  0.00000000000E+00 0.  1.
         -3    1    5    5    0  502 -0.11098624231E+03 -0.18319642255E+03  0.55446794224E+03  0.59440186254E+03  0.00000000000E+00 0.  1.
<mgrwt>
<rscale>  0 0.11714036E+04</rscale>
<asrwt>0</asrwt>
<pdfrwt beam="1">  1        2 0.23399317E-01 0.11714036E+04</pdfrwt>
<pdfrwt beam="2">  1       -2 0.34699501E+00 0.11714036E+04</pdfrwt>
<totfact> 0.38631246E+00</totfact>
</mgrwt>
</event>
<event>
12    1  0.2502641E-008  0.1428445E+04  0.7818608E-02  0.8933482E-01
          1   -1    0    0  501    0  0.00000000000E+00  0.00000000000E+00  0.12272627484E+04  0.12272627484E+04  0.00000000000E+00 0. -1.
         -1   -1    0    0    0  501 -0.00000000000E+00 -0.00000000000E+00 -0.41565145629E+03  0.41565145629E+03  0.00000000000E+00 0.  1.
         23    2    1    2    0    0  0.29877654333E+03  0.41240002159E+02  0.59519255872E+03  0.67331219487E+03  0.90149704297E+02 0.  0.
        254    2    1    2    0    0 -0.29877654333E+03 -0.41240002159E+02  0.21641873337E+03  0.96960200980E+03  0.89572475049E+03 0.  0.
        -24    2    4    4    0    0 -0.16508185258E+03  0.40840454944E+03  0.17179689635E+02  0.45396682507E+03  0.10837177899E+03 0.  0.
         24    2    4    4    0    0 -0.13369469075E+03 -0.44964455159E+03  0.19923904374E+03  0.51563518473E+03  0.78287636741E+02 0.  0.
         11    1    3    3    0    0  0.25751683690E+03  0.67072424504E+02  0.50162122406E+03  0.56783578951E+03  0.00000000000E+00 0. -1.
        -11    1    3    3    0    0  0.41259706428E+02 -0.25832422345E+02  0.93571334656E+02  0.10547640536E+03  0.00000000000E+00 0.  1.
          2    1    6    6  502    0 -0.78942847756E+02 -0.14548343441E+03  0.53560585838E+02  0.17397166222E+03  0.00000000000E+00 0. -1.
          3    1    5    5  503    0 -0.32789771256E+02  0.13395604087E+03  0.51840984957E+02  0.14733254124E+03  0.00000000000E+00 0. -1.
         -2    1    5    5    0  503 -0.13229208132E+03  0.27444850856E+03 -0.34661295322E+02  0.30663428384E+03  0.00000000000E+00 0.  1.
         -1    1    6    6    0  502 -0.54751842996E+02 -0.30416111718E+03  0.14567845790E+03  0.34166352251E+03  0.00000000000E+00 0.  1.
<mgrwt>
<rscale>  0 0.14284447E+04</rscale>
<asrwt>0</asrwt>
<pdfrwt beam="1">  1        1 0.18880965E+00 0.14284447E+04</pdfrwt>
<pdfrwt beam="2">  1       -1 0.63946378E-01 0.14284447E+04</pdfrwt>
<totfact> 0.24628048E+01</totfact>
</mgrwt>
</event>
<event>
12    1  0.2502641E-008  0.1118322E+04  0.7818608E-02  0.9187516E-01
          2   -1    0    0  501    0  0.00000000000E+00  0.00000000000E+00  0.22919360674E+04  0.22919360674E+04  0.00000000000E+00 0. -1.
         -2   -1    0    0    0  501 -0.00000000000E+00 -0.00000000000E+00 -0.13641790160E+03  0.13641790160E+03  0.00000000000E+00 0.  1.
         23    2    1    2    0    0 -0.21643507287E+02 -0.18233503703E+03  0.48787330817E+03  0.52869666762E+03  0.88234315297E+02 0.  0.
        254    2    1    2    0    0  0.21643507287E+02  0.18233503703E+03  0.16676448577E+04  0.18996573014E+04  0.89103534405E+03 0.  0.
        -24    2    4    4    0    0 -0.14427228681E+03  0.38847871556E+03  0.34254819811E+03  0.54594248041E+03  0.94782480966E+02 0.  0.
         24    2    4    4    0    0  0.16591579409E+03 -0.20614367853E+03  0.13250966595E+04  0.13537148210E+04  0.81482467517E+02 0.  0.
         13    1    3    3    0    0 -0.48808973076E+02 -0.15127574301E+03  0.42225424078E+03  0.45118212523E+03  0.00000000000E+00 0. -1.
        -13    1    3    3    0    0  0.27165465789E+02 -0.31059294015E+02  0.65619067392E+02  0.77514542388E+02  0.00000000000E+00 0.  1.
          2    1    6    6  502    0  0.12948850250E+03 -0.99330509432E+02  0.73123597918E+03  0.74922618723E+03  0.00000000000E+00 0. -1.
          1    1    5    5  503    0 -0.15118099806E+03  0.35371857377E+03  0.33411038934E+03  0.50951180150E+03  0.00000000000E+00 0. -1.
         -2    1    5    5    0  503  0.69087112581E+01  0.34760141788E+02  0.84378087733E+01  0.36430678902E+02  0.00000000000E+00 0.  1.
         -1    1    6    6    0  502  0.36427291592E+02 -0.10681316910E+03  0.59386068036E+03  0.60448863376E+03  0.00000000000E+00 0.  1.
<mgrwt>
<rscale>  0 0.11183222E+04</rscale>
<asrwt>0</asrwt>
<pdfrwt beam="1">  1        2 0.35260552E+00 0.11183222E+04</pdfrwt>
<pdfrwt beam="2">  1       -2 0.20987371E-01 0.11183222E+04</pdfrwt>
<totfact> 0.89677444E+01</totfact>
</mgrwt>
</event>
<event>
11    1  0.2502641E-008  0.2430466E+04  0.7818608E-02  0.8428185E-01
         -1   -1    0    0    0  501 -0.00000000000E+00  0.00000000000E+00  0.15181449724E+04  0.15181449724E+04  0.00000000000E+00 0.  1.
          1   -1    0    0  501    0  0.00000000000E+00 -0.00000000000E+00 -0.97276013106E+03  0.97276013106E+03  0.00000000000E+00 0. -1.
         23    2    1    2    0    0 -0.41911277853E+02 -0.74470137952E+02  0.13022452644E+04  0.13101012750E+04  0.11497941395E+03 0.  0.
        254    2    1    2    0    0  0.41911277853E+02  0.74470137952E+02 -0.75686042303E+03  0.11808038284E+04  0.90230683505E+03 0.  0.
         24    2    4    4    0    0  0.16093261426E+03  0.36705454500E+03 -0.78473465832E+02  0.41635928923E+03  0.81047069978E+02 0.  0.
         13    1    3    3    0    0  0.21204599869E+02 -0.35297992692E+02  0.90711020436E+03  0.90804433053E+03  0.00000000000E+00 0.  1.
        -13    1    3    3    0    0 -0.63115877723E+02 -0.39172145260E+02  0.39513506000E+03  0.40205694451E+03  0.00000000000E+00 0. -1.
          2    1    5    5  502    0  0.13822303730E+03  0.24016852574E+03 -0.30325029364E+02  0.27875820383E+03  0.00000000000E+00 0. -1.
          1    1    4    4  503    0 -0.11510034866E+03 -0.26313629413E+03 -0.44805697886E+03  0.53220659133E+03  0.00000000000E+00 0. -1.
         -2    1    4    4    0  503 -0.39209877392E+01 -0.29448112916E+02 -0.23032997834E+03  0.23223794785E+03  0.00000000000E+00 0.  1.
         -1    1    5    5    0  502  0.22709576957E+02  0.12688601926E+03 -0.48148436467E+02  0.13760108540E+03  0.00000000000E+00 0.  1.
<mgrwt>
<rscale>  0 0.24304657E+04</rscale>
<asrwt>0</asrwt>
<pdfrwt beam="1">  1        1 0.14965541E+00 0.24304657E+04</pdfrwt>
<pdfrwt beam="2">  1       -1 0.23356076E+00 0.24304657E+04</pdfrwt>
<totfact> 0.12701740E+00</totfact>
</mgrwt>
</event>
